Title
55513
    1DOPE     N    1   4.559   4.146   7.426  0.2331  0.1030  0.3196
    1DOPE   HN1    2   4.648   4.154   7.480  2.6938  1.1832 -3.4878
    1DOPE   HN2    3   4.589   4.126   7.329  0.5495 -0.2078  0.4780
    1DOPE   HN3    4   4.515   4.241   7.430  0.7473  0.4003 -0.8382
    1DOPE   C12    5   4.475   4.048   7.490 -0.1169  0.7451 -0.5592
    1DOPE  H12A    6   4.386   4.026   7.427 -2.2967 -0.5884  2.6712
    1DOPE  H12B    7   4.434   4.088   7.586 -0.6759 -1.5314  0.2083
    1DOPE   C11    8   4.552   3.919   7.523 -0.5478  0.1074  0.2240
    1DOPE  H11A    9   4.489   3.848   7.580 -1.7005  1.7949  1.1520
    1DOPE  H11B   10   4.644   3.944   7.581  1.2553 -1.4201 -1.8199
    1DOPE     P   11   4.696   3.721   7.414  0.1955 -0.4999  0.2869
    1DOPE   O13   12   4.754   3.707   7.549  0.8080  0.0644  0.7650
    1DOPE   O14   13   4.785   3.707   7.297 -0.6779 -0.5392 -0.3915
    1DOPE   O11   14   4.580   3.611   7.409 -0.9138 -0.4092 -0.6052
    1DOPE   O12   15   4.605   3.856   7.402 -0.0259 -0.7256 -0.1745
    1DOPE    C1   16   4.456   3.627   7.346  0.3992  0.5528 -0.2035
    1DOPE    HA   17   4.430   3.733   7.330 -1.0821  0.5407  1.7710
    1DOPE    HB   18   4.370   3.588   7.405 -1.1399  0.8773 -2.1609
    1DOPE    C2   19   4.439   3.565   7.203 -0.1671  0.1901  0.5144
    1DOPE    HS   20   4.430   3.455   7.210  1.2847  0.0868  1.0325
    1DOPE   O21   21   4.541   3.607   7.112  0.2193 -0.4495 -0.3497
    1DOPE   C21   22   4.642   3.520   7.103  0.9925  0.2616  0.2419
    1DOPE   O22   23   4.639   3.405   7.150 -0.1198 -0.6243  0.0725
    1DOPE   C22   24   4.754   3.574   7.013  0.7779 -0.6173  0.2094
    1DOPE   H2R   25   4.844   3.511   7.035  1.8539  0.6133 -0.5171
    1DOPE   H2S   26   4.775   3.678   7.045 -1.6477  0.0818 -0.3236
    1DOPE    C3   27   4.302   3.610   7.142  0.5709  0.3899  0.3088
    1DOPE    HX   28   4.301   3.721   7.138  0.4966  0.3827  0.0970
    1DOPE    HY   29   4.227   3.579   7.218 -1.6687  1.3777 -1.3863
    1DOPE   O31   30   4.269   3.562   7.008 -0.2890 -0.0030 -0.3731
    1DOPE   C31   31   4.241   3.437   7.005  0.7923  0.2310 -0.1131
    1DOPE   O32   32   4.246   3.356   7.097  0.0841 -0.1376 -0.2834
    1DOPE   C32   33   4.198   3.401   6.863  0.5286  0.3726 -0.8322
    1DOPE   H2X   34   4.266   3.321   6.826 -1.0961 -1.0600 -0.8859
    1DOPE   H2Y   35   4.097   3.355   6.874 -0.2260  1.6078 -2.2870
    1DOPE   C23   36   4.726   3.558   6.860 -0.6206  0.3706 -0.2547
    1DOPE   H3R   37   4.721   3.451   6.831 -0.1014  0.4058 -0.4797
    1DOPE   H3S   38   4.825   3.595   6.825 -0.8135  0.4238 -0.7548
    1DOPE   C24   39   4.621   3.647   6.805 -0.1529 -0.8493  0.5759
    1DOPE   H4R   40   4.655   3.749   6.832 -1.0155 -0.5149  0.4462
    1DOPE   H4S   41   4.518   3.637   6.848 -0.3642 -1.2096 -0.0068
    1DOPE   C25   42   4.621   3.647   6.649 -0.3685 -0.1918 -1.0457
    1DOPE   H5R   43   4.601   3.543   6.616 -1.1388 -0.0434 -1.0739
    1DOPE   H5S   44   4.723   3.669   6.611  0.3709 -0.6593  0.5922
    1DOPE   C26   45   4.515   3.749   6.596  0.2279  0.1591 -1.0212
    1DOPE   H6R   46   4.520   3.849   6.643 -2.4353  0.9074 -2.1521
    1DOPE   H6S   47   4.414   3.717   6.632  0.7758 -0.1674  0.3162
    1DOPE   C27   48   4.527   3.768   6.450 -0.4891  0.5975  0.7090
    1DOPE   H7R   49   4.521   3.669   6.400 -0.9506  0.4025  1.1513
    1DOPE   H7S   50   4.628   3.807   6.422  0.8907 -3.1687 -0.2519
    1DOPE   C28   51   4.423   3.863   6.392  0.6009  0.2974  0.2352
    1DOPE   H8R   52   4.440   3.961   6.443 -0.3499 -0.2104  1.5721
    1DOPE   H8S   53   4.326   3.822   6.426  0.5488  0.0745 -0.1869
    1DOPE   C29   54   4.432   3.877   6.244  0.1307 -0.5935  0.3254
    1DOPE   H9R   55   4.527   3.924   6.215 -1.6137  3.5783  0.6988
    1DOPE  C210   56   4.335   3.858   6.158 -0.0572  0.8069  0.6251
    1DOPE  H10R   57   4.346   3.880   6.050 -0.6118  0.0416  0.4007
    1DOPE  C211   58   4.191   3.817   6.195 -0.1653 -1.2953  0.0664
    1DOPE  H11R   59   4.161   3.861   6.292  0.4572  0.7814 -0.6055
    1DOPE  H11S   60   4.183   3.707   6.191 -1.1034 -1.2300 -0.1967
    1DOPE  C212   61   4.083   3.875   6.094  0.4983 -0.4007 -0.3559
    1DOPE  H12R   62   3.990   3.830   6.135  0.5316  1.1774  1.5428
    1DOPE  H12S   63   4.091   3.835   5.990  0.9593 -0.6729 -0.2171
    1DOPE  C213   64   4.064   4.021   6.102  0.0466 -0.3709  0.2593
    1DOPE  H13R   65   4.163   4.073   6.098 -0.1338 -0.0458  0.0029
    1DOPE  H13S   66   4.025   4.044   6.203 -0.1834 -0.0403  0.0997
    1DOPE  C214   67   3.955   4.074   6.001 -0.5774 -0.5995  0.7569
    1DOPE  H14R   68   3.865   4.009   6.011 -1.8447  0.8705 -0.6271
    1DOPE  H14S   69   3.998   4.070   5.899 -0.3018  2.8330  0.6495
    1DOPE  C215   70   3.916   4.220   6.030 -0.1329  0.8884  0.3387
    1DOPE  H15R   71   3.915   4.239   6.139 -3.4057 -2.0451  1.0237
    1DOPE  H15S   72   3.808   4.225   6.002 -0.6247 -2.1721  1.3436
    1DOPE  C216   73   3.997   4.307   5.943  0.6925 -1.0992 -0.7535
    1DOPE  H16R   74   3.973   4.290   5.835  0.8419 -1.5568 -0.7135
    1DOPE  H16S   75   4.103   4.276   5.954  1.0383  0.1940 -0.2779
    1DOPE  C217   76   3.973   4.454   5.986 -0.1564  0.2846  0.3940
    1DOPE  H17R   77   3.975   4.463   6.097 -1.2866 -1.6239  0.6190
    1DOPE  H17S   78   3.875   4.488   5.946  0.1574  2.0024  1.0330
    1DOPE  C218   79   4.077   4.539   5.922  0.4850  0.7058  0.1505
    1DOPE  H18R   80   4.076   4.518   5.813 -0.4537  0.6246  0.1618
    1DOPE  H18S   81   4.178   4.539   5.968  0.6879 -0.4371 -0.2657
    1DOPE  H18T   82   4.047   4.646   5.928 -0.4512  0.4531  0.2303
    1DOPE   C33   83   4.203   3.511   6.756  0.9643 -0.4827  0.6705
    1DOPE   H3X   84   4.296   3.571   6.745 -0.2548  1.2675 -0.8131
    1DOPE   H3Y   85   4.131   3.587   6.793  1.3552  0.3929 -0.3004
    1DOPE   C34   86   4.162   3.453   6.616 -0.1853 -0.0802  0.2754
    1DOPE   H4X   87   4.079   3.379   6.614  1.2076 -1.6844 -0.4243
    1DOPE   H4Y   88   4.112   3.540   6.566 -0.0849 -0.1160  0.1125
    1DOPE   C35   89   4.271   3.412   6.518 -0.5345  0.1228 -0.6777
    1DOPE   H5X   90   4.318   3.318   6.553 -1.5803 -0.6006 -1.1520
    1DOPE   H5Y   91   4.356   3.482   6.511  1.0944 -1.8105 -1.2245
    1DOPE   C36   92   4.217   3.403   6.372  0.0946  0.6227  0.5433
    1DOPE   H6X   93   4.182   3.497   6.326  0.4645  0.6543  0.3239
    1DOPE   H6Y   94   4.130   3.335   6.369  0.2285  0.4764 -0.0632
    1DOPE   C37   95   4.331   3.344   6.279  0.4404 -0.0585 -0.3454
    1DOPE   H7X   96   4.370   3.256   6.334 -0.4289 -1.3911 -1.7583
    1DOPE   H7Y   97   4.288   3.308   6.183 -1.1806  1.6500 -0.3172
    1DOPE   C38   98   4.442   3.448   6.251 -0.1625 -0.1909 -0.6077
    1DOPE   H8X   99   4.489   3.467   6.350  0.5736 -0.0493 -0.9803
    1DOPE   H8Y  100   4.385   3.540   6.223  0.2146  0.3916  0.4786
    1DOPE   C39  101   4.534   3.406   6.145 -0.3380  0.8554 -0.4994
    1DOPE   H9X  102   4.514   3.311   6.094  0.5985  1.9957 -3.1712
    1DOPE  C310  103   4.648   3.473   6.109  0.0369  0.2317 -0.0647
    1DOPE  H10X  104   4.714   3.424   6.035 -0.0606  1.2905 -0.8731
    1DOPE  C311  105   4.707   3.606   6.162 -0.5091  0.2916 -0.4239
    1DOPE  H11X  106   4.630   3.661   6.220  0.7181 -0.1649  1.7881
    1DOPE  H11Y  107   4.791   3.578   6.229  0.2562  1.7292 -0.7334
    1DOPE  C312  108   4.749   3.712   6.047 -0.5303  0.3638  0.1506
    1DOPE  H12X  109   4.656   3.744   5.995 -0.5053 -1.4912 -1.1232
    1DOPE  H12Y  110   4.806   3.658   5.968  1.2539 -0.0281  1.6393
    1DOPE  C313  111   4.824   3.837   6.096 -0.4404 -0.3853 -0.2559
    1DOPE  H13X  112   4.776   3.859   6.194 -0.8924 -4.4216  0.6037
    1DOPE  H13Y  113   4.931   3.815   6.118 -0.5494 -1.3579 -0.6807
    1DOPE  C314  114   4.826   3.958   5.994 -0.1405 -0.0393 -0.7241
    1DOPE  H14X  115   4.724   4.001   5.988  0.4028  1.2978 -0.5532
    1DOPE  H14Y  116   4.854   3.916   5.895  0.1478  0.8692 -1.0342
    1DOPE  C315  117   4.918   4.072   6.044 -0.0809 -0.7252  0.5887
    1DOPE  H15X  118   5.018   4.025   6.046  1.0387  1.3008 -1.8262
    1DOPE  H15Y  119   4.878   4.118   6.136 -2.1190  0.7837 -0.9544
    1DOPE  C316  120   4.938   4.178   5.937  0.6301 -0.0709  0.6484
    1DOPE  H16X  121   4.842   4.231   5.923  1.9791  2.2667 -0.3679
    1DOPE  H16Y  122   4.958   4.118   5.845 -2.0458  0.8768 -0.6523
    1DOPE  C317  123   5.065   4.261   5.965 -0.3644  0.6977 -0.0761
    1DOPE  H17X  124   5.146   4.185   5.969  0.0871  1.2119  3.4248
    1DOPE  H17Y  125   5.071   4.333   5.881 -0.3760 -0.9314 -1.5370
    1DOPE  C318  126   5.059   4.330   6.100 -0.2108 -0.1120 -0.1487
    1DOPE  H18X  127   5.029   4.255   6.176  0.4415 -2.4627 -2.0900
    1DOPE  H18Y  128   5.161   4.367   6.125 -0.1603 -0.5357  0.2994
    1DOPE  H18Z  129   4.985   4.413   6.100  0.1849  0.2978 -2.3916
    2DOPE     N  130   3.467   5.088   7.146  0.0468  0.1682 -0.0455
    2DOPE   HN1  131   3.568   5.093   7.169  0.2956 -1.8853 -0.5358
    2DOPE   HN2  132   3.458   5.127   7.050  0.7851 -1.9267 -1.0357
    2DOPE   HN3  133   3.404   5.143   7.208 -2.4700  0.1010 -2.3111
    2DOPE   C12  134   3.441   4.942   7.130 -0.3392 -0.1120 -0.2377
    2DOPE  H12A  135   3.342   4.915   7.088 -0.8841 -0.2473  1.0901
    2DOPE  H12B  136   3.447   4.892   7.229  0.0490 -0.3891 -0.3964
    2DOPE   C11  137   3.555   4.895   7.034 -0.1180  0.0370  0.2974
    2DOPE  H11A  138   3.544   4.945   6.935  0.2228 -0.2178  0.1305
    2DOPE  H11B  139   3.533   4.788   7.018 -0.8495  0.1252  0.6838
    2DOPE     P  140   3.768   4.841   7.170 -0.0149  0.2209 -0.1873
    2DOPE   O13  141   3.699   4.713   7.193 -0.8601  0.5377  0.3333
    2DOPE   O14  142   3.794   4.923   7.291  0.0058 -0.7494  0.1989
    2DOPE   O11  143   3.903   4.808   7.091  0.3864  0.3586 -0.6279
    2DOPE   O12  144   3.687   4.922   7.068  0.1859  0.5598 -0.1682
    2DOPE    C1  145   3.892   4.709   6.984 -0.3991  0.9060  0.4800
    2DOPE    HA  146   3.814   4.735   6.909 -0.2407  0.5629  0.1932
    2DOPE    HB  147   3.889   4.603   7.017 -0.1925  0.5427 -0.6240
    2DOPE    C2  148   4.024   4.728   6.896 -0.0410  0.1725  0.5333
    2DOPE    HS  149   4.107   4.758   6.964 -1.1984  2.7414  0.9366
    2DOPE   O21  150   3.998   4.827   6.796  0.0829 -0.0795 -0.2750
    2DOPE   C21  151   4.077   4.933   6.794  0.6428 -0.1505  0.3394
    2DOPE   O22  152   4.158   4.967   6.871  0.1345 -0.4749  0.4575
    2DOPE   C22  153   4.063   4.993   6.651  0.3013 -0.0906 -0.4821
    2DOPE   H2R  154   4.075   5.103   6.657 -1.8298  0.1735 -0.2756
    2DOPE   H2S  155   3.957   4.980   6.620 -0.9707  2.3142  2.4184
    2DOPE    C3  156   4.065   4.589   6.832 -0.7077  0.4716  0.3307
    2DOPE    HX  157   3.977   4.550   6.777 -0.6879  2.6800 -1.3712
    2DOPE    HY  158   4.077   4.513   6.913  0.3077  1.4277  1.1058
    2DOPE   O31  159   4.182   4.607   6.749  0.0581  0.0020  0.2060
    2DOPE   C31  160   4.305   4.609   6.815 -0.2062 -0.2334  0.4590
    2DOPE   O32  161   4.308   4.592   6.934  0.2305 -0.0194 -0.1774
    2DOPE   C32  162   4.418   4.631   6.716  0.3116  0.3753  0.0054
    2DOPE   H2X  163   4.445   4.550   6.645  0.7240  0.7238 -0.2388
    2DOPE   H2Y  164   4.381   4.710   6.648 -0.3678 -0.9294 -1.1770
    2DOPE   C23  165   4.162   4.941   6.541 -0.2264  0.1133 -0.2829
    2DOPE   H3R  166   4.258   4.938   6.596 -0.7596 -2.2220  0.6306
    2DOPE   H3S  167   4.168   5.022   6.465  0.9577  0.7366  0.4527
    2DOPE   C24  168   4.124   4.803   6.489  0.2093 -0.3971  0.0292
    2DOPE   H4R  169   4.014   4.795   6.502  0.3773 -0.0331  1.9792
    2DOPE   H4S  170   4.169   4.729   6.558  1.0955 -0.4676 -0.6089
    2DOPE   C25  171   4.166   4.774   6.350 -0.3306  1.2813 -0.8174
    2DOPE   H5R  172   4.277   4.775   6.344 -0.2661  1.8213  0.3719
    2DOPE   H5S  173   4.126   4.852   6.281 -3.4932 -0.5842 -1.3009
    2DOPE   C26  174   4.117   4.639   6.292  0.4745  0.1374 -0.7045
    2DOPE   H6R  175   4.140   4.633   6.184  0.7950 -0.9948 -0.5861
    2DOPE   H6S  176   4.007   4.625   6.289  0.5515 -0.6049 -0.2035
    2DOPE   C27  177   4.171   4.516   6.357 -0.0088  0.9278  0.0007
    2DOPE   H7R  178   4.122   4.425   6.317  2.3612 -1.0614  1.4362
    2DOPE   H7S  179   4.151   4.528   6.466  1.3679  1.5384  0.1991
    2DOPE   C28  180   4.329   4.511   6.344  0.0510  0.0942 -0.3987
    2DOPE   H8R  181   4.384   4.563   6.425  0.8907  1.0925 -1.5727
    2DOPE   H8S  182   4.356   4.568   6.253  1.5596 -0.1499 -0.1247
    2DOPE   C29  183   4.377   4.364   6.339 -0.0209 -0.9529  0.2626
    2DOPE   H9R  184   4.296   4.296   6.310  0.0150 -1.5576  1.5516
    2DOPE  C210  185   4.498   4.309   6.363 -0.0444 -0.6462  0.1293
    2DOPE  H10R  186   4.504   4.200   6.381  0.5337 -0.8418 -1.1602
    2DOPE  C211  187   4.620   4.385   6.409 -0.2487  0.6261  0.6205
    2DOPE  H11R  188   4.599   4.492   6.432 -1.2927  0.2702  1.3753
    2DOPE  H11S  189   4.695   4.385   6.326 -2.2887  1.3675 -1.3398
    2DOPE  C212  190   4.700   4.327   6.533  0.1342  0.4721 -0.5196
    2DOPE  H12R  191   4.639   4.349   6.623  1.4265  1.6166  0.1264
    2DOPE  H12S  192   4.783   4.399   6.553 -1.2004  1.5136  1.6366
    2DOPE  C213  193   4.731   4.173   6.540 -0.2733  0.0826 -0.1589
    2DOPE  H13R  194   4.642   4.107   6.532  0.5549 -0.8771 -2.0345
    2DOPE  H13S  195   4.769   4.159   6.644 -2.4669 -1.5419  0.4844
    2DOPE  C214  196   4.840   4.127   6.445  0.0302  0.1441  0.1608
    2DOPE  H14R  197   4.918   4.205   6.429  1.3471 -1.3523 -1.0438
    2DOPE  H14S  198   4.788   4.095   6.351  0.0200 -1.0168  0.5461
    2DOPE  C215  199   4.929   4.007   6.488  0.5145 -0.3294 -0.0603
    2DOPE  H15R  200   4.855   3.925   6.487  0.2707 -0.1473  1.2675
    2DOPE  H15S  201   4.963   4.005   6.594  0.9561 -2.4668 -0.1884
    2DOPE  C216  202   5.057   3.985   6.408  0.3918  0.2340  0.2567
    2DOPE  H16R  203   5.026   4.000   6.303 -0.5742 -0.2438  0.4590
    2DOPE  H16S  204   5.088   3.879   6.418  1.0296  0.6056  3.3213
    2DOPE  C217  205   5.178   4.070   6.440 -0.2686 -0.2345 -0.5668
    2DOPE  H17R  206   5.192   4.073   6.550 -0.9172  0.3139 -0.4893
    2DOPE  H17S  207   5.158   4.175   6.409 -1.0805 -0.5927 -1.3070
    2DOPE  C218  208   5.299   4.037   6.363 -0.5394  0.3431 -0.3065
    2DOPE  H18R  209   5.274   4.039   6.255 -2.4535 -2.1701  0.0025
    2DOPE  H18S  210   5.326   3.930   6.380  0.5712  0.2835 -2.2275
    2DOPE  H18T  211   5.381   4.110   6.380 -2.0057  2.6779 -2.6042
    2DOPE   C33  212   4.542   4.681   6.784  0.0660  0.4838  0.2415
    2DOPE   H3X  213   4.565   4.607   6.864 -2.5312 -0.8152 -0.1061
    2DOPE   H3Y  214   4.532   4.779   6.834 -3.1524 -0.0859  0.9190
    2DOPE   C34  215   4.661   4.687   6.688 -0.3126  0.5410  0.5506
    2DOPE   H4X  216   4.750   4.708   6.751 -0.2867 -0.4960  0.8780
    2DOPE   H4Y  217   4.674   4.585   6.645 -1.3484 -0.0287  1.5405
    2DOPE   C35  218   4.637   4.796   6.589 -0.5934 -0.0733 -0.1534
    2DOPE   H5X  219   4.595   4.883   6.644 -1.1669 -1.7798  2.2829
    2DOPE   H5Y  220   4.545   4.776   6.529 -2.3666  1.2041  1.9510
    2DOPE   C36  221   4.767   4.841   6.506 -0.0844 -0.2962 -0.0531
    2DOPE   H6X  222   4.829   4.879   6.589  0.2008 -0.8931  0.0168
    2DOPE   H6Y  223   4.740   4.918   6.431 -3.1132 -1.9060 -0.7909
    2DOPE   C37  224   4.837   4.725   6.440  0.2000  0.4450  0.1089
    2DOPE   H7X  225   4.834   4.628   6.494 -0.0070  0.6240  0.4186
    2DOPE   H7Y  226   4.781   4.689   6.351 -0.0922 -0.6599  0.7254
    2DOPE   C38  227   4.982   4.767   6.399  0.2350  0.1116  0.9156
    2DOPE   H8X  228   5.046   4.752   6.489  0.4460  0.1563  0.7733
    2DOPE   H8Y  229   4.986   4.877   6.385 -1.0277  0.1901  1.0436
    2DOPE   C39  230   5.026   4.681   6.277 -0.8570 -0.9241 -0.0877
    2DOPE   H9X  231   4.945   4.661   6.205 -1.0632  0.5443 -0.2979
    2DOPE  C310  232   5.149   4.621   6.263 -0.1852 -0.1966  0.3670
    2DOPE  H10X  233   5.162   4.573   6.165 -3.2185  2.2402 -1.4222
    2DOPE  C311  234   5.261   4.610   6.353  0.4761 -0.1896  0.0381
    2DOPE  H11X  235   5.349   4.662   6.309 -0.6205  0.2661 -1.7424
    2DOPE  H11Y  236   5.255   4.674   6.443  0.1347 -0.0839 -0.0595
    2DOPE  C312  237   5.291   4.473   6.403  0.5890  0.9497 -0.0489
    2DOPE  H12X  238   5.399   4.476   6.430  0.5952 -0.8488  0.2045
    2DOPE  H12Y  239   5.293   4.396   6.323  0.3064  2.7738 -1.9064
    2DOPE  C313  240   5.199   4.440   6.523  0.2256  1.2087 -0.4610
    2DOPE  H13X  241   5.091   4.445   6.497  0.2624 -0.7340 -1.1279
    2DOPE  H13Y  242   5.226   4.337   6.554  0.9719  1.8957  1.3095
    2DOPE  C314  243   5.233   4.513   6.655  0.4452  0.0660  0.3545
    2DOPE  H14X  244   5.203   4.620   6.647  1.2499  0.2357 -0.6611
    2DOPE  H14Y  245   5.343   4.508   6.668  0.2037  0.7655  3.7004
    2DOPE  C315  246   5.158   4.440   6.775 -0.1608  0.1219  0.0775
    2DOPE  H15X  247   5.199   4.484   6.868  1.5184  0.1596 -0.6221
    2DOPE  H15Y  248   5.178   4.331   6.774  3.0908  0.5849  0.7157
    2DOPE  C316  249   5.010   4.469   6.777 -0.2632 -0.9971  0.1498
    2DOPE  H16X  250   4.952   4.423   6.694 -0.2522 -1.7388  0.5455
    2DOPE  H16Y  251   5.002   4.580   6.773 -0.2891 -1.0094 -0.1781
    2DOPE  C317  252   4.953   4.417   6.909  0.4250 -0.8937  0.5793
    2DOPE  H17X  253   4.963   4.307   6.921 -2.2160 -1.0587  1.7799
    2DOPE  H17Y  254   5.006   4.458   6.997  0.3132  1.9481 -0.5402
    2DOPE  C318  255   4.801   4.446   6.925 -0.3936 -0.1371 -0.7198
    2DOPE  H18X  256   4.764   4.408   7.022 -1.9708  1.1147 -0.7745
    2DOPE  H18Y  257   4.785   4.555   6.940 -0.0786 -0.3294  1.2945
    2DOPE  H18Z  258   4.749   4.403   6.837  0.3884  0.1438 -1.3304
    3DOPE     N  259   2.329   4.118   7.326  0.3365 -0.5162 -0.0348
    3DOPE   HN1  260   2.358   4.052   7.401  3.9547 -0.6613 -1.3684
    3DOPE   HN2  261   2.294   4.208   7.366  0.1216 -0.2582 -0.7924
    3DOPE   HN3  262   2.243   4.074   7.286 -1.7385  4.2377 -1.6052
    3DOPE   C12  263   2.444   4.153   7.240 -0.4021 -0.3315  0.1737
    3DOPE  H12A  264   2.506   4.061   7.244 -0.0811 -0.1626 -0.7325
    3DOPE  H12B  265   2.496   4.238   7.290 -1.2420  0.8062 -0.8322
    3DOPE   C11  266   2.391   4.194   7.106  0.2892  0.1178 -0.0123
    3DOPE  H11A  267   2.327   4.281   7.128  0.1936 -0.3977  1.9776
    3DOPE  H11B  268   2.330   4.108   7.069 -0.5598  0.7878 -0.1954
    3DOPE     P  269   2.573   4.349   7.013  0.3905 -0.4191 -0.1967
    3DOPE   O13  270   2.700   4.335   7.091 -0.2299 -0.6646 -0.5159
    3DOPE   O14  271   2.479   4.463   7.040 -0.3399 -0.2755 -0.1388
    3DOPE   O11  272   2.615   4.362   6.867  0.0302  0.8932  0.1446
    3DOPE   O12  273   2.497   4.216   7.006  0.0571  0.4646  0.0653
    3DOPE    C1  274   2.677   4.254   6.798 -0.6030  0.0622  0.0357
    3DOPE    HA  275   2.605   4.171   6.783  0.7638 -1.0540 -0.6919
    3DOPE    HB  276   2.756   4.207   6.862 -2.0580 -0.4158  1.5474
    3DOPE    C2  277   2.745   4.307   6.668  0.1677  0.5263 -0.4477
    3DOPE    HS  278   2.675   4.376   6.616 -0.6512  0.2624  0.2838
    3DOPE   O21  279   2.776   4.195   6.582 -0.3598 -0.3603 -0.8409
    3DOPE   C21  280   2.674   4.127   6.522 -0.1942 -0.0297  0.1599
    3DOPE   O22  281   2.560   4.161   6.514  0.1620 -0.3099 -0.1019
    3DOPE   C22  282   2.733   4.005   6.451 -0.3818  0.3910 -0.4125
    3DOPE   H2R  283   2.746   3.932   6.534 -2.1260  0.2974 -0.1793
    3DOPE   H2S  284   2.837   4.035   6.426 -0.0975  1.4831  1.8040
    3DOPE    C3  285   2.874   4.385   6.697 -0.4547 -0.5350 -0.3521
    3DOPE    HX  286   2.940   4.313   6.750  0.8249 -0.8905 -2.3109
    3DOPE    HY  287   2.826   4.463   6.760 -1.7322 -1.3338 -0.2966
    3DOPE   O31  288   2.926   4.435   6.573 -0.1444  0.5804  0.4525
    3DOPE   C31  289   3.044   4.486   6.586  0.0168 -0.2598  0.2530
    3DOPE   O32  290   3.110   4.477   6.690 -0.2072 -0.0787  0.9041
    3DOPE   C32  291   3.097   4.530   6.453 -0.2568  0.0814  0.1140
    3DOPE   H2X  292   3.117   4.440   6.391 -1.5846 -0.0515 -0.1465
    3DOPE   H2Y  293   3.020   4.590   6.400 -0.4863  1.7544  2.2076
    3DOPE   C23  294   2.649   3.962   6.324 -1.0871 -0.1891 -0.3911
    3DOPE   H3R  295   2.541   3.946   6.343 -1.2896 -2.5620 -2.8099
    3DOPE   H3S  296   2.687   3.866   6.281 -0.3912  0.7320 -1.9121
    3DOPE   C24  297   2.670   4.064   6.208  0.4628  0.1810  0.3355
    3DOPE   H4R  298   2.778   4.067   6.181  0.8407 -2.3107  1.2990
    3DOPE   H4S  299   2.631   4.164   6.237  0.6904  0.2322  0.4657
    3DOPE   C25  300   2.597   4.025   6.077 -0.4470 -0.2899 -0.3374
    3DOPE   H5R  301   2.492   4.007   6.108 -0.3912 -2.7393 -1.3638
    3DOPE   H5S  302   2.647   3.926   6.067 -0.3713 -0.3666  0.6769
    3DOPE   C26  303   2.609   4.126   5.967 -0.9145  0.7493 -0.6027
    3DOPE   H6R  304   2.585   4.086   5.867  2.1430 -0.4735 -0.9535
    3DOPE   H6S  305   2.717   4.153   5.963 -0.8245  0.4984 -0.0259
    3DOPE   C27  306   2.514   4.241   6.010 -0.2721 -0.4072  0.9181
    3DOPE   H7R  307   2.561   4.293   6.096 -0.5880  1.7623 -0.1241
    3DOPE   H7S  308   2.423   4.196   6.053  0.5051 -2.7104  0.3091
    3DOPE   C28  309   2.489   4.356   5.905  0.0126  0.8541  0.4299
    3DOPE   H8R  310   2.419   4.427   5.954  0.4475 -0.2473  2.7563
    3DOPE   H8S  311   2.432   4.308   5.822 -0.3083  0.4724  0.8669
    3DOPE   C29  312   2.619   4.415   5.861 -0.6062  0.5866  0.0287
    3DOPE   H9R  313   2.694   4.424   5.940 -1.5635  1.7588  0.8408
    3DOPE  C210  314   2.655   4.443   5.732  0.1273 -0.0281  0.0201
    3DOPE  H10R  315   2.743   4.508   5.715 -2.0113  2.0650 -4.7925
    3DOPE  C211  316   2.574   4.420   5.610  0.6899  0.7999  0.5564
    3DOPE  H11R  317   2.607   4.489   5.529 -2.3836  2.4320  0.5157
    3DOPE  H11S  318   2.463   4.429   5.617  0.4512 -0.2703 -1.2155
    3DOPE  C212  319   2.605   4.277   5.556  0.5385 -0.1597 -0.1500
    3DOPE  H12R  320   2.551   4.213   5.629  1.8088 -1.8983 -0.6690
    3DOPE  H12S  321   2.711   4.246   5.550  0.2212 -1.2272 -0.4153
    3DOPE  C213  322   2.525   4.262   5.424 -0.1915  0.2441 -0.6352
    3DOPE  H13R  323   2.568   4.340   5.357 -0.6601  0.6483 -0.4660
    3DOPE  H13S  324   2.416   4.271   5.441 -0.3154  1.9939 -2.0968
    3DOPE  C214  325   2.556   4.127   5.358  0.4109 -0.2910  0.6595
    3DOPE  H14R  326   2.531   4.044   5.427 -0.4217 -1.1509 -0.6391
    3DOPE  H14S  327   2.666   4.122   5.342  0.1424  0.3517 -1.7150
    3DOPE  C215  328   2.488   4.117   5.223 -0.0798  0.0129  0.0331
    3DOPE  H15R  329   2.519   4.201   5.157  2.4205  0.5578  1.7414
    3DOPE  H15S  330   2.378   4.129   5.233  0.1043  1.8127  0.2825
    3DOPE  C216  331   2.515   3.982   5.156  0.4826 -0.3511 -0.0078
    3DOPE  H16R  332   2.479   3.911   5.234  3.4657  0.0892  1.9362
    3DOPE  H16S  333   2.624   3.969   5.138  0.2095 -0.9436 -1.3524
    3DOPE  C217  334   2.443   3.963   5.021 -0.2297  0.4092 -0.0583
    3DOPE  H17R  335   2.510   3.903   4.956 -1.3648 -2.0381  0.9029
    3DOPE  H17S  336   2.443   4.062   4.971 -0.8750  0.0189 -0.8490
    3DOPE  C218  337   2.315   3.886   5.017 -0.2862  0.1321  0.1499
    3DOPE  H18R  338   2.316   3.800   5.087 -1.6580 -2.3089 -2.6027
    3DOPE  H18S  339   2.287   3.846   4.917 -0.7238 -0.6358  0.5709
    3DOPE  H18T  340   2.228   3.946   5.053 -1.3949 -2.2938  1.7687
    3DOPE   C33  341   3.237   4.607   6.466 -0.4092 -0.2691  0.3086
    3DOPE   H3X  342   3.320   4.546   6.508  0.1554 -0.0648 -0.4906
    3DOPE   H3Y  343   3.233   4.696   6.532  1.5639  0.2286 -0.1807
    3DOPE   C34  344   3.261   4.676   6.324 -0.6557 -0.0304  0.1789
    3DOPE   H4X  345   3.250   4.600   6.244 -2.6365  0.6892 -0.2986
    3DOPE   H4Y  346   3.178   4.748   6.307 -2.8356 -2.4016  0.1917
    3DOPE   C35  347   3.399   4.749   6.322 -0.0920 -0.3692 -0.9970
    3DOPE   H5X  348   3.484   4.685   6.356  0.6421  0.6642 -0.8578
    3DOPE   H5Y  349   3.399   4.838   6.387  0.9677 -0.1649 -1.2597
    3DOPE   C36  350   3.436   4.800   6.182 -0.1878  0.5448  0.1659
    3DOPE   H6X  351   3.446   4.719   6.106  1.0027 -1.2479  2.1390
    3DOPE   H6Y  352   3.535   4.851   6.183 -1.1430  2.5508 -1.0245
    3DOPE   C37  353   3.332   4.902   6.132 -0.3598  0.0485  0.4781
    3DOPE   H7X  354   3.252   4.855   6.070  0.9093  0.3219 -1.4356
    3DOPE   H7Y  355   3.271   4.946   6.214 -1.7435  1.6660 -1.3299
    3DOPE   C38  356   3.393   5.015   6.042 -0.0379 -0.4436 -0.7406
    3DOPE   H8X  357   3.314   5.045   5.969  1.4382  1.4635 -1.6609
    3DOPE   H8Y  358   3.468   4.975   5.970  0.5390 -1.1848  0.2605
    3DOPE   C39  359   3.426   5.134   6.125  0.5705  0.0336 -0.1468
    3DOPE   H9X  360   3.410   5.129   6.233 -2.0307  1.2563 -0.3993
    3DOPE  C310  361   3.468   5.251   6.074 -0.2507 -0.3845  0.5289
    3DOPE  H10X  362   3.485   5.337   6.139 -1.7987  0.2654  0.1146
    3DOPE  C311  363   3.498   5.276   5.928  0.1574  0.2026  0.0218
    3DOPE  H11X  364   3.473   5.190   5.863 -2.2860 -0.7739  2.0792
    3DOPE  H11Y  365   3.440   5.362   5.886 -0.1021  0.5758  1.0932
    3DOPE  C312  366   3.640   5.314   5.906 -0.1808 -0.5093 -0.0123
    3DOPE  H12X  367   3.710   5.250   5.962  0.1183 -0.4685 -0.3420
    3DOPE  H12Y  368   3.664   5.414   5.947  1.8645  0.3443 -2.9957
    3DOPE  C313  369   3.680   5.313   5.758  0.3912  0.6725  0.2793
    3DOPE  H13X  370   3.790   5.330   5.761  0.4830 -0.0182  1.1722
    3DOPE  H13Y  371   3.659   5.208   5.729  1.3276 -0.1732  2.4398
    3DOPE  C314  372   3.612   5.409   5.662  0.0871  0.2310 -0.1417
    3DOPE  H14X  373   3.643   5.511   5.692 -0.4142 -0.3034  2.4967
    3DOPE  H14Y  374   3.501   5.414   5.674 -0.0103  1.4168 -1.2734
    3DOPE  C315  375   3.648   5.386   5.514  0.3528 -0.0169  0.5649
    3DOPE  H15X  376   3.616   5.284   5.482  0.3245  0.5610 -1.3924
    3DOPE  H15Y  377   3.758   5.396   5.503  0.3868 -1.6483 -0.9175
    3DOPE  C316  378   3.593   5.498   5.429  0.2341 -0.3339  0.5873
    3DOPE  H16X  379   3.618   5.593   5.482  2.9006 -1.4136  1.4618
    3DOPE  H16Y  380   3.482   5.487   5.436  0.1399  0.0473 -0.2960
    3DOPE  C317  381   3.643   5.498   5.290 -0.3437 -0.2110 -0.0542
    3DOPE  H17X  382   3.752   5.515   5.288  0.1575 -2.9752  0.3884
    3DOPE  H17Y  383   3.618   5.400   5.244  3.4421 -1.1125 -0.5116
    3DOPE  C318  384   3.585   5.609   5.200  0.2256  0.5654  0.2031
    3DOPE  H18X  385   3.476   5.595   5.184  0.0621  0.6835  1.1613
    3DOPE  H18Y  386   3.596   5.706   5.253 -0.3668  0.2757  0.8676
    3DOPE  H18Z  387   3.637   5.593   5.103 -0.6411 -2.2483  0.1183
    4DOPE     N  388   2.968   3.022   7.038 -0.2988 -0.2480 -0.0451
    4DOPE   HN1  389   3.029   3.002   7.120 -1.3514 -1.3502  0.4949
    4DOPE   HN2  390   2.943   3.122   7.054 -0.6052 -0.2173 -0.6808
    4DOPE   HN3  391   2.887   2.958   7.044 -1.0382  0.6277 -0.3290
    4DOPE   C12  392   3.046   3.001   6.910  0.1050 -0.6057 -0.4186
    4DOPE  H12A  393   3.112   3.089   6.900 -0.2229 -0.4999 -1.9036
    4DOPE  H12B  394   2.967   2.984   6.834  1.1272 -2.3224 -1.1684
    4DOPE   C11  395   3.132   2.871   6.921 -0.5776  0.4446 -0.0198
    4DOPE  H11A  396   3.208   2.863   6.840 -0.2312  1.5212  0.1915
    4DOPE  H11B  397   3.069   2.786   6.887 -0.3369  0.1281  0.3059
    4DOPE     P  398   3.311   2.941   7.094  0.2051 -0.3721 -0.4515
    4DOPE   O13  399   3.373   2.874   7.208 -0.6073 -0.0048 -0.3642
    4DOPE   O14  400   3.265   3.081   7.110  0.2936  0.2597 -0.7402
    4DOPE   O11  401   3.397   2.938   6.963 -0.0661  0.2499 -0.3786
    4DOPE   O12  402   3.191   2.851   7.048  0.4490  0.0968  0.0960
    4DOPE    C1  403   3.476   2.822   6.930  0.5542 -0.0021 -0.2809
    4DOPE    HA  404   3.409   2.735   6.915 -2.0674  1.9097 -0.3247
    4DOPE    HB  405   3.544   2.798   7.014 -0.0623  1.5344  0.6957
    4DOPE    C2  406   3.570   2.834   6.806  0.2336 -0.5126 -0.3852
    4DOPE    HS  407   3.650   2.897   6.851  0.4755 -1.6794  0.8938
    4DOPE   O21  408   3.505   2.898   6.698  0.1983  0.2704  0.0978
    4DOPE   C21  409   3.389   2.866   6.641 -0.3738 -0.3548 -0.6928
    4DOPE   O22  410   3.332   2.762   6.665  0.6020 -0.5113 -0.5831
    4DOPE   C22  411   3.343   2.975   6.537  0.2577 -0.1766 -0.6464
    4DOPE   H2R  412   3.392   3.070   6.569 -0.2653  0.7831 -2.5525
    4DOPE   H2S  413   3.233   2.988   6.541  0.1915  0.7204 -3.4469
    4DOPE    C3  414   3.629   2.697   6.765 -0.1222 -0.2722  0.2656
    4DOPE    HX  415   3.549   2.619   6.761  1.5952 -2.1237 -2.9055
    4DOPE    HY  416   3.705   2.672   6.841 -0.1056  3.3790  1.5953
    4DOPE   O31  417   3.679   2.696   6.628 -0.1244  0.7162  0.1861
    4DOPE   C31  418   3.787   2.628   6.611  0.4817  0.1515 -0.1660
    4DOPE   O32  419   3.840   2.545   6.682  0.0409 -0.1199  0.4232
    4DOPE   C32  420   3.847   2.679   6.477 -0.7403  0.3129  0.0885
    4DOPE   H2X  421   3.763   2.701   6.408 -0.3545 -0.5440 -0.6827
    4DOPE   H2Y  422   3.900   2.775   6.495 -0.1760  0.3108 -1.3946
    4DOPE   C23  423   3.366   2.943   6.387  0.0106  0.2601 -0.0465
    4DOPE   H3R  424   3.327   3.031   6.330  0.4865  0.2490 -0.3991
    4DOPE   H3S  425   3.323   2.850   6.346  0.7562 -1.2530  2.3904
    4DOPE   C24  426   3.520   2.930   6.357  0.6507  0.5297 -0.0809
    4DOPE   H4R  427   3.557   2.845   6.418 -0.7223  0.7645  1.1510
    4DOPE   H4S  428   3.583   3.016   6.387  0.3828  0.2559  1.3818
    4DOPE   C25  429   3.539   2.910   6.203 -0.7932  0.2563  0.6951
    4DOPE   H5R  430   3.491   2.989   6.141  0.9124 -1.1867 -2.7440
    4DOPE   H5S  431   3.488   2.816   6.171  1.7453 -0.6070 -1.1548
    4DOPE   C26  432   3.682   2.896   6.147 -0.4517 -0.5114  0.0305
    4DOPE   H6R  433   3.739   2.832   6.218 -1.8431 -0.3439  1.3669
    4DOPE   H6S  434   3.721   3.000   6.152  0.0439 -0.6958  0.0233
    4DOPE   C27  435   3.691   2.859   5.999 -0.7130  0.7270 -0.1939
    4DOPE   H7R  436   3.653   2.949   5.946 -0.6897  0.4525 -0.6833
    4DOPE   H7S  437   3.618   2.778   5.977  0.6073 -0.6785  0.4271
    4DOPE   C28  438   3.834   2.811   5.964 -0.4957  0.0001  0.5361
    4DOPE   H8R  439   3.828   2.704   5.934  0.4279  0.7062 -2.5265
    4DOPE   H8S  440   3.900   2.815   6.053 -0.2186 -1.6352  0.4376
    4DOPE   C29  441   3.888   2.889   5.847  0.2950  0.2726 -0.4876
    4DOPE   H9R  442   3.845   2.852   5.753  1.3796 -1.9477 -0.1661
    4DOPE  C210  443   3.988   2.976   5.846  0.1555 -0.1470  0.1663
    4DOPE  H10R  444   3.999   3.036   5.755  0.9940  0.1507  0.4586
    4DOPE  C211  445   4.086   3.021   5.960  0.5848 -0.3877  0.6689
    4DOPE  H11R  446   4.190   2.997   5.929 -0.7477 -0.9308 -4.3946
    4DOPE  H11S  447   4.065   2.974   6.058  1.5446  0.2391  1.1803
    4DOPE  C212  448   4.096   3.170   5.981 -0.6775 -0.1629  0.3003
    4DOPE  H12R  449   4.102   3.191   6.090 -2.6284 -0.1846  0.4555
    4DOPE  H12S  450   3.999   3.216   5.950 -0.0546 -0.9069 -3.0485
    4DOPE  C213  451   4.218   3.233   5.912 -0.1631  0.3161  0.4390
    4DOPE  H13R  452   4.186   3.212   5.807 -1.6076  0.5534  0.8039
    4DOPE  H13S  453   4.307   3.178   5.948  0.0376  0.8451  0.7574
    4DOPE  C214  454   4.239   3.385   5.920  0.2691  0.3093 -0.6208
    4DOPE  H14R  455   4.335   3.401   5.867  1.4511 -1.7179  0.7923
    4DOPE  H14S  456   4.244   3.418   6.026  0.6125 -0.9065 -0.2425
    4DOPE  C215  457   4.124   3.459   5.853 -0.8136 -0.4629  0.6230
    4DOPE  H15R  458   4.027   3.458   5.907 -1.0761 -0.1241  0.1790
    4DOPE  H15S  459   4.105   3.416   5.752 -0.8665  0.8028  0.0595
    4DOPE  C216  460   4.172   3.602   5.804  0.7444  0.7039 -0.5690
    4DOPE  H16R  461   4.264   3.588   5.744 -0.7061 -0.1077 -2.6998
    4DOPE  H16S  462   4.203   3.664   5.891  0.5632 -0.1497  0.1140
    4DOPE  C217  463   4.082   3.668   5.704  0.2325 -0.5378 -0.0780
    4DOPE  H17R  464   3.987   3.673   5.762 -0.4117  0.4533 -1.1840
    4DOPE  H17S  465   4.073   3.622   5.604  0.5402 -1.0938  0.1446
    4DOPE  C218  466   4.119   3.812   5.670  0.2946  0.2347  0.1005
    4DOPE  H18R  467   4.042   3.859   5.605  2.8477  0.5097 -2.9146
    4DOPE  H18S  468   4.220   3.814   5.626 -0.5021  0.1764 -1.8051
    4DOPE  H18T  469   4.121   3.880   5.758 -0.0355 -0.7225  0.8799
    4DOPE   C33  470   3.946   2.569   6.415 -0.0157  0.0939 -0.6263
    4DOPE   H3X  471   3.891   2.472   6.412 -0.7782  0.4850  0.0827
    4DOPE   H3Y  472   4.032   2.559   6.484 -1.3656  1.4328  1.3671
    4DOPE   C34  473   3.991   2.610   6.275 -0.1623 -0.4542  0.1037
    4DOPE   H4X  474   3.910   2.656   6.215  1.1079  0.3397 -1.0408
    4DOPE   H4Y  475   4.066   2.690   6.283  2.5495 -2.6242 -1.7575
    4DOPE   C35  476   4.043   2.484   6.196 -0.1407 -0.2295 -0.6455
    4DOPE   H5X  477   3.955   2.417   6.187 -1.4403  1.3941 -0.3736
    4DOPE   H5Y  478   4.132   2.440   6.246 -0.4348 -0.4725 -0.3327
    4DOPE   C36  479   4.085   2.527   6.050 -0.1693 -0.3944 -0.5707
    4DOPE   H6X  480   4.165   2.604   6.057 -1.3079  0.7244  0.7505
    4DOPE   H6Y  481   4.010   2.580   5.987 -0.9618  0.3915  0.9828
    4DOPE   C37  482   4.145   2.409   5.975 -0.1039 -0.4221 -1.0391
    4DOPE   H7X  483   4.221   2.358   6.040  0.0241  0.0567 -0.8068
    4DOPE   H7Y  484   4.062   2.336   5.964 -1.5742  0.9831  0.2266
    4DOPE   C38  485   4.234   2.436   5.853 -0.4666 -0.3168 -0.6850
    4DOPE   H8X  486   4.292   2.344   5.833 -0.1109 -0.5180  1.1023
    4DOPE   H8Y  487   4.309   2.514   5.879 -0.6388 -0.5060  0.4186
    4DOPE   C39  488   4.161   2.491   5.730 -0.3824  0.1422  0.1238
    4DOPE   H9X  489   4.080   2.426   5.693 -0.6229  0.9642 -0.8077
    4DOPE  C310  490   4.172   2.616   5.691 -0.3442 -0.1728  0.2764
    4DOPE  H10X  491   4.128   2.643   5.594  1.0296 -1.7023 -0.8318
    4DOPE  C311  492   4.254   2.728   5.754 -0.1698  0.4798 -0.6097
    4DOPE  H11X  493   4.176   2.807   5.762 -0.8170 -0.2923  1.1172
    4DOPE  H11Y  494   4.299   2.709   5.854 -2.1450  1.1182  0.4615
    4DOPE  C312  495   4.367   2.774   5.661 -0.4206  0.0953  0.4748
    4DOPE  H12X  496   4.337   2.819   5.564  1.5300  1.3952  0.4204
    4DOPE  H12Y  497   4.435   2.693   5.625 -2.5178 -0.9524 -1.3718
    4DOPE  C313  498   4.454   2.881   5.731 -0.0095  0.3925  0.0357
    4DOPE  H13X  499   4.374   2.953   5.755 -0.5309 -0.1526 -0.0467
    4DOPE  H13Y  500   4.490   2.845   5.830 -2.1593 -0.8989  0.4003
    4DOPE  C314  501   4.561   2.943   5.643 -0.2644 -0.9032  0.5846
    4DOPE  H14X  502   4.507   2.976   5.552 -2.1818  0.8285  2.2545
    4DOPE  H14Y  503   4.637   2.865   5.621  0.8046  0.4507 -0.7001
    4DOPE  C315  504   4.615   3.059   5.723  0.0794 -0.7183 -0.9213
    4DOPE  H15X  505   4.631   3.010   5.822 -1.3470 -0.8781 -0.7488
    4DOPE  H15Y  506   4.543   3.143   5.732  4.0407  2.9416 -0.3940
    4DOPE  C316  507   4.752   3.118   5.671  0.1777 -0.3373 -0.3685
    4DOPE  H16X  508   4.751   3.154   5.566 -1.1310 -0.1577 -0.3058
    4DOPE  H16Y  509   4.814   3.026   5.671  0.8457  0.0338  2.1837
    4DOPE  C317  510   4.811   3.232   5.755 -0.0071  0.5928  0.4047
    4DOPE  H17X  511   4.810   3.204   5.862 -0.4972 -1.1684 -0.0360
    4DOPE  H17Y  512   4.912   3.252   5.714 -1.0058  0.6164 -2.2419
    4DOPE  C318  513   4.729   3.360   5.728  0.3055 -0.3808 -1.0186
    4DOPE  H18X  514   4.725   3.383   5.619 -0.1399  0.8644 -0.7561
    4DOPE  H18Y  515   4.624   3.336   5.757 -0.5014 -0.3496 -3.6430
    4DOPE  H18Z  516   4.770   3.448   5.782  1.1570 -0.8288 -0.9143
    5DOPE     N  517   0.349   2.594   6.631  0.3266  0.0213  0.0181
    5DOPE   HN1  518   0.444   2.574   6.595  0.3512  2.1288 -1.2710
    5DOPE   HN2  519   0.317   2.519   6.695  0.5290  0.6999  0.9381
    5DOPE   HN3  520   0.281   2.594   6.552 -0.1928 -0.1153  0.4561
    5DOPE   C12  521   0.342   2.721   6.704 -0.3555  0.0379  0.3917
    5DOPE  H12A  522   0.405   2.711   6.794 -0.0974 -1.6226  0.0487
    5DOPE  H12B  523   0.238   2.723   6.742  0.3611  1.1833  2.4270
    5DOPE   C11  524   0.372   2.841   6.615  0.0638  0.2673 -0.6054
    5DOPE  H11A  525   0.351   2.935   6.670 -0.2062 -0.2624  0.2143
    5DOPE  H11B  526   0.302   2.843   6.528  0.3145  0.9979 -0.7937
    5DOPE     P  527   0.624   2.900   6.655 -0.0443 -0.3292 -0.0666
    5DOPE   O13  528   0.725   2.799   6.693  0.3799 -0.1408  0.1840
    5DOPE   O14  529   0.574   2.972   6.772 -0.2550  0.8177 -0.0925
    5DOPE   O11  530   0.692   3.012   6.566 -0.0085 -0.2331 -0.6128
    5DOPE   O12  531   0.507   2.839   6.570  0.3945 -0.2788  0.2309
    5DOPE    C1  532   0.605   3.107   6.498 -0.3248  0.1128  0.3035
    5DOPE    HA  533   0.636   3.211   6.522 -0.9638  1.0691 -2.5652
    5DOPE    HB  534   0.496   3.096   6.519 -0.5017  1.2613  0.0673
    5DOPE    C2  535   0.623   3.087   6.344 -0.1642  0.5552  0.4329
    5DOPE    HS  536   0.540   3.134   6.288  1.8546  2.0044 -1.5223
    5DOPE   O21  537   0.624   2.948   6.312 -0.2127  0.1405  0.2093
    5DOPE   C21  538   0.511   2.882   6.280 -0.2148  0.5065  0.5862
    5DOPE   O22  539   0.401   2.930   6.252 -0.6439  0.1309 -0.1346
    5DOPE   C22  540   0.547   2.737   6.269 -0.0512 -0.2014 -0.6457
    5DOPE   H2R  541   0.514   2.693   6.365  0.2525  2.9967  1.0431
    5DOPE   H2S  542   0.655   2.716   6.278  0.2243  1.0476 -0.8977
    5DOPE    C3  543   0.754   3.155   6.288 -0.2116 -0.5057 -0.0812
    5DOPE    HX  544   0.850   3.117   6.330 -0.0091 -0.8270 -0.8172
    5DOPE    HY  545   0.761   3.264   6.308  0.5738 -0.7387  1.0793
    5DOPE   O31  546   0.755   3.124   6.152 -0.1583  0.9303  0.1127
    5DOPE   C31  547   0.838   3.026   6.102 -0.0320  0.7081 -0.0642
    5DOPE   O32  548   0.899   2.949   6.169 -0.6152  0.1927 -0.4596
    5DOPE   C32  549   0.840   3.019   5.943  0.0125  0.2110 -0.1666
    5DOPE   H2X  550   0.765   3.093   5.907 -1.0837  0.0126  1.5636
    5DOPE   H2Y  551   0.938   3.064   5.918  0.1897  2.3413  3.5444
    5DOPE   C23  552   0.482   2.654   6.153 -0.3631  0.4561 -0.2772
    5DOPE   H3R  553   0.541   2.662   6.060  0.7390  1.1844  0.4559
    5DOPE   H3S  554   0.386   2.705   6.128  0.5786  2.3149 -0.2435
    5DOPE   C24  555   0.469   2.511   6.193 -0.4019  0.7618 -0.3859
    5DOPE   H4R  556   0.373   2.508   6.249 -0.2651 -0.9086 -0.1792
    5DOPE   H4S  557   0.553   2.480   6.259  0.9197 -0.5171 -2.5706
    5DOPE   C25  558   0.473   2.406   6.082 -0.4769 -0.2291  0.2209
    5DOPE   H5R  559   0.411   2.448   6.000 -0.3452 -1.3125 -0.4493
    5DOPE   H5S  560   0.423   2.313   6.116 -1.1435  0.6268  1.7010
    5DOPE   C26  561   0.609   2.366   6.026 -0.3229 -0.6625  0.0679
    5DOPE   H6R  562   0.663   2.317   6.111  0.2281 -1.7956 -0.9002
    5DOPE   H6S  563   0.671   2.454   6.002 -0.7398 -0.9783 -2.4522
    5DOPE   C27  564   0.612   2.275   5.897  0.0789  0.4592 -0.0072
    5DOPE   H7R  565   0.571   2.343   5.820  1.7155  0.3003 -1.0775
    5DOPE   H7S  566   0.540   2.190   5.899  0.2976  0.2799  0.6885
    5DOPE   C28  567   0.754   2.232   5.865 -0.5378 -0.3317 -0.1188
    5DOPE   H8R  568   0.746   2.161   5.779  1.6256  1.3143 -1.7930
    5DOPE   H8S  569   0.788   2.186   5.960  0.1124 -1.0235 -0.6691
    5DOPE   C29  570   0.851   2.337   5.827  0.1854  0.0529 -0.0927
    5DOPE   H9R  571   0.868   2.409   5.909  0.9441 -0.3340  0.0956
    5DOPE  C210  572   0.911   2.357   5.711 -0.8383 -0.3421  0.3088
    5DOPE  H10R  573   0.983   2.440   5.709 -0.5133 -0.6311 -1.6009
    5DOPE  C211  574   0.892   2.271   5.590 -1.1397 -0.0324 -0.3742
    5DOPE  H11R  575   0.831   2.178   5.598 -0.8283 -0.0940  1.8485
    5DOPE  H11S  576   0.989   2.239   5.548 -0.1984 -0.6366  2.0817
    5DOPE  C212  577   0.834   2.347   5.471  0.2086  0.2506  0.0834
    5DOPE  H12R  578   0.733   2.377   5.505  1.5467  4.4745  0.8899
    5DOPE  H12S  579   0.807   2.278   5.388 -1.8494  3.9888 -2.6655
    5DOPE  C213  580   0.924   2.463   5.422  0.0512 -0.5709 -0.1410
    5DOPE  H13R  581   1.021   2.417   5.393 -0.4926 -3.0107  1.5849
    5DOPE  H13S  582   0.944   2.535   5.504  0.0837 -0.3585 -0.3309
    5DOPE  C214  583   0.861   2.536   5.300 -0.1422  0.0351  0.7737
    5DOPE  H14R  584   0.761   2.578   5.325 -1.5110 -2.2987 -0.4831
    5DOPE  H14S  585   0.851   2.471   5.211  0.7459  2.4030 -1.1680
    5DOPE  C215  586   0.943   2.665   5.268  0.5045  0.3199 -0.3687
    5DOPE  H15R  587   1.049   2.640   5.249  0.5845  0.4398 -0.0742
    5DOPE  H15S  588   0.937   2.725   5.361 -0.4528 -2.1164  1.2522
    5DOPE  C216  589   0.888   2.756   5.152 -0.3158 -0.2335 -0.6240
    5DOPE  H16R  590   0.909   2.708   5.054 -0.4011 -0.4026 -0.5610
    5DOPE  H16S  591   0.933   2.857   5.152 -0.3051 -0.1282  2.6382
    5DOPE  C217  592   0.742   2.788   5.155 -0.4138 -0.2300 -0.1135
    5DOPE  H17R  593   0.726   2.864   5.234 -1.1502 -0.6553  0.1618
    5DOPE  H17S  594   0.680   2.701   5.187 -1.0449 -0.8208 -2.6933
    5DOPE  C218  595   0.699   2.838   5.018  0.1151  0.3887  0.1064
    5DOPE  H18R  596   0.729   2.939   4.984 -0.1097  0.6726  0.7312
    5DOPE  H18S  597   0.589   2.837   5.027  0.1264  0.8428  0.3341
    5DOPE  H18T  598   0.741   2.764   4.946  1.2544  0.7007  0.4276
    5DOPE   C33  599   0.798   2.887   5.878  0.6091  0.9973  0.4857
    5DOPE   H3X  600   0.714   2.840   5.935  1.0209 -0.1858  0.1583
    5DOPE   H3Y  601   0.880   2.812   5.878 -2.1564 -2.4767 -3.3638
    5DOPE   C34  602   0.751   2.906   5.730 -0.0920 -0.6138 -0.7383
    5DOPE   H4X  603   0.666   2.976   5.717 -2.9532 -3.0052  2.8203
    5DOPE   H4Y  604   0.840   2.956   5.687  2.2645 -1.6422  2.5308
    5DOPE   C35  605   0.715   2.788   5.645 -0.1350  0.4134 -0.0008
    5DOPE   H5X  606   0.787   2.704   5.655 -0.1306  0.3187 -0.7736
    5DOPE   H5Y  607   0.719   2.797   5.534  1.5054 -0.7178 -0.0705
    5DOPE   C36  608   0.572   2.742   5.671 -0.3163 -0.0987  0.3587
    5DOPE   H6X  609   0.509   2.828   5.639 -0.2503  0.0086  0.5142
    5DOPE   H6Y  610   0.558   2.728   5.780  1.2453  1.3274  0.7761
    5DOPE   C37  611   0.529   2.612   5.607 -0.2681  0.0661  0.5376
    5DOPE   H7X  612   0.516   2.611   5.497 -1.2825  1.3909  0.6263
    5DOPE   H7Y  613   0.608   2.537   5.633  0.6453  0.3200 -1.3028
    5DOPE   C38  614   0.406   2.547   5.669  0.3348  0.7673 -0.5663
    5DOPE   H8X  615   0.428   2.536   5.777 -1.6967  0.0308 -0.1907
    5DOPE   H8Y  616   0.398   2.447   5.622  0.8474  1.2041 -1.6075
    5DOPE   C39  617   0.283   2.633   5.654 -0.6224 -0.7717  0.7524
    5DOPE   H9X  618   0.263   2.704   5.736  0.2220  1.4372 -0.8697
    5DOPE  C310  619   0.202   2.644   5.544 -0.0632 -0.1614  0.7136
    5DOPE  H10X  620   0.130   2.727   5.535  1.1345  0.8210 -0.3153
    5DOPE  C311  621   0.218   2.566   5.419 -0.2058 -0.1285  0.4810
    5DOPE  H11X  622   0.305   2.497   5.431  0.8488  0.6140 -2.1488
    5DOPE  H11Y  623   0.119   2.517   5.406 -0.7527  1.5976 -3.3649
    5DOPE  C312  624   0.253   2.650   5.289 -0.9551 -0.9023 -0.7143
    5DOPE  H12X  625   0.323   2.729   5.324 -0.7530 -1.2574 -0.2980
    5DOPE  H12Y  626   0.162   2.704   5.257 -2.0171 -0.4154  2.7502
    5DOPE  C313  627   0.314   2.564   5.170  0.0741 -0.1885 -0.1493
    5DOPE  H13X  628   0.422   2.551   5.194  0.0887 -0.7266 -0.5133
    5DOPE  H13Y  629   0.263   2.466   5.170  0.9697 -0.6640 -0.9417
    5DOPE  C314  630   0.309   2.642   5.032 -0.3548  0.5337 -0.3834
    5DOPE  H14X  631   0.375   2.583   4.964 -0.2871 -0.7390  0.7303
    5DOPE  H14Y  632   0.358   2.740   5.046  1.7234 -0.1961 -1.9752
    5DOPE  C315  633   0.167   2.650   4.975 -0.1766 -0.1450 -0.4180
    5DOPE  H15X  634   0.093   2.701   5.041  0.5448  0.8990 -0.3925
    5DOPE  H15Y  635   0.120   2.553   4.950 -1.1653  0.2015  0.0264
    5DOPE  C316  636   0.162   2.736   4.850  0.4415 -0.6503  0.5331
    5DOPE  H16X  637   0.263   2.774   4.828  0.2911 -0.7159 -0.3020
    5DOPE  H16Y  638   0.097   2.825   4.867 -0.1309 -1.3549  2.2807
    5DOPE  C317  639   0.105   2.659   4.726  0.4169 -0.1321 -0.3841
    5DOPE  H17X  640   0.143   2.555   4.717 -0.2051 -0.2964 -1.2453
    5DOPE  H17Y  641  -0.005   2.652   4.738  0.6954 -3.9467  1.1063
    5DOPE  C318  642   0.130   2.724   4.591 -0.6331 -0.5432 -0.2640
    5DOPE  H18X  643   0.100   2.667   4.501 -1.0237  0.7372 -0.9640
    5DOPE  H18Y  644   0.079   2.823   4.587 -0.1776 -0.3276 -0.8759
    5DOPE  H18Z  645   0.239   2.740   4.580 -0.8051  1.7110  0.5970
    6DOPE     N  646   1.299   3.977   6.697  0.0731  0.0557 -0.1591
    6DOPE   HN1  647   1.395   4.014   6.677 -0.3468  1.1812 -0.1694
    6DOPE   HN2  648   1.287   3.977   6.801 -1.8662  0.8312 -0.3485
    6DOPE   HN3  649   1.287   3.883   6.654  0.3885 -0.4592  0.8304
    6DOPE   C12  650   1.205   4.076   6.638 -0.0077 -0.2908 -0.2234
    6DOPE  H12A  651   1.253   4.107   6.543 -1.1627  0.7679 -0.4831
    6DOPE  H12B  652   1.203   4.168   6.700 -1.9175 -0.3531 -0.1439
    6DOPE   C11  653   1.064   4.019   6.613 -0.7225 -0.0272 -0.1403
    6DOPE  H11A  654   1.063   3.949   6.527 -0.6085 -0.3929  0.1536
    6DOPE  H11B  655   0.994   4.099   6.580 -1.3490 -0.7223 -0.5109
    6DOPE     P  656   0.855   3.923   6.731  0.0769 -0.0392  0.3053
    6DOPE   O13  657   0.778   4.043   6.684 -0.0905 -0.3749  0.1560
    6DOPE   O14  658   0.820   3.856   6.855  0.4724 -0.3195  0.3552
    6DOPE   O11  659   0.860   3.813   6.615 -0.2624 -0.2416 -0.2176
    6DOPE   O12  660   1.012   3.961   6.734  0.0810 -0.2640  0.4164
    6DOPE    C1  661   0.947   3.704   6.610 -0.2180 -0.1479 -0.3071
    6DOPE    HA  662   0.911   3.621   6.675 -2.1194  1.6748  1.0939
    6DOPE    HB  663   1.049   3.732   6.642  0.8034 -1.3150 -2.2901
    6DOPE    C2  664   0.955   3.656   6.459  0.5554  0.5908 -0.2031
    6DOPE    HS  665   1.003   3.738   6.401  2.4543  0.8995  1.6943
    6DOPE   O21  666   0.821   3.627   6.423 -0.8319 -0.0661 -0.1028
    6DOPE   C21  667   0.770   3.674   6.310 -0.1534 -0.4779  0.1663
    6DOPE   O22  668   0.828   3.750   6.235 -0.5834  0.1057 -0.0656
    6DOPE   C22  669   0.632   3.614   6.291  0.2337 -0.6539  0.3547
    6DOPE   H2R  670   0.562   3.671   6.355 -1.0534 -3.9603  2.1413
    6DOPE   H2S  671   0.626   3.512   6.334 -3.2646 -1.2565 -1.1924
    6DOPE    C3  672   1.049   3.529   6.437 -0.0646 -0.7810 -0.0338
    6DOPE    HX  673   1.003   3.441   6.488 -1.0620 -2.2135 -3.1163
    6DOPE    HY  674   1.140   3.549   6.496  0.0435  0.3934 -0.5672
    6DOPE   O31  675   1.072   3.487   6.297  0.2807 -0.3716  0.3725
    6DOPE   C31  676   1.165   3.570   6.242 -0.1583  1.9133 -0.4450
    6DOPE   O32  677   1.224   3.655   6.301 -0.8304  0.5258 -0.1694
    6DOPE   C32  678   1.183   3.530   6.098 -0.1932 -0.2930 -0.3401
    6DOPE   H2X  679   1.153   3.625   6.049 -2.5988 -0.3638  0.8586
    6DOPE   H2Y  680   1.293   3.526   6.085  0.0064  3.3064 -0.8371
    6DOPE   C23  681   0.598   3.608   6.139  0.2652  0.1743 -0.0932
    6DOPE   H3R  682   0.585   3.713   6.104  0.4566  0.7259  1.4012
    6DOPE   H3S  683   0.492   3.574   6.135  0.5479 -0.7251 -0.0732
    6DOPE   C24  684   0.690   3.519   6.052 -0.0192  0.1474 -0.5354
    6DOPE   H4R  685   0.693   3.421   6.106 -2.2084  0.1955 -0.2044
    6DOPE   H4S  686   0.788   3.568   6.036 -0.7336  1.1963 -1.9356
    6DOPE   C25  687   0.643   3.504   5.902  0.2598 -0.4651 -0.2553
    6DOPE   H5R  688   0.620   3.607   5.867 -2.3530 -0.9097 -0.0424
    6DOPE   H5S  689   0.546   3.451   5.914  1.1556 -2.2338 -0.3618
    6DOPE   C26  690   0.731   3.425   5.812  0.2189 -0.2534  0.5771
    6DOPE   H6R  691   0.750   3.320   5.843  2.3486 -0.0385  0.1705
    6DOPE   H6S  692   0.833   3.469   5.813  0.1431  0.0294 -1.3281
    6DOPE   C27  693   0.677   3.420   5.673 -0.3327 -0.0511  0.3206
    6DOPE   H7R  694   0.675   3.520   5.625 -1.2535 -1.4201 -2.7889
    6DOPE   H7S  695   0.572   3.384   5.681 -0.6600  1.2017  2.1616
    6DOPE   C28  696   0.742   3.325   5.575  0.4828 -0.1121  0.0637
    6DOPE   H8R  697   0.695   3.328   5.474  0.3256  1.6616  0.1526
    6DOPE   H8S  698   0.733   3.218   5.603  1.2633 -0.4690 -0.9783
    6DOPE   C29  699   0.887   3.359   5.557  0.1872  0.1300 -0.6600
    6DOPE   H9R  700   0.911   3.454   5.606 -0.8633 -1.3207  3.0188
    6DOPE  C210  701   0.975   3.287   5.486  0.5734 -0.0923  0.2911
    6DOPE  H10R  702   1.082   3.315   5.485  0.8405 -0.9955 -1.9358
    6DOPE  C211  703   0.936   3.159   5.422 -0.1323 -0.1343  0.3388
    6DOPE  H11R  704   0.837   3.159   5.371  0.4185  3.4871 -1.0159
    6DOPE  H11S  705   0.946   3.080   5.499  2.3624 -0.2351 -0.0061
    6DOPE  C212  706   1.036   3.121   5.304 -0.1204  0.4326 -0.2338
    6DOPE  H12R  707   1.017   3.018   5.267 -2.0261  0.5810  0.2086
    6DOPE  H12S  708   1.137   3.104   5.347 -0.0182 -0.6158 -0.8456
    6DOPE  C213  709   1.027   3.213   5.175 -0.2690  0.1966 -0.0746
    6DOPE  H13R  710   1.080   3.156   5.096 -0.2724  1.5941 -1.1142
    6DOPE  H13S  711   1.074   3.313   5.189 -1.3939  0.9774 -1.6251
    6DOPE  C214  712   0.883   3.242   5.124 -0.3133  0.3592 -0.1723
    6DOPE  H14R  713   0.834   3.309   5.198  1.2837 -1.1840  2.4369
    6DOPE  H14S  714   0.822   3.150   5.108 -0.5339  0.4472  0.1500
    6DOPE  C215  715   0.886   3.309   4.986 -0.0557 -0.0097  0.2894
    6DOPE  H15R  716   0.907   3.230   4.911 -0.4949 -2.4987  2.6370
    6DOPE  H15S  717   0.947   3.402   4.984 -0.1987  0.0767 -0.4157
    6DOPE  C216  718   0.744   3.373   4.955 -0.0948  0.5511  0.0104
    6DOPE  H16R  719   0.734   3.467   5.013 -1.5899 -0.4032  1.4082
    6DOPE  H16S  720   0.664   3.310   5.000  0.5797 -0.7378 -0.5321
    6DOPE  C217  721   0.715   3.385   4.803 -0.3467 -0.5710 -0.5870
    6DOPE  H17R  722   0.740   3.290   4.752  1.7407 -0.9561  1.0141
    6DOPE  H17S  723   0.787   3.458   4.760 -0.9833  0.7564  0.5252
    6DOPE  C218  724   0.580   3.433   4.770 -0.1455 -0.5336 -0.1429
    6DOPE  H18R  725   0.584   3.481   4.670 -0.7833 -3.0753 -1.4530
    6DOPE  H18S  726   0.540   3.515   4.834  0.8394  1.4039 -1.8803
    6DOPE  H18T  727   0.509   3.348   4.757  0.3215 -0.8964 -0.3426
    6DOPE   C33  728   1.096   3.410   6.048 -0.0003 -0.1600  0.2714
    6DOPE   H3X  729   0.993   3.448   6.036  0.1651  0.1146 -0.3103
    6DOPE   H3Y  730   1.097   3.331   6.126  0.1198 -0.6224 -0.1944
    6DOPE   C34  731   1.135   3.348   5.916 -0.6422 -0.5831  0.3115
    6DOPE   H4X  732   1.037   3.304   5.888 -0.4023 -0.9886  0.0983
    6DOPE   H4Y  733   1.164   3.428   5.845 -2.0063  0.3636  0.7913
    6DOPE   C35  734   1.257   3.246   5.922  0.3501 -0.4134 -0.0663
    6DOPE   H5X  735   1.232   3.172   6.000 -2.3513  0.2753 -0.1892
    6DOPE   H5Y  736   1.351   3.295   5.956  1.1623 -2.6903  1.1604
    6DOPE   C36  737   1.289   3.171   5.791 -0.0750  0.4018 -0.4787
    6DOPE   H6X  738   1.201   3.106   5.774  0.8374 -0.6800 -1.2472
    6DOPE   H6Y  739   1.373   3.100   5.808  0.0436  0.3259 -1.3142
    6DOPE   C37  740   1.313   3.259   5.670  0.2374 -0.5220  0.7044
    6DOPE   H7X  741   1.332   3.194   5.582  1.4752  0.5205  0.1611
    6DOPE   H7Y  742   1.229   3.329   5.650  0.8603  0.0396  0.0027
    6DOPE   C38  743   1.433   3.351   5.690  0.0433 -0.4401 -0.6644
    6DOPE   H8X  744   1.532   3.302   5.700 -0.0030 -0.8238 -1.9063
    6DOPE   H8Y  745   1.419   3.400   5.789  0.8506 -2.1656  0.3596
    6DOPE   C39  746   1.435   3.446   5.578 -0.6762 -0.3342 -0.2760
    6DOPE   H9X  747   1.502   3.421   5.494  1.0614 -1.7400  1.4310
    6DOPE  C310  748   1.382   3.569   5.574  0.1584  0.5817 -0.0225
    6DOPE  H10X  749   1.381   3.615   5.474  1.5593 -2.0710 -1.3556
    6DOPE  C311  750   1.304   3.649   5.675  0.2766  0.4589 -0.8558
    6DOPE  H11X  751   1.337   3.630   5.779  2.9298  1.4966 -1.4312
    6DOPE  H11Y  752   1.329   3.756   5.657 -1.5184  1.2244  0.8493
    6DOPE  C312  753   1.151   3.629   5.657 -0.6126 -0.0324 -0.2326
    6DOPE  H12X  754   1.119   3.526   5.684 -2.6021  0.8199  0.8671
    6DOPE  H12Y  755   1.113   3.634   5.552 -0.1711  1.4586 -0.3458
    6DOPE  C313  756   1.066   3.728   5.743  0.5984 -0.5105  0.3150
    6DOPE  H13X  757   0.959   3.700   5.757  1.2042 -2.0763  2.3781
    6DOPE  H13Y  758   1.100   3.723   5.849 -0.1028 -1.5867  0.5101
    6DOPE  C314  759   1.078   3.874   5.699  0.5432 -0.0833  0.3688
    6DOPE  H14X  760   1.179   3.917   5.683  0.3273  0.7442  1.1210
    6DOPE  H14Y  761   1.033   3.938   5.778  0.7324  0.8545 -0.2665
    6DOPE  C315  762   0.992   3.907   5.574  0.1224  0.7712  0.1250
    6DOPE  H15X  763   0.885   3.878   5.573  0.1824  0.5623 -0.1317
    6DOPE  H15Y  764   1.037   3.860   5.484  2.0176  0.5708  1.1135
    6DOPE  C316  765   0.982   4.062   5.565 -0.1673 -0.8227  0.1815
    6DOPE  H16X  766   1.082   4.107   5.582 -1.2019  1.8410 -0.4271
    6DOPE  H16Y  767   0.917   4.106   5.644  2.2530 -1.0428  2.4308
    6DOPE  C317  768   0.932   4.117   5.425 -0.1490 -0.4617  0.1739
    6DOPE  H17X  769   1.011   4.107   5.347 -0.4907 -0.1283 -0.2253
    6DOPE  H17Y  770   0.839   4.063   5.398 -2.7790  3.1982  1.1699
    6DOPE  C318  771   0.904   4.268   5.436  0.1752  1.1399  0.1482
    6DOPE  H18X  772   0.984   4.318   5.496  0.5139  1.3278 -0.4581
    6DOPE  H18Y  773   0.894   4.311   5.334 -0.0095  0.2864 -0.1943
    6DOPE  H18Z  774   0.807   4.289   5.485 -0.9240  0.6814 -1.7675
    7DOPE     N  775   2.992   6.355   7.055  0.2765  0.1790 -0.5171
    7DOPE   HN1  776   2.988   6.253   7.036  1.1558 -0.2803  1.4276
    7DOPE   HN2  777   2.996   6.367   7.158  1.3995 -2.0514 -0.2354
    7DOPE   HN3  778   2.912   6.408   7.017  0.1604  0.9902  0.7880
    7DOPE   C12  779   3.124   6.404   6.994 -0.7236 -0.6663 -0.8328
    7DOPE  H12A  780   3.134   6.366   6.890 -2.1278  0.1706 -1.2987
    7DOPE  H12B  781   3.205   6.357   7.054 -0.2222  0.7471 -0.3682
    7DOPE   C11  782   3.157   6.556   7.022 -0.3564 -0.1721 -0.1966
    7DOPE  H11A  783   3.262   6.589   7.006 -0.1182  0.0005  1.5193
    7DOPE  H11B  784   3.151   6.569   7.132 -0.5948 -0.7235 -0.1411
    7DOPE     P  785   3.109   6.749   6.848 -0.4102 -0.2542 -0.0727
    7DOPE   O13  786   3.178   6.858   6.921 -0.1882  0.4646 -0.7770
    7DOPE   O14  787   2.988   6.785   6.770 -0.5965  0.3738  0.2447
    7DOPE   O11  788   3.200   6.659   6.759 -0.6949 -0.4501 -0.1356
    7DOPE   O12  789   3.069   6.645   6.964 -0.0406 -0.0050 -0.0811
    7DOPE    C1  790   3.335   6.690   6.729  0.0273 -0.2999 -0.3979
    7DOPE    HA  791   3.397   6.670   6.819  0.1177  1.6568  0.0260
    7DOPE    HB  792   3.348   6.799   6.711 -3.2357  0.3207  0.3108
    7DOPE    C2  793   3.392   6.612   6.603  0.4443  0.8782 -0.1294
    7DOPE    HS  794   3.503   6.619   6.602  0.3710  2.5425 -0.4878
    7DOPE   O21  795   3.322   6.669   6.487 -0.4901  0.1931  0.1892
    7DOPE   C21  796   3.401   6.722   6.399 -0.4236 -0.0216  0.0858
    7DOPE   O22  797   3.516   6.752   6.421  0.2155  0.0000 -0.8261
    7DOPE   C22  798   3.327   6.754   6.274  0.4295 -0.1766  0.5188
    7DOPE   H2R  799   3.216   6.748   6.285  0.4702 -0.3915  0.8151
    7DOPE   H2S  800   3.360   6.678   6.200 -0.1949 -1.4384  1.4961
    7DOPE    C3  801   3.368   6.464   6.608  0.1611  0.3897  0.3471
    7DOPE    HX  802   3.259   6.446   6.609  0.0949  0.7896  0.4069
    7DOPE    HY  803   3.405   6.427   6.707 -0.9704  0.1536  0.6929
    7DOPE   O31  804   3.443   6.404   6.503  0.0924 -0.2531 -0.6910
    7DOPE   C31  805   3.409   6.288   6.458 -0.7121  0.2282  0.1564
    7DOPE   O32  806   3.308   6.220   6.474  0.0013 -0.3521 -0.0032
    7DOPE   C32  807   3.525   6.242   6.357  0.1898 -0.3260  0.0818
    7DOPE   H2X  808   3.577   6.334   6.324 -2.5921  0.4719 -2.5602
    7DOPE   H2Y  809   3.592   6.175   6.415 -0.9084 -2.8182 -1.3569
    7DOPE   C23  810   3.359   6.897   6.221  0.5685  0.2144  0.4115
    7DOPE   H3R  811   3.469   6.901   6.239  0.7387 -0.1829 -0.4890
    7DOPE   H3S  812   3.312   6.978   6.280  0.2207  0.1517  0.2204
    7DOPE   C24  813   3.326   6.913   6.070 -0.2547  0.5050  0.1637
    7DOPE   H4R  814   3.380   6.840   6.007 -1.8435 -0.6991  0.1238
    7DOPE   H4S  815   3.366   7.009   6.033  0.5752 -0.1673 -0.7123
    7DOPE   C25  816   3.180   6.913   6.034  0.5255 -0.3103  0.5102
    7DOPE   H5R  817   3.126   6.993   6.088 -0.9459 -0.3237 -0.8739
    7DOPE   H5S  818   3.129   6.816   6.049 -0.5784  0.0348 -0.8321
    7DOPE   C26  819   3.166   6.940   5.888 -0.1301 -0.6684  0.5294
    7DOPE   H6R  820   3.213   6.859   5.828  0.6921 -0.0064  0.2499
    7DOPE   H6S  821   3.221   7.032   5.858 -0.1905 -0.2752  1.5684
    7DOPE   C27  822   3.024   6.953   5.835  0.1066 -0.6627  0.6307
    7DOPE   H7R  823   2.975   7.018   5.910 -1.0739 -0.9449  0.1281
    7DOPE   H7S  824   2.970   6.856   5.844  1.4349 -1.7892 -2.2462
    7DOPE   C28  825   3.001   7.031   5.703 -0.2800  0.3914 -0.2245
    7DOPE   H8R  826   3.075   7.113   5.695 -0.7574  0.6556 -3.2799
    7DOPE   H8S  827   2.897   7.068   5.704 -1.4645 -2.5820  2.1262
    7DOPE   C29  828   3.019   6.926   5.590 -0.3336 -0.7997  0.1422
    7DOPE   H9R  829   2.932   6.860   5.580 -0.3672 -0.6193 -0.8690
    7DOPE  C210  830   3.129   6.908   5.509 -0.2990  0.1822 -0.3987
    7DOPE  H10R  831   3.121   6.831   5.430 -0.0608 -0.7206  0.4415
    7DOPE  C211  832   3.259   6.993   5.509 -0.0494  0.0974 -0.5772
    7DOPE  H11R  833   3.252   7.083   5.572 -1.1734 -1.8311  2.2537
    7DOPE  H11S  834   3.296   7.018   5.407 -0.3452 -1.9644 -1.2566
    7DOPE  C212  835   3.377   6.912   5.559 -0.5240  0.5750 -0.3259
    7DOPE  H12R  836   3.391   6.830   5.485  1.1413 -0.1706  0.7347
    7DOPE  H12S  837   3.358   6.874   5.662 -0.4030  0.6408 -0.2802
    7DOPE  C213  838   3.506   6.987   5.575  0.0752  0.4962 -0.4248
    7DOPE  H13R  839   3.516   7.070   5.502  0.9914  1.9726  1.3005
    7DOPE  H13S  840   3.591   6.918   5.558  2.0510  2.6636  0.1580
    7DOPE  C214  841   3.520   7.057   5.709  0.0884  1.2839 -0.2707
    7DOPE  H14R  842   3.497   6.987   5.792 -1.4411  0.9257 -0.9549
    7DOPE  H14S  843   3.432   7.126   5.707 -2.3916 -1.6701 -0.1678
    7DOPE  C215  844   3.660   7.115   5.711 -0.7128  0.4888 -0.4772
    7DOPE  H15R  845   3.684   7.163   5.614  1.6950  1.2679  0.4272
    7DOPE  H15S  846   3.735   7.034   5.726 -1.0148  0.3679  0.4211
    7DOPE  C216  847   3.662   7.227   5.821 -1.4394  0.7531 -0.4733
    7DOPE  H16R  848   3.596   7.192   5.904  1.2238 -1.3377  0.9544
    7DOPE  H16S  849   3.606   7.314   5.782 -1.8233  1.1853  0.9747
    7DOPE  C217  850   3.800   7.268   5.876  0.1457 -0.2486 -0.3363
    7DOPE  H17R  851   3.869   7.286   5.791  0.4467 -1.1933 -0.3063
    7DOPE  H17S  852   3.850   7.193   5.940  1.2691  0.7191 -0.0468
    7DOPE  C218  853   3.801   7.395   5.959  0.6923 -0.2654 -0.1909
    7DOPE  H18R  854   3.905   7.422   5.984  0.4930  0.9982 -0.6826
    7DOPE  H18S  855   3.740   7.377   6.050  1.3837 -0.4237  0.2463
    7DOPE  H18T  856   3.746   7.473   5.903  2.0871  0.0730 -1.1223
    7DOPE   C33  857   3.477   6.154   6.236  0.0841 -0.0505 -0.6793
    7DOPE   H3X  858   3.392   6.094   6.276  0.4761  0.6512  1.3405
    7DOPE   H3Y  859   3.549   6.074   6.209 -1.3156 -1.2486 -0.9838
    7DOPE   C34  860   3.431   6.223   6.102 -0.1101  0.2174 -0.9255
    7DOPE   H4X  861   3.343   6.287   6.122  0.9644  1.5112 -0.1178
    7DOPE   H4Y  862   3.502   6.300   6.066  1.1938  0.5627  2.0582
    7DOPE   C35  863   3.383   6.127   5.998  0.6590  0.0973  0.2923
    7DOPE   H5X  864   3.312   6.053   6.040  2.2414 -1.1211  0.9176
    7DOPE   H5Y  865   3.475   6.070   5.973  0.0225 -0.6757 -0.3702
    7DOPE   C36  866   3.321   6.195   5.874  0.8462 -0.2741  1.0808
    7DOPE   H6X  867   3.387   6.276   5.834  0.2710  0.7369  2.1213
    7DOPE   H6Y  868   3.229   6.256   5.890  2.0205  1.6446  0.8989
    7DOPE   C37  869   3.294   6.084   5.763 -0.3587 -0.3942 -1.0712
    7DOPE   H7X  870   3.380   6.014   5.761 -0.4904 -0.7559  2.0642
    7DOPE   H7Y  871   3.201   6.030   5.793 -0.3311 -0.0104 -0.2912
    7DOPE   C38  872   3.250   6.134   5.619 -0.0713 -0.2110  0.0137
    7DOPE   H8X  873   3.335   6.192   5.579  0.3979 -0.3718  0.7654
    7DOPE   H8Y  874   3.163   6.204   5.626  0.0104 -0.1530  0.4994
    7DOPE   C39  875   3.214   6.016   5.535  0.0235  0.9069  0.5595
    7DOPE   H9X  876   3.122   5.961   5.559  0.1418  0.0313 -0.8968
    7DOPE  C310  877   3.286   5.959   5.432 -0.0475  0.2717 -0.1936
    7DOPE  H10X  878   3.255   5.877   5.366  1.9703 -1.5403  0.9875
    7DOPE  C311  879   3.416   6.010   5.386 -0.1014 -0.2041  0.3271
    7DOPE  H11X  880   3.432   5.993   5.278  0.0536  0.3265  0.2646
    7DOPE  H11Y  881   3.419   6.120   5.399 -0.3404  0.2842 -3.0193
    7DOPE  C312  882   3.538   5.943   5.459  0.5190 -0.6268  0.2904
    7DOPE  H12X  883   3.517   5.833   5.455 -1.3298 -0.3435  1.0879
    7DOPE  H12Y  884   3.534   5.971   5.566  0.3203  0.9069 -0.0908
    7DOPE  C313  885   3.672   5.972   5.395  0.4618 -0.2413 -0.3425
    7DOPE  H13X  886   3.670   5.924   5.295  0.0502 -0.9538  0.0033
    7DOPE  H13Y  887   3.693   6.080   5.384  1.0409 -0.5360 -2.7716
    7DOPE  C314  888   3.782   5.899   5.471 -0.0625  0.2175 -0.0473
    7DOPE  H14X  889   3.870   5.916   5.405 -0.1077 -0.7093 -0.3492
    7DOPE  H14Y  890   3.775   5.789   5.467  1.7013  0.0767 -3.7583
    7DOPE  C315  891   3.822   5.954   5.615  1.0419 -0.1741 -0.5127
    7DOPE  H15X  892   3.734   5.953   5.682  0.5592 -1.5159 -1.1387
    7DOPE  H15Y  893   3.848   6.061   5.597 -1.6746  0.4842 -1.0045
    7DOPE  C316  894   3.944   5.893   5.689 -0.4981 -0.4206  0.3782
    7DOPE  H16X  895   3.978   5.953   5.776 -0.0831 -1.7444  1.1593
    7DOPE  H16Y  896   4.030   5.900   5.619 -1.7347 -1.8582 -1.3772
    7DOPE  C317  897   3.922   5.742   5.735 -0.4107  0.6455  0.0992
    7DOPE  H17X  898   3.858   5.684   5.665  1.7317 -1.8497  0.0727
    7DOPE  H17Y  899   4.021   5.694   5.725 -0.2503  0.9782  0.0883
    7DOPE  C318  900   3.878   5.724   5.878 -0.4309 -0.3243 -0.6516
    7DOPE  H18X  901   3.944   5.790   5.939 -1.4327  0.1583 -0.0527
    7DOPE  H18Y  902   3.780   5.772   5.899 -0.5508 -0.7994 -0.0913
    7DOPE  H18Z  903   3.870   5.617   5.908 -2.2859 -0.5362 -1.7545
    8DOPE     N  904   3.931   6.583   6.689 -0.2588 -0.1329 -0.2144
    8DOPE   HN1  905   3.863   6.588   6.767 -0.2525  1.9949 -0.2929
    8DOPE   HN2  906   4.007   6.515   6.709  0.1451  0.7602  1.4988
    8DOPE   HN3  907   3.986   6.671   6.679  1.1259 -0.8010  1.0204
    8DOPE   C12  908   3.869   6.552   6.555 -0.2153 -0.6023 -0.6587
    8DOPE  H12A  909   3.946   6.570   6.477  1.1005 -3.0610 -0.0298
    8DOPE  H12B  910   3.779   6.617   6.548  1.5930  2.3801  1.6754
    8DOPE   C11  911   3.840   6.403   6.542  0.0070  0.1976 -0.4649
    8DOPE  H11A  912   3.941   6.357   6.543  0.1151  0.2757 -2.6024
    8DOPE  H11B  913   3.794   6.383   6.443 -1.3627  1.0580 -0.0257
    8DOPE     P  914   3.727   6.207   6.701  0.1234 -0.1080 -0.0646
    8DOPE   O13  915   3.579   6.183   6.714  0.1355 -0.4211  0.1754
    8DOPE   O14  916   3.809   6.178   6.824  0.1287 -0.5850 -0.1028
    8DOPE   O11  917   3.792   6.132   6.585 -0.1495  0.7036  0.1507
    8DOPE   O12  918   3.759   6.359   6.651  0.4578 -0.0385 -0.2638
    8DOPE    C1  919   3.795   5.985   6.602 -0.4710  0.0739  0.4375
    8DOPE    HA  920   3.726   5.943   6.678  1.3887 -2.1111  1.0314
    8DOPE    HB  921   3.899   5.950   6.621 -0.9638 -1.2983  0.7443
    8DOPE    C2  922   3.745   5.918   6.471 -0.2469  0.6495 -0.0197
    8DOPE    HS  923   3.792   5.818   6.453  3.3159  2.1347  0.2720
    8DOPE   O21  924   3.767   5.996   6.358 -0.5804  0.3592 -0.2398
    8DOPE   C21  925   3.893   6.034   6.328 -0.0904  0.4724  0.0260
    8DOPE   O22  926   3.994   5.987   6.380  0.1078 -0.0714  0.5136
    8DOPE   C22  927   3.898   6.141   6.222  1.0639 -0.7024 -0.0085
    8DOPE   H2R  928   3.929   6.235   6.272 -1.6115  1.4715 -2.1127
    8DOPE   H2S  929   3.792   6.161   6.196  1.5175  1.0433 -0.6839
    8DOPE    C3  930   3.597   5.894   6.497 -0.9515 -0.2252 -0.6517
    8DOPE    HX  931   3.541   5.978   6.544  0.8160  1.7546 -1.8958
    8DOPE    HY  932   3.578   5.802   6.555  2.0485 -0.2345  0.4855
    8DOPE   O31  933   3.532   5.881   6.372 -0.6476 -0.2983  0.1224
    8DOPE   C31  934   3.550   5.764   6.307 -0.1403 -0.6154  0.7099
    8DOPE   O32  935   3.630   5.679   6.343 -0.5299  0.1657  0.7407
    8DOPE   C32  936   3.466   5.768   6.187  0.3443  0.0766 -0.5876
    8DOPE   H2X  937   3.363   5.749   6.224  0.2124 -1.7781 -1.7929
    8DOPE   H2Y  938   3.459   5.874   6.155 -1.8376  1.1182  2.8175
    8DOPE   C23  939   3.987   6.123   6.099  0.7896 -0.3559  0.9295
    8DOPE   H3R  940   3.969   6.024   6.053  1.3998  0.1662 -0.4814
    8DOPE   H3S  941   4.096   6.128   6.122  1.1680  1.7308 -0.9518
    8DOPE   C24  942   3.972   6.232   5.985  0.4031 -0.1376  0.2376
    8DOPE   H4R  943   4.042   6.202   5.904 -2.0503 -2.5663 -1.1280
    8DOPE   H4S  944   4.024   6.328   6.008  1.2224 -0.7559  1.0910
    8DOPE   C25  945   3.834   6.240   5.923 -0.1967  0.0694 -1.1268
    8DOPE   H5R  946   3.764   6.303   5.982 -2.3014 -1.4031 -1.9098
    8DOPE   H5S  947   3.782   6.141   5.914 -1.4062  0.2092  2.5963
    8DOPE   C26  948   3.831   6.304   5.785 -0.2197 -0.0302  0.7102
    8DOPE   H6R  949   3.907   6.245   5.732 -0.3292 -1.3381  1.9492
    8DOPE   H6S  950   3.867   6.409   5.793  1.0451 -0.4209  0.3409
    8DOPE   C27  951   3.699   6.279   5.705  0.3845 -0.3408  1.0039
    8DOPE   H7R  952   3.604   6.313   5.751 -0.9118 -2.5411  0.1238
    8DOPE   H7S  953   3.681   6.173   5.675  0.0400  0.4216 -1.8350
    8DOPE   C28  954   3.701   6.346   5.564 -0.8265  0.0437 -0.6029
    8DOPE   H8R  955   3.601   6.349   5.514 -0.5706  1.0318 -1.0861
    8DOPE   H8S  956   3.764   6.301   5.485  1.2559  2.2330 -0.3250
    8DOPE   C29  957   3.729   6.496   5.579  0.9431  0.6523  0.8833
    8DOPE   H9R  958   3.634   6.545   5.603 -1.2714 -3.1235  0.6269
    8DOPE  C210  959   3.837   6.565   5.544  0.2326 -0.0179  0.0795
    8DOPE  H10R  960   3.842   6.672   5.568  3.5443 -0.1146  0.2586
    8DOPE  C211  961   3.963   6.516   5.490  0.1982  0.0592  0.6036
    8DOPE  H11R  962   3.970   6.523   5.379 -0.3338  0.4132  0.5902
    8DOPE  H11S  963   3.985   6.411   5.519 -1.0442  0.2086  2.2344
    8DOPE  C212  964   4.085   6.584   5.554 -0.0979 -0.0337 -0.0048
    8DOPE  H12R  965   4.092   6.694   5.541 -0.5578 -0.1901 -1.7846
    8DOPE  H12S  966   4.173   6.548   5.496  0.7498  1.0906  0.5355
    8DOPE  C213  967   4.106   6.544   5.696  0.1580 -0.9099 -0.5384
    8DOPE  H13R  968   4.087   6.435   5.705  0.5461 -1.1879 -2.6128
    8DOPE  H13S  969   4.034   6.599   5.762  1.3927 -0.5134  0.5234
    8DOPE  C214  970   4.253   6.565   5.738  0.1956 -0.3341  0.0504
    8DOPE  H14R  971   4.270   6.673   5.723  1.0865 -0.6442 -1.2925
    8DOPE  H14S  972   4.314   6.504   5.668  2.2706  1.3392  0.3078
    8DOPE  C215  973   4.283   6.535   5.890  0.2541 -0.7313  0.0898
    8DOPE  H15R  974   4.392   6.549   5.905  0.6664 -2.2783 -1.2667
    8DOPE  H15S  975   4.263   6.427   5.906  0.7336 -1.0645 -1.4083
    8DOPE  C216  976   4.194   6.613   5.988 -0.0058  0.2704 -0.2781
    8DOPE  H16R  977   4.088   6.625   5.958 -0.3311 -0.0651  0.7013
    8DOPE  H16S  978   4.224   6.714   6.021 -1.7644  0.5361  0.5806
    8DOPE  C217  979   4.197   6.548   6.129  0.7924  0.2171 -0.7570
    8DOPE  H17R  980   4.304   6.535   6.156  0.6614  0.2096 -0.2317
    8DOPE  H17S  981   4.169   6.440   6.124  1.0505  0.1744 -1.3122
    8DOPE  C218  982   4.112   6.606   6.242 -0.1381 -0.1406  0.4812
    8DOPE  H18R  983   4.111   6.716   6.227  0.7541 -0.3396 -1.1564
    8DOPE  H18S  984   4.162   6.605   6.341  3.0380  1.1902 -0.9822
    8DOPE  H18T  985   4.004   6.579   6.249 -0.8530  2.4429  0.3224
    8DOPE   C33  986   3.502   5.665   6.079  0.2341 -0.3063  0.1828
    8DOPE   H3X  987   3.472   5.561   6.103  1.7309 -1.5503 -2.7700
    8DOPE   H3Y  988   3.612   5.668   6.060  0.5246 -0.9157  1.6505
    8DOPE   C34  989   3.447   5.696   5.936 -0.6135 -0.1362 -0.2972
    8DOPE   H4X  990   3.456   5.806   5.920 -1.0527  0.1327  1.1614
    8DOPE   H4Y  991   3.519   5.646   5.868  0.2256  0.2711  0.2738
    8DOPE   C35  992   3.308   5.646   5.911 -0.3474  0.1700  0.1660
    8DOPE   H5X  993   3.247   5.678   5.999 -0.1913  0.8734  0.0258
    8DOPE   H5Y  994   3.308   5.535   5.904  0.5414  0.2087 -0.7029
    8DOPE   C36  995   3.239   5.697   5.786 -0.1940  0.1042 -0.4841
    8DOPE   H6X  996   3.280   5.799   5.766  0.4350 -0.0603 -0.0776
    8DOPE   H6Y  997   3.131   5.714   5.805  0.0810  1.4098  0.0053
    8DOPE   C37  998   3.249   5.612   5.658  0.2394 -0.4273 -0.9920
    8DOPE   H7X  999   3.205   5.659   5.568  1.3939  2.8393  0.0026
    8DOPE   H7Y 1000   3.355   5.581   5.641  0.5823  0.7072 -1.0327
    8DOPE   C38 1001   3.169   5.481   5.660  0.0016  0.3696 -0.3578
    8DOPE   H8X 1002   3.062   5.504   5.677  0.0904 -0.0766  0.9087
    8DOPE   H8Y 1003   3.209   5.422   5.745  2.0908  0.9216 -0.9062
    8DOPE   C39 1004   3.189   5.407   5.533 -0.1770  0.3227 -0.1450
    8DOPE   H9X 1005   3.290   5.365   5.524  0.0158  0.0227  2.5628
    8DOPE  C310 1006   3.090   5.389   5.439 -0.1918 -0.0637 -0.3834
    8DOPE  H10X 1007   3.109   5.322   5.354  1.7639 -0.6785  0.4926
    8DOPE  C311 1008   2.942   5.436   5.437 -0.6690  0.0623  0.2259
    8DOPE  H11X 1009   2.877   5.345   5.440 -0.4653 -0.0502  1.5852
    8DOPE  H11Y 1010   2.914   5.485   5.532 -2.5791 -1.4985  0.5377
    8DOPE  C312 1011   2.906   5.533   5.329 -1.0441  0.0263  1.2257
    8DOPE  H12X 1012   2.807   5.581   5.346 -1.0905  0.1796  0.5222
    8DOPE  H12Y 1013   2.891   5.471   5.239 -0.1706  1.6508 -0.0869
    8DOPE  C313 1014   3.000   5.640   5.279 -0.7856  0.2139  0.1618
    8DOPE  H13X 1015   3.035   5.708   5.359  2.0032  0.7596 -1.3978
    8DOPE  H13Y 1016   3.097   5.597   5.245 -0.1013  0.4634  1.7102
    8DOPE  C314 1017   2.935   5.721   5.169 -0.4035 -0.2222 -0.4918
    8DOPE  H14X 1018   2.833   5.749   5.205 -0.9139 -2.9427  0.4309
    8DOPE  H14Y 1019   2.919   5.650   5.085 -0.2252  0.1815 -0.8682
    8DOPE  C315 1020   3.023   5.843   5.124  0.5294  0.0463  0.4272
    8DOPE  H15X 1021   3.036   5.904   5.216  0.9769 -0.9353  1.0407
    8DOPE  H15Y 1022   2.974   5.904   5.046  2.0468 -0.1213 -0.6904
    8DOPE  C316 1023   3.157   5.814   5.062  0.0073  1.0879 -0.9793
    8DOPE  H16X 1024   3.137   5.745   4.978 -0.8423  0.1344 -0.0173
    8DOPE  H16Y 1025   3.218   5.762   5.138 -2.5959  1.2073  1.3509
    8DOPE  C317 1026   3.237   5.938   5.005  0.4268  0.3125 -0.0672
    8DOPE  H17X 1027   3.187   5.968   4.911 -1.4223  0.7176  0.9995
    8DOPE  H17Y 1028   3.236   6.021   5.079 -0.5422  0.1462  0.1245
    8DOPE  C318 1029   3.382   5.902   4.986  0.4536  0.0528 -0.0405
    8DOPE  H18X 1030   3.441   5.989   4.951  0.6546  0.9355  2.3331
    8DOPE  H18Y 1031   3.385   5.820   4.910 -0.5188 -0.9973  1.0054
    8DOPE  H18Z 1032   3.429   5.859   5.077  0.4707 -3.1148 -1.3916
    9DOPE     N 1033   0.636   4.060   6.469 -0.1193  0.2382 -0.2676
    9DOPE   HN1 1034   0.695   4.069   6.554 -0.3427 -1.2141  0.0616
    9DOPE   HN2 1035   0.583   4.149   6.467  1.9800  1.5718 -0.4890
    9DOPE   HN3 1036   0.571   3.980   6.479 -0.2387 -0.2949 -3.7715
    9DOPE   C12 1037   0.723   4.047   6.349  0.1376  0.7788 -0.1554
    9DOPE  H12A 1038   0.657   4.022   6.263  1.3504 -0.4160 -0.7766
    9DOPE  H12B 1039   0.792   3.962   6.367 -0.6886 -0.1369 -1.1710
    9DOPE   C11 1040   0.802   4.176   6.328 -0.7298  0.2494  0.0594
    9DOPE  H11A 1041   0.864   4.165   6.236 -2.2918  0.5141 -1.0731
    9DOPE  H11B 1042   0.862   4.182   6.421 -0.7055  0.5177  0.0258
    9DOPE     P 1043   0.744   4.436   6.365  0.2995 -0.2965 -0.3430
    9DOPE   O13 1044   0.878   4.444   6.413 -0.0700 -0.7992  0.8560
    9DOPE   O14 1045   0.624   4.478   6.452  0.0515  0.5448 -0.3051
    9DOPE   O11 1046   0.736   4.515   6.230 -0.9366 -0.8604 -0.6943
    9DOPE   O12 1047   0.714   4.287   6.315 -0.2503  0.5195  0.2938
    9DOPE    C1 1048   0.694   4.468   6.107  0.3169  0.7779 -0.4391
    9DOPE    HA 1049   0.642   4.556   6.064 -1.6954  1.2378  2.5852
    9DOPE    HB 1050   0.607   4.399   6.119 -0.0840  1.3596  0.0357
    9DOPE    C2 1051   0.806   4.408   6.024  0.0855  0.0784 -0.5358
    9DOPE    HS 1052   0.845   4.319   6.077  1.0249  0.9208  0.2528
    9DOPE   O21 1053   0.918   4.500   6.003 -0.7621  0.1715  0.5320
    9DOPE   C21 1054   1.037   4.469   6.074  0.0246 -0.7129  0.7400
    9DOPE   O22 1055   1.051   4.376   6.146  0.6956  0.2700  0.2108
    9DOPE   C22 1056   1.136   4.585   6.047  0.3294  0.2950  0.0455
    9DOPE   H2R 1057   1.167   4.638   6.140  0.4976  1.1181 -0.4615
    9DOPE   H2S 1058   1.080   4.664   5.992  1.9720  1.5645  0.1043
    9DOPE    C3 1059   0.764   4.376   5.873 -1.0503  0.2275 -0.5728
    9DOPE    HX 1060   0.850   4.338   5.813 -1.7439  0.3246 -1.6409
    9DOPE    HY 1061   0.728   4.469   5.823 -3.8537  0.1085  1.0380
    9DOPE   O31 1062   0.649   4.289   5.875  0.0068 -0.0196  0.0698
    9DOPE   C31 1063   0.670   4.167   5.911  0.3795 -0.5910 -0.5307
    9DOPE   O32 1064   0.782   4.115   5.923 -0.4080 -0.2524  0.1244
    9DOPE   C32 1065   0.542   4.089   5.929 -0.4195  0.5162  0.3811
    9DOPE   H2X 1066   0.522   4.071   6.037 -3.2587 -0.3997 -0.1858
    9DOPE   H2Y 1067   0.455   4.155   5.903 -1.3143 -0.5434  0.6082
    9DOPE   C23 1068   1.263   4.538   5.973  0.2778 -0.0340 -0.0381
    9DOPE   H3R 1069   1.335   4.481   6.035  1.3181 -0.4724 -1.5847
    9DOPE   H3S 1070   1.318   4.633   5.951 -0.7412  0.6253  0.1979
    9DOPE   C24 1071   1.218   4.472   5.847 -0.1582 -0.0525  0.6333
    9DOPE   H4R 1072   1.113   4.493   5.817 -0.2544 -2.1757 -0.6856
    9DOPE   H4S 1073   1.199   4.366   5.875 -0.6979 -0.6945 -1.9357
    9DOPE   C25 1074   1.316   4.497   5.729 -0.0378  0.0497  0.3191
    9DOPE   H5R 1075   1.404   4.429   5.724  0.5280  0.7712  0.2082
    9DOPE   H5S 1076   1.357   4.596   5.759 -1.5705  0.2766  1.8017
    9DOPE   C26 1077   1.258   4.511   5.596 -0.3132  0.6999  0.8443
    9DOPE   H6R 1078   1.198   4.604   5.603 -0.0410  0.9351  0.1923
    9DOPE   H6S 1079   1.191   4.425   5.573 -0.4715  0.0445  3.4412
    9DOPE   C27 1080   1.362   4.532   5.483  0.4858  0.0737 -0.0226
    9DOPE   H7R 1081   1.431   4.447   5.471  2.7461  1.9053 -0.8359
    9DOPE   H7S 1082   1.430   4.613   5.520  2.8337 -0.8769 -2.0194
    9DOPE   C28 1083   1.293   4.572   5.349 -0.0845 -0.2686  0.4096
    9DOPE   H8R 1084   1.248   4.673   5.363  0.1123  0.1650 -1.7254
    9DOPE   H8S 1085   1.213   4.498   5.328  0.1797 -1.0255  1.8846
    9DOPE   C29 1086   1.389   4.587   5.232 -0.1327  0.1603  0.8785
    9DOPE   H9R 1087   1.449   4.680   5.228  1.2394 -0.6298  2.0688
    9DOPE  C210 1088   1.412   4.491   5.137 -0.1208  0.0500 -0.7908
    9DOPE  H10R 1089   1.491   4.514   5.063 -1.7448  0.1579 -2.5692
    9DOPE  C211 1090   1.345   4.354   5.135 -0.1647 -1.0032  0.7024
    9DOPE  H11R 1091   1.328   4.320   5.240 -0.4650  0.5274  1.1793
    9DOPE  H11S 1092   1.414   4.280   5.089 -0.2096 -0.0474 -0.9510
    9DOPE  C212 1093   1.215   4.338   5.063  0.6824 -0.3511  0.1954
    9DOPE  H12R 1094   1.143   4.418   5.089 -0.1966 -1.1244  0.2219
    9DOPE  H12S 1095   1.174   4.237   5.085 -0.2404 -0.4397 -1.7014
    9DOPE  C213 1096   1.238   4.344   4.910 -0.3271  0.3198 -0.5789
    9DOPE  H13R 1097   1.312   4.265   4.886 -0.4119 -1.2373  3.5103
    9DOPE  H13S 1098   1.280   4.442   4.880  1.6338 -1.0662 -2.7237
    9DOPE  C214 1099   1.103   4.313   4.832 -0.2090  0.1018  0.1001
    9DOPE  H14R 1100   1.041   4.405   4.821  3.3708  2.5716 -1.3404
    9DOPE  H14S 1101   1.051   4.235   4.890  0.2292 -1.4380 -1.5085
    9DOPE  C215 1102   1.126   4.260   4.692  0.6656 -0.6733 -0.2728
    9DOPE  H15R 1103   1.029   4.220   4.654  0.9230 -1.4562 -0.1244
    9DOPE  H15S 1104   1.193   4.172   4.701  0.8204 -0.3605  2.5587
    9DOPE  C216 1105   1.189   4.360   4.594 -0.0121  0.6064  0.4553
    9DOPE  H16R 1106   1.260   4.418   4.656  1.8866 -0.8972 -0.2021
    9DOPE  H16S 1107   1.110   4.426   4.552 -0.3533  1.2908  2.1130
    9DOPE  C217 1108   1.266   4.286   4.484 -0.7743 -0.1242  0.7451
    9DOPE  H17R 1109   1.338   4.209   4.520  0.0636  0.4019  0.2217
    9DOPE  H17S 1110   1.326   4.361   4.428  1.5666 -1.6867  1.0226
    9DOPE  C218 1111   1.178   4.206   4.380 -0.0436 -0.2363 -0.4098
    9DOPE  H18R 1112   1.241   4.147   4.309  0.4776  0.2396 -0.3524
    9DOPE  H18S 1113   1.121   4.280   4.320  0.4925  0.6698  0.1746
    9DOPE  H18T 1114   1.110   4.145   4.443  0.8181 -1.2837 -0.4622
    9DOPE   C33 1115   0.527   3.953   5.846  0.2998  0.8647 -0.6788
    9DOPE   H3X 1116   0.457   3.888   5.903  1.6806  0.8765  1.1059
    9DOPE   H3Y 1117   0.627   3.904   5.844  0.1961  0.3617  2.2969
    9DOPE   C34 1118   0.471   3.969   5.707 -0.8288 -0.5914  0.0647
    9DOPE   H4X 1119   0.463   3.865   5.670 -2.5310 -1.0410  1.5543
    9DOPE   H4Y 1120   0.377   4.027   5.719  1.1800  2.6077  2.1174
    9DOPE   C35 1121   0.559   4.051   5.608 -0.0414  0.2430 -0.3755
    9DOPE   H5X 1122   0.667   4.025   5.604  0.0059  0.0996  1.4150
    9DOPE   H5Y 1123   0.553   4.155   5.646  0.1342  0.2528 -0.3765
    9DOPE   C36 1124   0.495   4.059   5.464  0.3089 -0.3261 -0.8473
    9DOPE   H6X 1125   0.508   3.961   5.413 -0.6640  0.1879 -2.1535
    9DOPE   H6Y 1126   0.562   4.132   5.415 -0.2979 -0.5641 -2.0719
    9DOPE   C37 1127   0.345   4.106   5.454 -0.2725  0.2081 -0.7550
    9DOPE   H7X 1128   0.280   4.029   5.501 -2.6042  1.2242 -2.1415
    9DOPE   H7Y 1129   0.332   4.203   5.507  1.4317 -0.3964  0.8510
    9DOPE   C38 1130   0.293   4.128   5.313 -0.7634  0.2229  0.7056
    9DOPE   H8X 1131   0.306   4.234   5.282 -1.6515 -0.6247 -3.0926
    9DOPE   H8Y 1132   0.182   4.116   5.318 -0.8067  0.6988  0.9371
    9DOPE   C39 1133   0.334   4.026   5.214  0.5339 -0.0379  0.1652
    9DOPE   H9X 1134   0.299   3.923   5.234 -0.8950 -0.1159 -2.3521
    9DOPE  C310 1135   0.401   4.040   5.094 -0.4205  1.2915  0.1850
    9DOPE  H10X 1136   0.417   3.948   5.036  2.2684  0.3259  2.2221
    9DOPE  C311 1137   0.448   4.178   5.050  1.6058 -0.0629  0.5759
    9DOPE  H11X 1138   0.403   4.208   4.953  0.4837 -0.0457  1.0833
    9DOPE  H11Y 1139   0.428   4.264   5.118  1.6189 -0.3760  0.9797
    9DOPE  C312 1140   0.599   4.179   5.024  0.1658  0.0871  0.1071
    9DOPE  H12X 1141   0.647   4.154   5.121 -0.1281 -2.2205 -0.2741
    9DOPE  H12Y 1142   0.629   4.284   5.005  0.8720  0.0329  0.8303
    9DOPE  C313 1143   0.658   4.091   4.917 -0.4264  0.5449  0.0035
    9DOPE  H13X 1144   0.765   4.116   4.904  0.4301 -2.0330  1.4491
    9DOPE  H13Y 1145   0.657   3.988   4.959  2.0836  0.7389  0.6742
    9DOPE  C314 1146   0.599   4.106   4.782  1.0760  0.1712  0.3383
    9DOPE  H14X 1147   0.583   4.212   4.751 -2.0604 -0.9044 -2.3665
    9DOPE  H14Y 1148   0.497   4.061   4.786  0.1867  1.9119 -0.8882
    9DOPE  C315 1149   0.683   4.033   4.676  0.3636  0.1628 -0.3587
    9DOPE  H15X 1150   0.748   3.955   4.722  0.0091 -0.6723 -1.2270
    9DOPE  H15Y 1151   0.752   4.111   4.640 -0.2856  0.2795 -1.3686
    9DOPE  C316 1152   0.611   3.985   4.557 -1.1859  0.4673 -0.0037
    9DOPE  H16X 1153   0.688   3.976   4.478 -2.4658  0.4257 -1.2800
    9DOPE  H16Y 1154   0.531   4.053   4.522 -0.6193  0.4874 -1.2982
    9DOPE  C317 1155   0.552   3.842   4.582  0.4040 -1.2717  0.2100
    9DOPE  H17X 1156   0.642   3.788   4.619  0.5234 -0.8081  0.6007
    9DOPE  H17Y 1157   0.466   3.854   4.651 -0.3320  1.3538 -1.0575
    9DOPE  C318 1158   0.498   3.784   4.448 -0.2446 -0.3890 -0.2976
    9DOPE  H18X 1159   0.441   3.689   4.460 -1.1730  0.2816  0.7930
    9DOPE  H18Y 1160   0.431   3.857   4.398  0.4850  0.6024  0.1405
    9DOPE  H18Z 1161   0.579   3.765   4.375 -1.0097 -1.0169 -1.0032
   10DOPE     N 1162   1.461   6.022   6.850 -0.0987  0.5142 -0.7413
   10DOPE   HN1 1163   1.487   6.000   6.948 -0.1057  1.9625 -0.3802
   10DOPE   HN2 1164   1.548   6.013   6.795  0.2450 -1.5928  0.0599
   10DOPE   HN3 1165   1.424   6.119   6.838 -0.4702  0.4290 -0.3347
   10DOPE   C12 1166   1.359   5.928   6.793 -0.4016 -0.2931  0.3002
   10DOPE  H12A 1167   1.408   5.830   6.777 -2.2706 -1.1182 -0.7515
   10DOPE  H12B 1168   1.336   5.960   6.689 -3.7645 -1.8312  0.4197
   10DOPE   C11 1169   1.228   5.919   6.868 -0.4930 -0.4754  0.0528
   10DOPE  H11A 1170   1.252   5.856   6.956  0.4149 -0.5853 -0.2641
   10DOPE  H11B 1171   1.143   5.876   6.810 -1.1940  0.7827  0.1092
   10DOPE     P 1172   1.044   6.071   6.963  0.0914 -0.0495 -0.0174
   10DOPE   O13 1173   1.041   6.206   7.022  0.5863 -0.4312 -0.5486
   10DOPE   O14 1174   0.993   5.955   7.045  0.0378  0.2265 -0.7308
   10DOPE   O11 1175   0.961   6.075   6.827 -0.5071 -0.3648  0.0792
   10DOPE   O12 1176   1.186   6.049   6.902  0.1711  0.5960 -0.2460
   10DOPE    C1 1177   0.825   6.114   6.830  0.7299 -0.7798  0.3091
   10DOPE    HA 1178   0.812   6.192   6.908  1.3315  0.6238 -0.9390
   10DOPE    HB 1179   0.766   6.024   6.855  1.0635 -1.8170 -2.3302
   10DOPE    C2 1180   0.775   6.171   6.690  0.0272  0.1978  0.2915
   10DOPE    HS 1181   0.665   6.153   6.689  0.2506 -1.7708  2.6094
   10DOPE   O21 1182   0.839   6.105   6.577 -0.4916  0.0825 -0.2460
   10DOPE   C21 1183   0.826   5.973   6.580  0.1493  0.1764  0.3079
   10DOPE   O22 1184   0.762   5.906   6.655  0.2609 -0.5783 -0.7806
   10DOPE   C22 1185   0.902   5.912   6.461 -0.0732  0.0930 -0.0580
   10DOPE   H2R 1186   1.000   5.964   6.457 -0.8219  1.5685  0.1419
   10DOPE   H2S 1187   0.839   5.942   6.374  1.1037  0.9290 -0.6525
   10DOPE    C3 1188   0.808   6.319   6.680  0.5711  0.0134  0.2355
   10DOPE    HX 1189   0.916   6.339   6.662  0.7492 -0.9709  0.1830
   10DOPE    HY 1190   0.790   6.378   6.773 -1.8393  0.9328 -0.7323
   10DOPE   O31 1191   0.723   6.378   6.577  0.2035  0.5725  0.7644
   10DOPE   C31 1192   0.738   6.513   6.577 -0.4118  0.6223 -0.1686
   10DOPE   O32 1193   0.790   6.583   6.661  0.2757 -0.2060  0.1034
   10DOPE   C32 1194   0.675   6.557   6.448 -0.2219 -0.0805  1.0819
   10DOPE   H2X 1195   0.614   6.472   6.409 -0.5313  0.4265  0.4456
   10DOPE   H2Y 1196   0.616   6.646   6.478  1.9664  2.4076 -1.4745
   10DOPE   C23 1197   0.922   5.754   6.476 -0.0771  0.2640  0.1045
   10DOPE   H3R 1198   0.948   5.718   6.374  1.5660 -0.7401  0.8364
   10DOPE   H3S 1199   0.832   5.700   6.514  0.7142 -0.2711  1.2662
   10DOPE   C24 1200   1.032   5.718   6.571  0.4373  1.0292  0.2265
   10DOPE   H4R 1201   1.002   5.746   6.674  0.2700  1.4258  0.0706
   10DOPE   H4S 1202   1.117   5.785   6.547 -0.0308  1.5427 -0.0096
   10DOPE   C25 1203   1.062   5.569   6.582  0.3490 -1.0905 -0.3964
   10DOPE   H5R 1204   0.981   5.520   6.640 -1.4431  1.4765 -0.5331
   10DOPE   H5S 1205   1.143   5.555   6.656 -0.1267 -3.6728 -0.2783
   10DOPE   C26 1206   1.084   5.494   6.452  0.3347  0.1761  0.5427
   10DOPE   H6R 1207   1.161   5.555   6.400 -0.1406  0.1007 -0.2602
   10DOPE   H6S 1208   0.995   5.482   6.387 -0.3503 -0.4606  1.5704
   10DOPE   C27 1209   1.146   5.357   6.479 -0.3968  0.1197 -0.6197
   10DOPE   H7R 1210   1.064   5.289   6.510 -2.6824  1.5949 -3.0507
   10DOPE   H7S 1211   1.218   5.374   6.562  0.6702 -1.5613 -1.1535
   10DOPE   C28 1212   1.234   5.287   6.372  0.0961 -0.0167 -0.6539
   10DOPE   H8R 1213   1.294   5.367   6.324  0.1777  0.4417  0.1967
   10DOPE   H8S 1214   1.162   5.241   6.300 -1.9231 -0.4200  1.4970
   10DOPE   C29 1215   1.336   5.179   6.403  0.3309  0.0770 -0.4687
   10DOPE   H9R 1216   1.420   5.220   6.460  1.9087 -1.6266 -1.4299
   10DOPE  C210 1217   1.335   5.043   6.384 -0.0533 -0.2685  0.2928
   10DOPE  H10R 1218   1.418   4.979   6.418 -0.7341 -2.0066 -1.2009
   10DOPE  C211 1219   1.224   4.968   6.327  0.0141 -0.0541 -0.3353
   10DOPE  H11R 1220   1.128   5.020   6.310 -0.2066 -0.6361 -0.9454
   10DOPE  H11S 1221   1.189   4.885   6.394  2.5373 -1.4297 -0.5944
   10DOPE  C212 1222   1.252   4.902   6.189 -0.0738 -0.0903 -0.4820
   10DOPE  H12R 1223   1.153   4.857   6.168 -0.5057  0.5780  0.0825
   10DOPE  H12S 1224   1.323   4.816   6.193 -1.4115 -1.3119 -1.8777
   10DOPE  C213 1225   1.282   5.002   6.076 -0.4483  0.4867  0.3478
   10DOPE  H13R 1226   1.377   5.054   6.100  0.5188 -1.0835  0.0104
   10DOPE  H13S 1227   1.207   5.084   6.080 -1.5284 -0.2078 -2.7939
   10DOPE  C214 1228   1.292   4.931   5.942 -0.4696  0.4286 -0.1674
   10DOPE  H14R 1229   1.192   4.890   5.915 -1.1081  1.1157  1.0336
   10DOPE  H14S 1230   1.359   4.843   5.952 -2.5763 -1.0970  1.6631
   10DOPE  C215 1231   1.315   5.024   5.820 -0.9472 -0.2509 -0.7280
   10DOPE  H15R 1232   1.414   5.071   5.839 -0.1287 -2.2918  0.3058
   10DOPE  H15S 1233   1.232   5.098   5.822  0.0651  0.9032  0.2460
   10DOPE  C216 1234   1.326   4.942   5.692  0.4647 -0.5804 -0.4773
   10DOPE  H16R 1235   1.233   4.881   5.687 -0.4236  0.8038 -2.1849
   10DOPE  H16S 1236   1.415   4.876   5.684  0.5066 -0.3601 -2.3667
   10DOPE  C217 1237   1.334   5.026   5.566 -0.5338  0.4602 -0.0373
   10DOPE  H17R 1238   1.423   5.091   5.570 -1.2319  1.4686 -0.6135
   10DOPE  H17S 1239   1.249   5.095   5.551  0.2116  1.7089  1.2539
   10DOPE  C218 1240   1.340   4.945   5.438 -0.0904  0.1354  0.2204
   10DOPE  H18R 1241   1.352   5.008   5.347  0.0200  0.5300  0.5046
   10DOPE  H18S 1242   1.240   4.896   5.429  0.0659  0.0481 -1.1971
   10DOPE  H18T 1243   1.410   4.859   5.440 -0.6946 -0.3534  1.3311
   10DOPE   C33 1244   0.782   6.606   6.346  0.0194  0.7794 -0.1351
   10DOPE   H3X 1245   0.849   6.673   6.403  1.2219  1.6016 -2.3627
   10DOPE   H3Y 1246   0.732   6.664   6.265  0.6478 -0.1332 -1.2081
   10DOPE   C34 1247   0.865   6.494   6.276 -0.2477  1.2048 -0.4697
   10DOPE   H4X 1248   0.907   6.546   6.188  0.9580 -1.0176 -1.2989
   10DOPE   H4Y 1249   0.946   6.457   6.341  0.0657  0.6900 -1.1396
   10DOPE   C35 1250   0.785   6.373   6.219  0.0260  0.1222  0.2566
   10DOPE   H5X 1251   0.689   6.403   6.172 -2.5908 -2.3358  3.5375
   10DOPE   H5Y 1252   0.759   6.309   6.306  1.2021  0.3712  0.8156
   10DOPE   C36 1253   0.865   6.286   6.124 -0.1393 -0.0421 -0.1101
   10DOPE   H6X 1254   0.795   6.211   6.082 -1.0265  0.2558  0.8033
   10DOPE   H6Y 1255   0.949   6.232   6.173 -2.1929 -0.7852  2.8164
   10DOPE   C37 1256   0.924   6.362   6.010  0.2200 -0.4010  0.3997
   10DOPE   H7X 1257   1.012   6.424   6.038  0.9943 -0.6847 -1.2688
   10DOPE   H7Y 1258   0.960   6.288   5.935 -2.1902 -2.0983  0.8086
   10DOPE   C38 1259   0.828   6.450   5.924  0.2606 -0.1351  0.3264
   10DOPE   H8X 1260   0.876   6.506   5.841 -0.8420  0.8732  0.3431
   10DOPE   H8Y 1261   0.787   6.527   5.992  0.4082  0.7861 -0.6057
   10DOPE   C39 1262   0.721   6.372   5.855 -0.5402  0.5528 -0.0659
   10DOPE   H9X 1263   0.676   6.295   5.919  0.4457 -0.2745 -0.3408
   10DOPE  C310 1264   0.685   6.361   5.725  0.2102 -0.3413 -0.3359
   10DOPE  H10X 1265   0.613   6.284   5.693  0.9337 -1.4762  0.6558
   10DOPE  C311 1266   0.752   6.429   5.615  0.4398  0.0336  0.0518
   10DOPE  H11X 1267   0.726   6.536   5.598 -0.1339  0.2304  2.0065
   10DOPE  H11Y 1268   0.863   6.431   5.628  0.4185  0.8553  0.1589
   10DOPE  C312 1269   0.725   6.354   5.481 -0.0265 -0.0765  0.1327
   10DOPE  H12X 1270   0.616   6.356   5.459 -0.1759  2.2432  0.7981
   10DOPE  H12Y 1271   0.742   6.246   5.495 -0.0826 -0.1999 -0.6889
   10DOPE  C313 1272   0.823   6.394   5.375 -0.0986 -0.0045 -0.1811
   10DOPE  H13X 1273   0.820   6.502   5.349  0.1209 -0.3105 -1.5198
   10DOPE  H13Y 1274   0.927   6.365   5.402  0.1200  1.5715  0.7859
   10DOPE  C314 1275   0.787   6.321   5.247  0.3058 -0.3422  0.7717
   10DOPE  H14X 1276   0.677   6.314   5.230  0.6320 -1.3658 -1.2808
   10DOPE  H14Y 1277   0.823   6.217   5.258  2.0859  0.2555  0.8858
   10DOPE  C315 1278   0.843   6.381   5.115 -0.6297 -0.7125 -0.0318
   10DOPE  H15X 1279   0.844   6.311   5.028  1.7098  1.6414 -2.0826
   10DOPE  H15Y 1280   0.949   6.409   5.132 -1.5660  1.3241  3.0701
   10DOPE  C316 1281   0.767   6.512   5.073 -0.3103  0.0835  0.1486
   10DOPE  H16X 1282   0.718   6.556   5.163  0.3083 -0.7729  0.9150
   10DOPE  H16Y 1283   0.678   6.474   5.018 -0.4277 -0.8592  0.9686
   10DOPE  C317 1284   0.850   6.623   5.004  0.2459 -0.2353 -1.0645
   10DOPE  H17X 1285   0.782   6.702   4.966 -0.3879 -0.1830  0.1013
   10DOPE  H17Y 1286   0.918   6.667   5.080  1.4295 -2.0804 -0.9881
   10DOPE  C318 1287   0.938   6.572   4.896 -0.5864  0.2253 -0.0511
   10DOPE  H18X 1288   0.882   6.499   4.833  0.5740 -0.6897 -0.0602
   10DOPE  H18Y 1289   0.964   6.657   4.829 -2.3950  0.7370 -0.1709
   10DOPE  H18Z 1290   1.026   6.520   4.938 -0.0353  0.7498 -0.5443
   11DOPE     N 1291   0.768   1.506   6.950  0.3383  0.2025  0.0218
   11DOPE   HN1 1292   0.800   1.585   7.009  1.1971  0.5454 -0.8865
   11DOPE   HN2 1293   0.675   1.473   6.984  0.2952  0.2940 -0.0084
   11DOPE   HN3 1294   0.833   1.427   6.968 -0.7821 -0.9723 -0.8573
   11DOPE   C12 1295   0.776   1.552   6.812 -0.6533 -0.1272 -0.3811
   11DOPE  H12A 1296   0.752   1.463   6.750  1.9397  0.0213 -1.7547
   11DOPE  H12B 1297   0.883   1.566   6.784 -0.8963  2.4412 -0.2579
   11DOPE   C11 1298   0.686   1.668   6.780  0.2888  0.2159 -0.4699
   11DOPE  H11A 1299   0.580   1.651   6.810  0.5289 -1.4082 -0.4668
   11DOPE  H11B 1300   0.686   1.693   6.672 -0.0726  0.6628 -0.3703
   11DOPE     P 1301   0.802   1.905   6.794 -0.1221 -0.3922  0.3149
   11DOPE   O13 1302   0.865   1.956   6.918  0.3721 -0.0466  0.3641
   11DOPE   O14 1303   0.710   1.997   6.718  0.3143  0.5461 -0.0012
   11DOPE   O11 1304   0.906   1.840   6.699  0.3801 -0.3119 -0.1880
   11DOPE   O12 1305   0.718   1.786   6.849 -0.0629 -0.3910  0.4138
   11DOPE    C1 1306   0.888   1.814   6.563 -0.5462 -0.1413  0.3149
   11DOPE    HA 1307   0.785   1.837   6.527  0.0264  1.0581 -0.6580
   11DOPE    HB 1308   0.904   1.705   6.551 -0.8146 -0.2448  0.8589
   11DOPE    C2 1309   0.986   1.898   6.473  0.2365 -0.5375 -0.5598
   11DOPE    HS 1310   0.956   1.866   6.370  0.4353 -1.7878 -0.2473
   11DOPE   O21 1311   1.122   1.858   6.511  0.2962 -0.2806  0.3646
   11DOPE   C21 1312   1.158   1.732   6.479  0.4954 -0.0458  0.1052
   11DOPE   O22 1313   1.089   1.654   6.416  0.2276 -0.1960  0.0146
   11DOPE   C22 1314   1.302   1.690   6.529  0.2912 -0.0861 -0.4049
   11DOPE   H2R 1315   1.284   1.625   6.617 -0.2506 -2.4695 -2.1461
   11DOPE   H2S 1316   1.364   1.780   6.552  0.7463 -0.0852 -1.5658
   11DOPE    C3 1317   0.979   2.052   6.497  0.1970  0.3719  0.4812
   11DOPE    HX 1318   1.051   2.080   6.577 -0.2030  1.3210  0.5195
   11DOPE    HY 1319   0.873   2.063   6.530  0.6214 -0.9746  2.4457
   11DOPE   O31 1320   1.019   2.123   6.371 -0.2660 -0.7309 -0.6815
   11DOPE   C31 1321   1.016   2.258   6.392  0.0640 -0.5906 -0.2722
   11DOPE   O32 1322   0.988   2.307   6.503 -0.1047  1.0805 -0.2618
   11DOPE   C32 1323   1.050   2.337   6.262 -0.4817 -0.5847  0.0777
   11DOPE   H2X 1324   1.158   2.359   6.276  0.0224 -3.1118  0.6522
   11DOPE   H2Y 1325   1.044   2.258   6.184 -0.4681 -1.6112  1.0985
   11DOPE   C23 1326   1.383   1.607   6.427  0.3734  0.2441  0.0225
   11DOPE   H3R 1327   1.343   1.506   6.403  1.1626 -0.3127  0.9856
   11DOPE   H3S 1328   1.485   1.591   6.469  0.7581  0.3307 -0.8665
   11DOPE   C24 1329   1.406   1.675   6.296 -0.1307  0.0111 -0.4413
   11DOPE   H4R 1330   1.514   1.669   6.271  0.1935  0.8731  0.6806
   11DOPE   H4S 1331   1.385   1.782   6.319 -1.7012 -0.8482  2.7803
   11DOPE   C25 1332   1.325   1.630   6.173 -0.2717 -0.6386  0.0735
   11DOPE   H5R 1333   1.215   1.633   6.190 -0.3204 -2.2328  0.2014
   11DOPE   H5S 1334   1.360   1.531   6.138  2.2899  0.8546 -1.9525
   11DOPE   C26 1335   1.359   1.714   6.055 -1.4658  0.3332 -0.6542
   11DOPE   H6R 1336   1.468   1.710   6.034 -1.5961  0.0325 -1.2947
   11DOPE   H6S 1337   1.346   1.822   6.077 -1.7311  0.3365 -0.8138
   11DOPE   C27 1338   1.272   1.685   5.931  0.0896 -0.1594  0.9372
   11DOPE   H7R 1339   1.165   1.680   5.961  0.1932  0.8919  1.5428
   11DOPE   H7S 1340   1.304   1.592   5.880  0.6829 -0.8419  2.5118
   11DOPE   C28 1341   1.285   1.794   5.816  0.2969  0.2880  0.5269
   11DOPE   H8R 1342   1.232   1.883   5.855 -1.5261 -0.7427  0.4991
   11DOPE   H8S 1343   1.216   1.759   5.737 -0.1791  3.9056 -0.8635
   11DOPE   C29 1344   1.425   1.821   5.770 -0.2649 -0.0932  0.2419
   11DOPE   H9R 1345   1.486   1.860   5.853 -2.0148  0.7740  1.1927
   11DOPE  C210 1346   1.459   1.845   5.641  0.2355  0.0600  0.8168
   11DOPE  H10R 1347   1.564   1.876   5.625  0.4925 -0.5693  1.2713
   11DOPE  C211 1348   1.363   1.846   5.522 -0.6861  0.5214  0.2208
   11DOPE  H11R 1349   1.288   1.764   5.528 -0.3327  0.2215  0.6261
   11DOPE  H11S 1350   1.425   1.836   5.431 -0.7833  1.4365  0.0520
   11DOPE  C212 1351   1.300   1.985   5.534 -0.2409  0.6271  0.1651
   11DOPE  H12R 1352   1.381   2.060   5.542  1.6164 -1.3393  0.7469
   11DOPE  H12S 1353   1.245   1.999   5.629  1.0294  2.2817  0.7021
   11DOPE  C213 1354   1.213   1.997   5.409 -0.4486  0.4876 -0.9621
   11DOPE  H13R 1355   1.276   1.986   5.318  0.9194  1.5822 -0.1978
   11DOPE  H13S 1356   1.166   2.098   5.413 -0.6892  0.4229  4.3282
   11DOPE  C214 1357   1.092   1.893   5.416 -0.0954 -0.3454 -0.4597
   11DOPE  H14R 1358   1.073   1.873   5.524 -0.0669  0.4399 -0.2978
   11DOPE  H14S 1359   1.112   1.794   5.371 -0.5066 -1.0032  0.7469
   11DOPE  C215 1360   0.960   1.942   5.354 -0.3823 -0.3117 -0.3410
   11DOPE  H15R 1361   0.941   2.048   5.381  1.2503  0.2349 -1.2451
   11DOPE  H15S 1362   0.873   1.887   5.397  1.1918 -3.1824 -0.5522
   11DOPE  C216 1363   0.945   1.925   5.205  0.0284 -0.1219  0.1295
   11DOPE  H16R 1364   0.840   1.944   5.174 -0.0179  0.1549  0.4549
   11DOPE  H16S 1365   0.988   1.824   5.192  1.0403  0.1898  0.9066
   11DOPE  C217 1366   1.022   2.034   5.131 -0.4322  0.1967 -0.8880
   11DOPE  H17R 1367   1.132   2.030   5.126 -0.3970  1.4125 -1.4954
   11DOPE  H17S 1368   1.000   2.125   5.190  3.1935  0.9743 -0.5033
   11DOPE  C218 1369   0.982   2.064   4.988 -0.3535  0.0114  0.1064
   11DOPE  H18R 1370   0.873   2.049   4.978 -0.6307 -0.7952  3.3398
   11DOPE  H18S 1371   1.044   1.991   4.931  0.0368 -0.6990  1.4111
   11DOPE  H18T 1372   1.013   2.166   4.955 -3.2708  1.2721  0.9672
   11DOPE   C33 1373   0.966   2.455   6.227  0.4490 -0.1485 -0.4022
   11DOPE   H3X 1374   0.960   2.530   6.309 -1.3406 -0.0874 -0.5536
   11DOPE   H3Y 1375   0.860   2.426   6.211  0.4371 -0.3578  0.0249
   11DOPE   C34 1376   1.005   2.539   6.105 -0.2950  0.1067 -0.2573
   11DOPE   H4X 1377   1.022   2.465   6.024 -1.5179 -1.2597  0.6643
   11DOPE   H4Y 1378   0.918   2.608   6.098  0.5266  1.2170  0.2538
   11DOPE   C35 1379   1.130   2.618   6.126 -0.2627 -0.2180  0.0929
   11DOPE   H5X 1380   1.221   2.554   6.119  0.0896  0.4294 -2.3379
   11DOPE   H5Y 1381   1.117   2.653   6.231  1.1122  1.2690 -0.1923
   11DOPE   C36 1382   1.142   2.739   6.038  0.0955  0.2021 -0.3043
   11DOPE   H6X 1383   1.229   2.803   6.062 -2.2625  3.3301  0.5077
   11DOPE   H6Y 1384   1.057   2.808   6.057 -0.1287 -0.2982  0.5584
   11DOPE   C37 1385   1.136   2.705   5.888 -0.0804  0.0998 -0.3407
   11DOPE   H7X 1386   1.207   2.625   5.857 -0.2033 -0.3357  0.4605
   11DOPE   H7Y 1387   1.028   2.680   5.873 -0.3042 -0.2234  1.5705
   11DOPE   C38 1388   1.160   2.826   5.800  0.1157 -0.1783  0.8693
   11DOPE   H8X 1389   1.267   2.854   5.799  0.6713 -2.0132 -1.3722
   11DOPE   H8Y 1390   1.114   2.917   5.843 -0.2338 -0.6442  1.5013
   11DOPE   C39 1391   1.117   2.802   5.655 -0.3439  0.4184  0.1863
   11DOPE   H9X 1392   1.013   2.779   5.631 -0.2236  1.3791 -1.3830
   11DOPE  C310 1393   1.202   2.815   5.550  0.9232 -0.3249  0.4178
   11DOPE  H10X 1394   1.149   2.799   5.455  0.8991 -0.7402  0.4990
   11DOPE  C311 1395   1.344   2.851   5.543  0.2593 -0.2030  0.5221
   11DOPE  H11X 1396   1.359   2.961   5.551  0.7926 -0.2838  0.6125
   11DOPE  H11Y 1397   1.412   2.813   5.622 -0.8493  0.3280  1.7735
   11DOPE  C312 1398   1.403   2.828   5.406 -0.1694  0.1360 -0.7643
   11DOPE  H12X 1399   1.449   2.728   5.399 -0.8641 -0.3246  0.9067
   11DOPE  H12Y 1400   1.489   2.899   5.407 -0.6055  0.6605  0.1406
   11DOPE  C313 1401   1.325   2.859   5.282 -0.2398 -0.3109  1.0560
   11DOPE  H13X 1402   1.242   2.788   5.264 -0.1380 -0.4431  1.1104
   11DOPE  H13Y 1403   1.286   2.963   5.289  2.7320  0.8748  1.5244
   11DOPE  C314 1404   1.416   2.852   5.155 -0.6309  0.0987 -0.5061
   11DOPE  H14X 1405   1.475   2.759   5.167  0.4735  0.9228  0.7753
   11DOPE  H14Y 1406   1.493   2.932   5.160  0.0103 -0.3483 -2.4354
   11DOPE  C315 1407   1.338   2.851   5.025 -0.4284 -0.6278  0.1741
   11DOPE  H15X 1408   1.244   2.795   5.043  0.7169 -3.5621 -2.0830
   11DOPE  H15Y 1409   1.388   2.790   4.947 -0.3304  0.0959 -0.3418
   11DOPE  C316 1410   1.296   2.988   4.959 -0.0150  0.5657 -0.9675
   11DOPE  H16X 1411   1.380   3.060   4.945 -0.4487  1.0038 -1.3438
   11DOPE  H16Y 1412   1.221   3.044   5.019  1.0638  1.6696 -0.6090
   11DOPE  C317 1413   1.224   2.974   4.829 -0.1205 -0.2034 -0.3041
   11DOPE  H17X 1414   1.182   3.072   4.799 -1.4317 -0.9553 -1.0434
   11DOPE  H17Y 1415   1.304   2.956   4.754 -0.9569 -0.7173 -1.1066
   11DOPE  C318 1416   1.111   2.880   4.816  0.0437 -0.5023  0.2288
   11DOPE  H18X 1417   1.029   2.916   4.881  0.0671 -0.5821  0.3025
   11DOPE  H18Y 1418   1.082   2.873   4.709  2.9342 -0.5504 -0.6386
   11DOPE  H18Z 1419   1.135   2.780   4.858 -1.4736 -0.8067  0.4283
   12DOPE     N 1420   2.740   6.867   6.785  0.3374  0.1649 -0.3197
   12DOPE   HN1 1421   2.667   6.858   6.859  0.3673 -4.6133 -0.5236
   12DOPE   HN2 1422   2.819   6.803   6.810  1.3072  1.7847  0.9910
   12DOPE   HN3 1423   2.768   6.967   6.779  0.3686  0.0769 -1.9746
   12DOPE   C12 1424   2.669   6.820   6.659 -0.3214  0.0731  0.0247
   12DOPE  H12A 1425   2.741   6.806   6.576 -0.1685 -1.1757  0.3429
   12DOPE  H12B 1426   2.598   6.896   6.620  0.2089 -0.4613 -2.0986
   12DOPE   C11 1427   2.615   6.676   6.675  0.1182 -0.3971  0.6200
   12DOPE  H11A 1428   2.594   6.629   6.576 -2.6491  0.8401  0.5278
   12DOPE  H11B 1429   2.521   6.678   6.734 -0.3706 -1.1708 -0.0940
   12DOPE     P 1430   2.710   6.462   6.804 -0.6584 -0.0139  0.1085
   12DOPE   O13 1431   2.573   6.412   6.815 -0.0394 -0.4129  0.1395
   12DOPE   O14 1432   2.782   6.465   6.933 -0.2338 -0.0756  0.8634
   12DOPE   O11 1433   2.781   6.361   6.710  0.4884  0.2461  0.4885
   12DOPE   O12 1434   2.714   6.608   6.742 -0.2914 -0.2863 -0.6067
   12DOPE    C1 1435   2.912   6.389   6.649  0.1943 -0.4158 -0.2385
   12DOPE    HA 1436   2.971   6.297   6.625  0.7010  0.1185 -1.1008
   12DOPE    HB 1437   2.970   6.456   6.715  0.9769 -0.2894 -1.0339
   12DOPE    C2 1438   2.885   6.450   6.502 -0.3442  0.1513 -0.5405
   12DOPE    HS 1439   2.866   6.558   6.516  3.6458  1.1122 -1.3506
   12DOPE   O21 1440   2.774   6.377   6.441  0.3122 -0.5631 -0.2472
   12DOPE   C21 1441   2.685   6.456   6.371  0.4597  0.5002 -0.5438
   12DOPE   O22 1442   2.701   6.576   6.342  0.5353  0.5710 -0.4455
   12DOPE   C22 1443   2.573   6.365   6.325 -0.1022  0.8186  0.6044
   12DOPE   H2R 1444   2.481   6.387   6.383 -1.0041 -1.8178  0.2813
   12DOPE   H2S 1445   2.612   6.263   6.342  0.3753  0.9492  0.3145
   12DOPE    C3 1446   3.019   6.442   6.422  0.0302  0.0763 -0.0189
   12DOPE    HX 1447   3.034   6.332   6.423 -0.7927 -0.0913 -1.8900
   12DOPE    HY 1448   3.098   6.499   6.475 -0.5702  1.0611 -0.1729
   12DOPE   O31 1449   2.984   6.489   6.290  0.0957  0.6725 -0.1456
   12DOPE   C31 1450   3.087   6.478   6.208 -0.1714 -0.0397 -0.2026
   12DOPE   O32 1451   3.200   6.454   6.240 -0.4031  0.2872 -0.0098
   12DOPE   C32 1452   3.029   6.496   6.072 -0.1741 -0.0796  0.7729
   12DOPE   H2X 1453   3.085   6.559   5.999 -0.8008 -1.6216 -1.1360
   12DOPE   H2Y 1454   3.033   6.395   6.025  1.0985  0.6207 -0.7147
   12DOPE   C23 1455   2.534   6.392   6.172 -0.2138  0.9305 -0.5987
   12DOPE   H3R 1456   2.613   6.355   6.104  2.1321  2.2640  1.2762
   12DOPE   H3S 1457   2.514   6.500   6.159 -1.2477  0.9555  0.9458
   12DOPE   C24 1458   2.401   6.327   6.147  0.1069 -0.2295 -0.1015
   12DOPE   H4R 1459   2.334   6.341   6.234  0.6054  1.3234  0.0618
   12DOPE   H4S 1460   2.410   6.218   6.126 -3.3085 -0.5501 -0.4047
   12DOPE   C25 1461   2.324   6.393   6.032 -0.0063 -0.6312 -0.1529
   12DOPE   H5R 1462   2.344   6.502   6.018  1.1208 -0.8476 -0.3215
   12DOPE   H5S 1463   2.214   6.377   6.041  0.1006 -1.1978  0.1293
   12DOPE   C26 1464   2.367   6.333   5.894 -0.7266 -0.0631 -0.6473
   12DOPE   H6R 1465   2.312   6.236   5.886 -2.2391  0.7890 -0.8923
   12DOPE   H6S 1466   2.477   6.316   5.892 -0.5331  1.1304 -1.3961
   12DOPE   C27 1467   2.344   6.427   5.779  0.7824 -1.1398  0.4798
   12DOPE   H7R 1468   2.398   6.393   5.688 -0.6952 -0.4265 -0.7182
   12DOPE   H7S 1469   2.388   6.524   5.812 -1.9636  0.3346  0.1343
   12DOPE   C28 1470   2.194   6.455   5.734  0.7886 -0.1994 -0.4163
   12DOPE   H8R 1471   2.195   6.538   5.661  2.0758  1.1182  1.0169
   12DOPE   H8S 1472   2.142   6.483   5.828 -0.1595 -0.2486 -0.9181
   12DOPE   C29 1473   2.133   6.325   5.685  0.2750  0.3473  0.3598
   12DOPE   H9R 1474   2.099   6.249   5.757  0.3779 -0.5997 -0.5767
   12DOPE  C210 1475   2.142   6.298   5.550 -0.4713 -0.2170 -0.5577
   12DOPE  H10R 1476   2.095   6.208   5.507 -3.4862  0.3295  1.2808
   12DOPE  C211 1477   2.201   6.387   5.443 -0.5105 -0.3034  0.5408
   12DOPE  H11R 1478   2.296   6.437   5.467  0.6393 -1.3130 -1.5907
   12DOPE  H11S 1479   2.127   6.468   5.425  0.8539  0.9882  0.6173
   12DOPE  C212 1480   2.226   6.320   5.312  0.1509  0.4358  0.3524
   12DOPE  H12R 1481   2.265   6.218   5.330  1.2386  0.4018 -1.8598
   12DOPE  H12S 1482   2.300   6.372   5.247  0.3659 -2.2815 -1.7643
   12DOPE  C213 1483   2.102   6.301   5.226  0.2314  0.4200 -0.0557
   12DOPE  H13R 1484   2.077   6.398   5.179  0.9524  0.1053 -1.1269
   12DOPE  H13S 1485   2.017   6.287   5.296  0.6587  0.6141  0.5073
   12DOPE  C214 1486   2.114   6.193   5.119 -0.4015  0.1525 -0.2729
   12DOPE  H14R 1487   2.104   6.088   5.156 -1.7668 -0.5947 -2.5457
   12DOPE  H14S 1488   2.214   6.209   5.073 -0.7587  2.3665 -0.3459
   12DOPE  C215 1489   2.006   6.223   5.014 -0.4743 -0.7521  0.5758
   12DOPE  H15R 1490   2.016   6.324   4.969  1.4930 -1.3190 -0.3797
   12DOPE  H15S 1491   1.908   6.214   5.066 -0.1361 -2.4910  0.9798
   12DOPE  C216 1492   2.018   6.120   4.899  0.1562 -0.5372  0.3966
   12DOPE  H16R 1493   2.013   6.018   4.942  2.0189 -0.0390  1.9185
   12DOPE  H16S 1494   2.116   6.137   4.850 -0.1567  0.9217  0.2444
   12DOPE  C217 1495   1.912   6.134   4.792  0.1066  0.0378  0.2109
   12DOPE  H17R 1496   1.815   6.120   4.843  0.4186 -0.2442  0.7369
   12DOPE  H17S 1497   1.919   6.060   4.710  0.3037  0.0876  0.1821
   12DOPE  C218 1498   1.913   6.269   4.728 -0.0150  0.7018 -0.2347
   12DOPE  H18R 1499   2.014   6.305   4.698  2.5919 -4.6658  0.7624
   12DOPE  H18S 1500   1.872   6.346   4.797  0.1896  1.8459 -1.3544
   12DOPE  H18T 1501   1.861   6.266   4.631  2.9380  0.2361 -1.9225
   12DOPE   C33 1502   2.887   6.563   6.060  0.1839 -0.4637  0.3367
   12DOPE   H3X 1503   2.890   6.664   6.106 -0.6829 -0.4731  0.4283
   12DOPE   H3Y 1504   2.800   6.509   6.104 -1.2681 -0.7618 -2.6598
   12DOPE   C34 1505   2.861   6.578   5.905  0.0585 -0.2643 -0.1810
   12DOPE   H4X 1506   2.935   6.652   5.869 -1.0936 -0.2633 -2.7079
   12DOPE   H4Y 1507   2.882   6.482   5.853  2.5905  0.6224 -0.9425
   12DOPE   C35 1508   2.720   6.627   5.863  0.3188  0.1361  0.2779
   12DOPE   H5X 1509   2.673   6.691   5.941  0.9059  2.0011 -0.8325
   12DOPE   H5Y 1510   2.656   6.536   5.857 -2.7623  2.1953 -0.0318
   12DOPE   C36 1511   2.708   6.693   5.726 -0.2959  1.1237 -0.2691
   12DOPE   H6X 1512   2.758   6.793   5.731 -0.3539  1.1850 -0.8197
   12DOPE   H6Y 1513   2.600   6.717   5.715 -1.2088 -2.1413  0.6644
   12DOPE   C37 1514   2.762   6.606   5.619  0.1753 -0.8311  0.1401
   12DOPE   H7X 1515   2.873   6.608   5.624  0.2249  2.5041 -0.1685
   12DOPE   H7Y 1516   2.717   6.505   5.633 -1.5314 -0.2213 -0.6243
   12DOPE   C38 1517   2.717   6.667   5.483  0.4400  0.4879  0.5483
   12DOPE   H8X 1518   2.767   6.615   5.398 -1.2997 -1.8285  0.8285
   12DOPE   H8Y 1519   2.754   6.771   5.475 -0.3876  0.7606  0.1484
   12DOPE   C39 1520   2.568   6.660   5.460  0.1998  0.1612 -0.6182
   12DOPE   H9X 1521   2.524   6.572   5.510  0.1675 -0.2849 -1.4183
   12DOPE  C310 1522   2.495   6.757   5.406  0.8244 -0.5042 -0.1592
   12DOPE  H10X 1523   2.385   6.751   5.402  0.9540 -3.0006 -2.0772
   12DOPE  C311 1524   2.556   6.884   5.357  0.1363 -0.7049  0.0323
   12DOPE  H11X 1525   2.667   6.881   5.347 -0.0308  0.1820 -2.9620
   12DOPE  H11Y 1526   2.518   6.910   5.256 -0.4341  1.0732  0.6747
   12DOPE  C312 1527   2.523   7.004   5.450 -0.8675 -0.0767  0.4786
   12DOPE  H12X 1528   2.417   7.026   5.472 -1.2904 -0.8872 -0.6313
   12DOPE  H12Y 1529   2.558   7.094   5.395 -1.1988 -0.5307 -0.4939
   12DOPE  C313 1530   2.597   7.001   5.585 -0.7168  0.7487  0.0896
   12DOPE  H13X 1531   2.540   6.923   5.640 -1.8674 -0.0330 -2.0931
   12DOPE  H13Y 1532   2.702   6.969   5.569 -0.9521 -0.3744  0.6867
   12DOPE  C314 1533   2.592   7.133   5.654 -0.5226  0.4589 -0.5103
   12DOPE  H14X 1534   2.489   7.174   5.651 -0.7943  0.3175  2.9964
   12DOPE  H14Y 1535   2.666   7.201   5.608  1.5717 -1.1610  0.2912
   12DOPE  C315 1536   2.623   7.109   5.807  0.1565  0.1586 -0.1502
   12DOPE  H15X 1537   2.724   7.064   5.817 -0.3222 -0.9280  0.0698
   12DOPE  H15Y 1538   2.549   7.036   5.847 -0.9504  0.8764 -0.8122
   12DOPE  C316 1539   2.608   7.239   5.897 -0.0564  0.6932  0.5991
   12DOPE  H16X 1540   2.511   7.282   5.863  0.2145  0.4603 -0.5035
   12DOPE  H16Y 1541   2.689   7.312   5.873 -0.2336  1.5744  2.5356
   12DOPE  C317 1542   2.606   7.201   6.048  0.0578  0.0757  0.7600
   12DOPE  H17X 1543   2.609   7.299   6.100 -1.7303  0.2686  0.5429
   12DOPE  H17Y 1544   2.521   7.139   6.086 -0.0592 -0.1294  0.1699
   12DOPE  C318 1545   2.733   7.125   6.083 -0.9470 -0.0338  0.1469
   12DOPE  H18X 1546   2.822   7.161   6.027 -0.8852  0.5061  0.5734
   12DOPE  H18Y 1547   2.747   7.130   6.193 -1.8027  1.7648  0.2198
   12DOPE  H18Z 1548   2.720   7.023   6.043 -1.1633 -0.1846  0.5971
   13DOPE     N 1549   2.303   0.168   6.947  0.0723  0.5051  0.2248
   13DOPE   HN1 1550   2.247   0.178   6.860 -1.7076  0.7274  1.3416
   13DOPE   HN2 1551   2.405   0.174   6.927 -0.3481  1.7489 -1.7772
   13DOPE   HN3 1552   2.287   0.073   6.988 -0.9180  1.0466  1.1431
   13DOPE   C12 1553   2.267   0.275   7.037 -0.0611  0.3860  0.1165
   13DOPE  H12A 1554   2.303   0.254   7.140  2.1504 -1.8480 -0.9919
   13DOPE  H12B 1555   2.158   0.288   7.023 -1.1335 -4.1904  2.1884
   13DOPE   C11 1556   2.355   0.396   6.996  0.0278  0.2384  0.6742
   13DOPE  H11A 1557   2.323   0.480   7.061 -1.8078  0.0308  0.1063
   13DOPE  H11B 1558   2.326   0.432   6.894 -1.9711 -0.2840  1.0051
   13DOPE     P 1559   2.599   0.486   7.028 -0.2042  0.1457 -0.4083
   13DOPE   O13 1560   2.731   0.419   7.030 -0.4070  0.4691 -0.5273
   13DOPE   O14 1561   2.575   0.564   7.150  0.0593 -0.3524  0.3445
   13DOPE   O11 1562   2.580   0.578   6.897 -0.4544  0.2660 -0.4308
   13DOPE   O12 1563   2.492   0.369   7.010  0.4494  0.3633 -0.1256
   13DOPE    C1 1564   2.601   0.723   6.904 -0.3466 -0.2832  0.0286
   13DOPE    HA 1565   2.649   0.762   6.996 -0.5857  2.3204 -0.8772
   13DOPE    HB 1566   2.499   0.769   6.907  0.7940  2.3948  1.5672
   13DOPE    C2 1567   2.688   0.761   6.773 -0.0832  0.0809  0.0567
   13DOPE    HS 1568   2.679   0.872   6.764 -0.3793  0.2460  1.9095
   13DOPE   O21 1569   2.653   0.688   6.658 -0.0390  0.2306 -0.3055
   13DOPE   C21 1570   2.529   0.700   6.616 -0.2629  0.5312 -0.1338
   13DOPE   O22 1571   2.448   0.787   6.650  0.7958 -0.2280  0.0819
   13DOPE   C22 1572   2.505   0.603   6.506 -0.0511 -0.7350  0.9920
   13DOPE   H2R 1573   2.404   0.617   6.462  0.8975  1.9630 -0.6269
   13DOPE   H2S 1574   2.518   0.505   6.557  3.8806 -1.4412 -0.9431
   13DOPE    C3 1575   2.841   0.736   6.812  1.0172 -0.4072  0.0290
   13DOPE    HX 1576   2.851   0.630   6.846 -2.7271 -1.4338 -1.5957
   13DOPE    HY 1577   2.877   0.805   6.892 -0.7899  0.1829  0.3808
   13DOPE   O31 1578   2.924   0.756   6.704 -0.0452 -0.5266  0.7072
   13DOPE   C31 1579   2.945   0.668   6.613  0.3413  0.9247 -0.1782
   13DOPE   O32 1580   2.903   0.554   6.627 -0.8338 -0.2167 -0.3052
   13DOPE   C32 1581   3.011   0.728   6.491 -0.0650 -0.5907  0.7141
   13DOPE   H2X 1582   2.951   0.814   6.454  0.5336 -0.6514 -0.4505
   13DOPE   H2Y 1583   3.105   0.772   6.530 -0.9179  1.1138  0.9285
   13DOPE   C23 1584   2.615   0.598   6.392  0.2654 -0.0332 -0.4367
   13DOPE   H3R 1585   2.611   0.506   6.330 -0.4222 -0.9372  0.9046
   13DOPE   H3S 1586   2.710   0.585   6.449 -0.5051  2.3397  1.5511
   13DOPE   C24 1587   2.620   0.730   6.306  0.7398  0.2857 -0.2681
   13DOPE   H4R 1588   2.664   0.811   6.367 -1.8466  2.6727 -1.3747
   13DOPE   H4S 1589   2.516   0.754   6.274  0.7120  1.3322  0.5744
   13DOPE   C25 1590   2.703   0.716   6.179  0.4614  0.3962  0.2511
   13DOPE   H5R 1591   2.802   0.674   6.205 -0.3611 -2.1047 -0.3734
   13DOPE   H5S 1592   2.715   0.816   6.133 -0.0396  1.6982  2.7981
   13DOPE   C26 1593   2.639   0.617   6.071  0.3458 -0.2733 -0.0319
   13DOPE   H6R 1594   2.582   0.537   6.121 -1.2051  0.5139 -0.4863
   13DOPE   H6S 1595   2.727   0.574   6.018  0.9781  0.4748  0.3756
   13DOPE   C27 1596   2.549   0.703   5.964 -0.0330  0.4140 -0.0591
   13DOPE   H7R 1597   2.477   0.758   6.029 -0.8808  2.0872 -2.2752
   13DOPE   H7S 1598   2.502   0.625   5.900 -0.9210 -0.2371  1.3257
   13DOPE   C28 1599   2.623   0.802   5.876  0.1891 -0.1826  0.6863
   13DOPE   H8R 1600   2.659   0.895   5.924 -0.7105  1.5734 -1.8495
   13DOPE   H8S 1601   2.547   0.849   5.810  1.0800  1.1034  0.5382
   13DOPE   C29 1602   2.741   0.741   5.805  0.4783 -0.3814  0.3529
   13DOPE   H9R 1603   2.827   0.729   5.872  0.0304 -0.5232  0.9115
   13DOPE  C210 1604   2.741   0.726   5.670 -0.5662 -0.2902 -0.7866
   13DOPE  H10R 1605   2.828   0.677   5.622  1.3280  0.7225  1.4388
   13DOPE  C211 1606   2.637   0.759   5.570 -0.4278 -0.7502  0.2472
   13DOPE  H11R 1607   2.681   0.768   5.469  1.5736 -0.9981  1.0473
   13DOPE  H11S 1608   2.580   0.853   5.590 -0.8009 -0.3074 -2.4934
   13DOPE  C212 1609   2.532   0.639   5.549  0.3319 -0.3168  0.7557
   13DOPE  H12R 1610   2.479   0.631   5.646  0.5703  0.5155  0.9595
   13DOPE  H12S 1611   2.573   0.540   5.518 -0.7273 -0.8479  0.9759
   13DOPE  C213 1612   2.426   0.666   5.441  0.1316 -0.3157  0.6060
   13DOPE  H13R 1613   2.402   0.773   5.459 -0.2653 -0.4719  1.0105
   13DOPE  H13S 1614   2.337   0.610   5.477  0.5052  0.2508  2.5297
   13DOPE  C214 1615   2.471   0.645   5.300  0.1485  0.1888  0.2563
   13DOPE  H14R 1616   2.444   0.540   5.274 -1.9363  0.8131 -0.2914
   13DOPE  H14S 1617   2.578   0.665   5.275 -0.3849  1.8726 -0.8968
   13DOPE  C215 1618   2.406   0.742   5.197  0.2795  0.0746  0.9073
   13DOPE  H15R 1619   2.431   0.848   5.222  2.3527 -0.3171  0.6247
   13DOPE  H15S 1620   2.297   0.745   5.220 -0.0599  3.5427 -0.4571
   13DOPE  C216 1621   2.402   0.688   5.051  0.1396 -0.3496  0.4347
   13DOPE  H16R 1622   2.340   0.750   4.983 -0.2059 -2.2949 -1.1142
   13DOPE  H16S 1623   2.363   0.584   5.058  0.4356 -0.3711  2.2619
   13DOPE  C217 1624   2.545   0.676   4.978  0.6355 -0.1135  0.0302
   13DOPE  H17R 1625   2.622   0.643   5.051  0.5745 -0.8958 -0.2444
   13DOPE  H17S 1626   2.575   0.778   4.945  0.5478 -0.4239 -1.0574
   13DOPE  C218 1627   2.542   0.589   4.857  0.4293  0.4359  0.6682
   13DOPE  H18R 1628   2.465   0.623   4.785  1.3973  1.0096 -0.1340
   13DOPE  H18S 1629   2.528   0.480   4.872 -0.7499  0.1539 -1.8995
   13DOPE  H18T 1630   2.638   0.612   4.805 -0.6224  1.2797 -0.9775
   13DOPE   C33 1631   3.053   0.620   6.386 -0.4119 -0.2846  0.4478
   13DOPE   H3X 1632   2.962   0.623   6.323 -0.2336 -0.8020  0.1558
   13DOPE   H3Y 1633   3.078   0.521   6.430  1.6710 -0.1161 -0.2339
   13DOPE   C34 1634   3.171   0.654   6.290 -0.7120  0.0869  0.0707
   13DOPE   H4X 1635   3.173   0.764   6.281  0.0160  0.1523  0.9358
   13DOPE   H4Y 1636   3.267   0.631   6.341  0.3738  3.8551 -0.0060
   13DOPE   C35 1637   3.166   0.585   6.150  0.4382 -0.5861 -0.5878
   13DOPE   H5X 1638   3.060   0.592   6.117  0.6969 -0.4079 -1.4056
   13DOPE   H5Y 1639   3.191   0.476   6.149  2.2879 -0.1940 -1.4274
   13DOPE   C36 1640   3.246   0.665   6.046  0.0525 -0.5664 -0.7125
   13DOPE   H6X 1641   3.352   0.635   6.058  0.4634  1.1729  0.3833
   13DOPE   H6Y 1642   3.242   0.772   6.077  0.2443 -0.4332 -1.1566
   13DOPE   C37 1643   3.208   0.642   5.900  0.3351 -0.6009  1.1189
   13DOPE   H7X 1644   3.218   0.537   5.865  2.2908  0.0144 -0.3649
   13DOPE   H7Y 1645   3.104   0.676   5.882  0.5476 -1.1752 -1.6137
   13DOPE   C38 1646   3.293   0.729   5.798 -0.5820 -0.6237  0.1858
   13DOPE   H8X 1647   3.394   0.684   5.811 -0.0941  0.6143  0.9474
   13DOPE   H8Y 1648   3.306   0.830   5.843 -1.2118 -0.7345  0.6271
   13DOPE   C39 1649   3.238   0.744   5.656 -0.6469 -0.5757 -0.2191
   13DOPE   H9X 1650   3.230   0.849   5.622  1.7408 -0.0981  0.4842
   13DOPE  C310 1651   3.210   0.659   5.559 -0.2403 -0.3020 -0.4771
   13DOPE  H10X 1652   3.183   0.701   5.461  1.2060  0.6325 -0.5051
   13DOPE  C311 1653   3.225   0.506   5.566  0.2841 -0.0645 -0.2662
   13DOPE  H11X 1654   3.334   0.482   5.566  0.5897  1.2393  0.4790
   13DOPE  H11Y 1655   3.168   0.475   5.656  0.4249  0.0922 -0.1229
   13DOPE  C312 1656   3.165   0.433   5.445 -0.2277 -0.2553 -0.0203
   13DOPE  H12X 1657   3.071   0.482   5.412  0.6124  1.4845  0.0495
   13DOPE  H12Y 1658   3.140   0.329   5.475  1.4776 -0.3333  1.3109
   13DOPE  C313 1659   3.254   0.445   5.323  0.3513 -0.8213  1.0245
   13DOPE  H13X 1660   3.271   0.553   5.300 -1.4214 -0.6199  0.4621
   13DOPE  H13Y 1661   3.352   0.401   5.351  0.5185  0.7890  3.1932
   13DOPE  C314 1662   3.209   0.371   5.198 -0.0200  0.2168  0.1776
   13DOPE  H14X 1663   3.291   0.399   5.129  2.3263  1.2882  3.1600
   13DOPE  H14Y 1664   3.111   0.410   5.164 -0.5437 -0.8184  0.4574
   13DOPE  C315 1665   3.216   0.216   5.212 -0.8324 -0.7897 -0.6160
   13DOPE  H15X 1666   3.170   0.194   5.311  0.2900 -1.4491 -0.2263
   13DOPE  H15Y 1667   3.320   0.182   5.236 -0.0815  1.9696  0.4576
   13DOPE  C316 1668   3.153   0.134   5.092  0.6706  0.2085 -0.3760
   13DOPE  H16X 1669   3.206   0.149   4.995 -1.2889  0.5765 -1.4428
   13DOPE  H16Y 1670   3.056   0.179   5.063  0.7573  0.7470  0.1522
   13DOPE  C317 1671   3.151  -0.017   5.131  0.0356 -0.0036 -0.0277
   13DOPE  H17X 1672   3.217  -0.033   5.220  1.9647  0.5593 -1.2930
   13DOPE  H17Y 1673   3.049  -0.039   5.168  0.0370  0.2336  0.1200
   13DOPE  C318 1674   3.192  -0.117   5.025 -0.0845  0.7830 -0.4151
   13DOPE  H18X 1675   3.169  -0.224   5.042 -2.3178  0.9241 -2.0196
   13DOPE  H18Y 1676   3.156  -0.085   4.925  2.1034  1.6554 -0.9785
   13DOPE  H18Z 1677   3.302  -0.107   5.028 -0.2437  2.9835  0.6851
   14DOPE     N 1678   6.476   5.796   7.134  0.0050 -0.1059  0.5207
   14DOPE   HN1 1679   6.537   5.726   7.087 -1.0350  0.1098 -1.2209
   14DOPE   HN2 1680   6.434   5.861   7.065 -1.3399  0.6989  2.0261
   14DOPE   HN3 1681   6.533   5.856   7.196 -1.5461  2.1190 -0.1047
   14DOPE   C12 1682   6.364   5.712   7.194  0.6450 -0.5255  0.0386
   14DOPE  H12A 1683   6.309   5.778   7.265 -0.7842 -2.0118  0.3926
   14DOPE  H12B 1684   6.400   5.625   7.252  0.9400 -1.0507 -0.9071
   14DOPE   C11 1685   6.274   5.657   7.084 -0.3593 -0.1933  0.2329
   14DOPE  H11A 1686   6.329   5.597   7.008  0.0176  1.6055 -0.9856
   14DOPE  H11B 1687   6.227   5.747   7.037  0.0883  0.4307  0.9501
   14DOPE     P 1688   6.174   5.424   7.156  0.0300 -0.2837 -0.2671
   14DOPE   O13 1689   6.038   5.370   7.182 -0.1212 -0.3444  0.1414
   14DOPE   O14 1690   6.289   5.388   7.247  0.0039 -0.8434 -0.2912
   14DOPE   O11 1691   6.219   5.384   7.010 -0.5567  0.1808 -0.1719
   14DOPE   O12 1692   6.169   5.581   7.147  0.0322  0.3400  0.8988
   14DOPE    C1 1693   6.146   5.296   6.932  0.1768  0.0958  0.9364
   14DOPE    HA 1694   6.036   5.302   6.946  0.1906  0.7998  0.8168
   14DOPE    HB 1695   6.181   5.191   6.939 -0.2315 -0.1223 -0.0859
   14DOPE    C2 1696   6.151   5.350   6.785 -0.8408  0.1280 -0.5201
   14DOPE    HS 1697   6.113   5.455   6.781  0.4975  0.7017  0.8453
   14DOPE   O21 1698   6.084   5.262   6.702  0.8605  0.3020  0.3035
   14DOPE   C21 1699   5.947   5.279   6.697  0.0941  0.4588 -0.0853
   14DOPE   O22 1700   5.887   5.367   6.759 -0.1332  0.4045 -0.6603
   14DOPE   C22 1701   5.891   5.165   6.611  0.5609  0.4083  0.0841
   14DOPE   H2R 1702   5.856   5.085   6.679  0.5915 -0.4064 -0.8308
   14DOPE   H2S 1703   5.980   5.121   6.562 -0.1114 -0.1516 -0.6621
   14DOPE    C3 1704   6.297   5.350   6.731  1.0435 -0.3571 -0.0763
   14DOPE    HX 1705   6.346   5.251   6.738  0.2384 -0.7954 -0.5542
   14DOPE    HY 1706   6.369   5.410   6.790  1.7183 -1.1160 -0.1142
   14DOPE   O31 1707   6.302   5.408   6.597 -0.6004 -0.0491  0.0408
   14DOPE   C31 1708   6.314   5.327   6.499  0.2006  0.5400  0.2602
   14DOPE   O32 1709   6.312   5.203   6.489 -0.1206  0.0676  0.4864
   14DOPE   C32 1710   6.345   5.419   6.378 -0.0498 -0.5069 -0.3450
   14DOPE   H2X 1711   6.278   5.507   6.391  0.8741  0.4276 -1.7490
   14DOPE   H2Y 1712   6.452   5.448   6.382 -0.9313  3.3896 -0.8117
   14DOPE   C23 1713   5.785   5.198   6.507 -0.3859 -0.5852 -0.1886
   14DOPE   H3R 1714   5.705   5.259   6.553  1.6974  0.6102  2.0675
   14DOPE   H3S 1715   5.742   5.108   6.457  2.6929 -1.0860 -2.2969
   14DOPE   C24 1716   5.846   5.274   6.384 -0.9424  0.0893  0.0290
   14DOPE   H4R 1717   5.907   5.195   6.335  0.4671  1.3464 -0.3168
   14DOPE   H4S 1718   5.911   5.360   6.411  0.5914 -1.2956  0.9168
   14DOPE   C25 1719   5.734   5.317   6.289  0.7912 -0.3079  0.5010
   14DOPE   H5R 1720   5.655   5.369   6.346  0.2354 -0.8056  0.1935
   14DOPE   H5S 1721   5.686   5.227   6.245  1.8696  0.6797 -3.0265
   14DOPE   C26 1722   5.788   5.406   6.175  0.1161  0.1422  0.4337
   14DOPE   H6R 1723   5.867   5.471   6.218 -0.4606  0.7632  0.5728
   14DOPE   H6S 1724   5.703   5.473   6.148  1.0280  1.7201  1.3080
   14DOPE   C27 1725   5.854   5.325   6.061 -0.1051  0.1957 -0.7502
   14DOPE   H7R 1726   5.784   5.240   6.041 -0.3443 -0.3478  2.0470
   14DOPE   H7S 1727   5.942   5.270   6.101  0.3341  2.3951  1.5072
   14DOPE   C28 1728   5.909   5.414   5.950  0.8884  0.4581  0.1392
   14DOPE   H8R 1729   5.957   5.358   5.867  0.8015 -0.2450  0.5485
   14DOPE   H8S 1730   5.985   5.489   5.980  1.6429  0.6011 -1.9672
   14DOPE   C29 1731   5.808   5.490   5.874  0.5188 -0.0670  0.2477
   14DOPE   H9R 1732   5.779   5.589   5.911  2.6591  0.8944 -0.5094
   14DOPE  C210 1733   5.748   5.445   5.761  0.6186  0.6530 -0.1003
   14DOPE  H10R 1734   5.673   5.514   5.721  0.0394  1.3587  2.0592
   14DOPE  C211 1735   5.769   5.318   5.691  0.8074  0.5005 -0.0159
   14DOPE  H11R 1736   5.778   5.227   5.754 -3.0980 -1.8727 -2.4701
   14DOPE  H11S 1737   5.863   5.325   5.633  0.2826  1.4545 -0.7781
   14DOPE  C212 1738   5.652   5.295   5.596  0.1515 -0.2553 -0.7510
   14DOPE  H12R 1739   5.666   5.379   5.525  2.7896 -1.4308 -1.7388
   14DOPE  H12S 1740   5.564   5.305   5.663 -0.2189 -0.5494 -1.1847
   14DOPE  C213 1741   5.658   5.163   5.514 -0.4571 -0.4096 -0.8638
   14DOPE  H13R 1742   5.650   5.078   5.586  1.0369  0.8277  0.8591
   14DOPE  H13S 1743   5.759   5.161   5.468 -0.4314 -1.8717 -0.7935
   14DOPE  C214 1744   5.556   5.159   5.393 -0.6332 -0.0213  0.1020
   14DOPE  H14R 1745   5.459   5.146   5.446 -0.4965 -0.5642  0.2254
   14DOPE  H14S 1746   5.593   5.071   5.336  1.5856  0.8034  0.1757
   14DOPE  C215 1747   5.551   5.281   5.300  0.6893 -0.1989 -0.5012
   14DOPE  H15R 1748   5.527   5.373   5.357  2.0920 -0.0954 -0.0470
   14DOPE  H15S 1749   5.469   5.259   5.228  0.5985 -0.0274 -0.4516
   14DOPE  C216 1750   5.680   5.294   5.225  0.2821 -0.6681  0.2067
   14DOPE  H16R 1751   5.677   5.207   5.156 -0.2414 -1.3477  1.0544
   14DOPE  H16S 1752   5.770   5.275   5.288 -0.1307 -0.4535  0.8747
   14DOPE  C217 1753   5.698   5.423   5.142 -0.0357 -0.1743 -0.4011
   14DOPE  H17R 1754   5.607   5.439   5.081  1.3423 -1.6400 -3.0246
   14DOPE  H17S 1755   5.778   5.408   5.066  1.2228  0.8832  0.6715
   14DOPE  C218 1756   5.729   5.540   5.235  0.0875  0.1083 -0.4413
   14DOPE  H18R 1757   5.753   5.625   5.167 -0.6167  3.8220  3.4612
   14DOPE  H18S 1758   5.824   5.514   5.287  1.0797  1.7612 -1.3256
   14DOPE  H18T 1759   5.643   5.563   5.302 -1.0883 -1.7645 -1.2375
   14DOPE   C33 1760   6.319   5.352   6.240 -0.1152  0.7286  0.2174
   14DOPE   H3X 1761   6.210   5.330   6.243  0.2292 -1.3734  3.6307
   14DOPE   H3Y 1762   6.368   5.253   6.224 -2.3417 -0.2644 -0.9995
   14DOPE   C34 1763   6.362   5.426   6.115 -0.0308 -0.3981  0.0746
   14DOPE   H4X 1764   6.293   5.511   6.098  0.1989 -0.1874  0.1881
   14DOPE   H4Y 1765   6.466   5.461   6.135 -0.5546  1.3142 -0.1242
   14DOPE   C35 1766   6.350   5.348   5.979 -0.5540 -0.1003 -0.6743
   14DOPE   H5X 1767   6.249   5.302   5.983 -1.1424  1.1619 -0.6495
   14DOPE   H5Y 1768   6.427   5.268   5.974  0.3585  0.8244 -4.0346
   14DOPE   C36 1769   6.365   5.432   5.850 -0.0091 -0.2094 -0.6029
   14DOPE   H6X 1770   6.433   5.386   5.774 -0.2442  1.2695 -1.7607
   14DOPE   H6Y 1771   6.403   5.535   5.870 -0.6044 -0.0062 -0.5116
   14DOPE   C37 1772   6.226   5.453   5.797  0.3751 -0.0566 -0.4855
   14DOPE   H7X 1773   6.180   5.354   5.773 -0.1912  0.1417 -0.2276
   14DOPE   H7Y 1774   6.169   5.504   5.878  0.4138 -0.5240 -0.1573
   14DOPE   C38 1775   6.215   5.539   5.668  0.3744  0.3942 -0.5685
   14DOPE   H8X 1776   6.262   5.640   5.677  1.1180  0.0717 -0.7848
   14DOPE   H8Y 1777   6.105   5.555   5.661  0.2723  0.8484  1.4473
   14DOPE   C39 1778   6.274   5.462   5.547 -0.5430 -0.5487 -0.0044
   14DOPE   H9X 1779   6.369   5.411   5.570 -1.0138 -0.9526  1.0843
   14DOPE  C310 1780   6.229   5.445   5.420 -0.0642  0.5782 -0.4599
   14DOPE  H10X 1781   6.284   5.370   5.362  1.4615  1.6151 -0.4329
   14DOPE  C311 1782   6.099   5.494   5.366 -0.5689 -0.0003  0.5691
   14DOPE  H11X 1783   6.038   5.405   5.342 -0.5032 -0.6194  2.5213
   14DOPE  H11Y 1784   6.035   5.538   5.445 -1.6091 -1.8316  0.7829
   14DOPE  C312 1785   6.116   5.597   5.258 -0.0299 -0.4411  1.0552
   14DOPE  H12X 1786   6.190   5.674   5.287 -0.6192  0.5498 -0.0086
   14DOPE  H12Y 1787   6.023   5.644   5.221  2.1446  1.0318 -3.0760
   14DOPE  C313 1788   6.178   5.546   5.115 -0.1575 -0.7242  0.3625
   14DOPE  H13X 1789   6.283   5.514   5.133  0.0733 -1.6774 -2.2502
   14DOPE  H13Y 1790   6.116   5.457   5.090 -0.0356 -0.5888 -0.4297
   14DOPE  C314 1791   6.163   5.647   5.006  0.0352 -0.1048  0.1238
   14DOPE  H14X 1792   6.228   5.732   5.033  1.2665 -0.7710 -0.6518
   14DOPE  H14Y 1793   6.057   5.680   4.995  0.6966  1.6293 -1.4624
   14DOPE  C315 1794   6.217   5.587   4.874 -0.2275  0.3252 -0.0265
   14DOPE  H15X 1795   6.226   5.670   4.800  0.3779  1.6736  1.5141
   14DOPE  H15Y 1796   6.140   5.520   4.828 -0.8608 -0.8894  2.6439
   14DOPE  C316 1797   6.339   5.494   4.881 -0.0939  0.2591  0.2584
   14DOPE  H16X 1798   6.319   5.396   4.929  2.1841 -0.2301  0.3375
   14DOPE  H16Y 1799   6.419   5.544   4.941  0.3713 -1.2309  0.9306
   14DOPE  C317 1800   6.392   5.451   4.740 -0.5323  0.4753  0.0778
   14DOPE  H17X 1801   6.310   5.398   4.687 -0.3222  1.0109 -0.8051
   14DOPE  H17Y 1802   6.414   5.536   4.672  2.0719 -1.3684 -1.6111
   14DOPE  C318 1803   6.526   5.370   4.754  0.1429 -0.2894  0.8541
   14DOPE  H18X 1804   6.528   5.300   4.840 -0.2112 -2.2124 -0.6210
   14DOPE  H18Y 1805   6.557   5.297   4.676  1.3936  0.1648  0.9035
   14DOPE  H18Z 1806   6.613   5.439   4.758 -0.5149  0.7878 -1.5144
   15DOPE     N 1807   7.488   1.543   7.120  0.0888 -0.3349 -0.7110
   15DOPE   HN1 1808   7.430   1.600   7.055 -1.0389 -0.6833 -0.0346
   15DOPE   HN2 1809   7.534   1.469   7.062 -0.1125 -0.3334 -0.8717
   15DOPE   HN3 1810   7.434   1.510   7.202  0.1209  1.2452 -0.0273
   15DOPE   C12 1811   7.599   1.643   7.171  0.8152 -0.4558 -0.0573
   15DOPE  H12A 1812   7.683   1.574   7.195  1.4955 -0.2504 -1.7008
   15DOPE  H12B 1813   7.562   1.695   7.262  2.1855 -0.4565  0.5285
   15DOPE   C11 1814   7.638   1.744   7.060 -0.3126  0.4579 -0.2301
   15DOPE  H11A 1815   7.718   1.807   7.104 -0.1295  0.5348 -0.6688
   15DOPE  H11B 1816   7.539   1.784   7.030 -0.5374 -0.5498 -0.9139
   15DOPE     P 1817   7.829   1.677   6.887  0.1709  0.2088  0.1759
   15DOPE   O13 1818   7.820   1.577   6.782  0.0357  0.7622  0.0555
   15DOPE   O14 1819   7.931   1.663   6.993 -0.0847 -0.5262  0.2451
   15DOPE   O11 1820   7.818   1.826   6.830 -0.4983 -0.0865  0.3282
   15DOPE   O12 1821   7.685   1.665   6.956 -0.4381  0.4336  0.5761
   15DOPE    C1 1822   7.699   1.869   6.759  0.3058  0.1664  0.6893
   15DOPE    HA 1823   7.702   1.980   6.767  2.5747  0.1157  1.3388
   15DOPE    HB 1824   7.611   1.824   6.809  0.9811 -1.5941  0.3641
   15DOPE    C2 1825   7.701   1.827   6.605 -0.1503  0.2076  0.1250
   15DOPE    HS 1826   7.710   1.717   6.598  2.1649  0.4202 -1.2788
   15DOPE   O21 1827   7.815   1.885   6.542 -0.0522 -0.1676 -0.2884
   15DOPE   C21 1828   7.902   1.806   6.488 -0.2010  0.8511 -0.5180
   15DOPE   O22 1829   7.893   1.685   6.463  0.4332  0.6439  0.0671
   15DOPE   C22 1830   8.031   1.881   6.458 -0.5517  0.2098  0.0642
   15DOPE   H2R 1831   8.118   1.829   6.504 -1.2960 -0.2218  1.0249
   15DOPE   H2S 1832   8.026   1.982   6.503  0.6484 -0.1801  1.1397
   15DOPE    C3 1833   7.564   1.859   6.540 -0.3271  0.0595 -0.2092
   15DOPE    HX 1834   7.551   1.966   6.569 -2.5035 -0.3027  0.3171
   15DOPE    HY 1835   7.480   1.805   6.587 -0.3925  0.0624 -0.3212
   15DOPE   O31 1836   7.567   1.854   6.402  0.1486  0.2583  0.3941
   15DOPE   C31 1837   7.534   1.732   6.349  0.7028 -0.2181  0.4239
   15DOPE   O32 1838   7.497   1.633   6.410 -0.2067 -0.1676  0.1081
   15DOPE   C32 1839   7.537   1.754   6.197 -0.7008  0.5794 -0.1998
   15DOPE   H2X 1840   7.445   1.700   6.167 -0.4981 -0.9634  1.7671
   15DOPE   H2Y 1841   7.515   1.862   6.179  0.3252  1.4249  2.9896
   15DOPE   C23 1842   8.054   1.892   6.305 -0.6898 -1.1398 -0.1690
   15DOPE   H3R 1843   7.977   1.952   6.252  0.1768 -1.1947 -1.5510
   15DOPE   H3S 1844   8.043   1.789   6.264 -1.9183 -0.0864 -2.7820
   15DOPE   C24 1845   8.193   1.950   6.267  0.0552  0.2863  0.9409
   15DOPE   H4R 1846   8.276   1.888   6.308 -1.1929  0.0414  3.2739
   15DOPE   H4S 1847   8.205   2.044   6.325 -0.2591  1.3821 -0.6985
   15DOPE   C25 1848   8.224   1.963   6.117  0.1255  0.3115  0.1388
   15DOPE   H5R 1849   8.322   2.015   6.111  0.5858 -0.7002 -1.6150
   15DOPE   H5S 1850   8.133   2.015   6.079 -1.7307 -0.4761  3.1486
   15DOPE   C26 1851   8.241   1.826   6.052  0.6182  0.7757 -0.1746
   15DOPE   H6R 1852   8.142   1.778   6.069  0.7681  0.2949 -0.6395
   15DOPE   H6S 1853   8.327   1.778   6.103  0.9750  0.5504 -0.9858
   15DOPE   C27 1854   8.277   1.831   5.910 -0.4460 -0.2935 -0.3175
   15DOPE   H7R 1855   8.380   1.871   5.896  0.6464 -2.8491 -0.1621
   15DOPE   H7S 1856   8.214   1.907   5.860 -1.5315 -1.0050 -0.0590
   15DOPE   C28 1857   8.269   1.698   5.838 -0.0424  0.2443  0.6327
   15DOPE   H8R 1858   8.166   1.662   5.857 -0.6826  2.0620  0.8589
   15DOPE   H8S 1859   8.336   1.619   5.879 -0.3694  0.3183  1.3136
   15DOPE   C29 1860   8.284   1.709   5.684 -0.1251  0.7089 -0.6910
   15DOPE   H9R 1861   8.190   1.740   5.637  0.3036  1.6272 -0.9605
   15DOPE  C210 1862   8.390   1.688   5.608 -0.1362  0.4724 -0.7755
   15DOPE  H10R 1863   8.371   1.694   5.500 -0.5252 -1.7762 -0.8799
   15DOPE  C211 1864   8.531   1.643   5.661 -0.0804 -0.1273 -0.3865
   15DOPE  H11R 1865   8.557   1.702   5.752 -0.0805 -0.6846 -0.0205
   15DOPE  H11S 1866   8.606   1.684   5.589  0.6116 -1.3738 -0.3907
   15DOPE  C212 1867   8.553   1.493   5.675 -0.6109  0.3682 -0.3506
   15DOPE  H12R 1868   8.464   1.446   5.721  2.1389 -4.0528  1.0305
   15DOPE  H12S 1869   8.647   1.483   5.734 -0.0719  0.1481 -1.2264
   15DOPE  C213 1870   8.575   1.429   5.536  0.1376  0.4780  0.2193
   15DOPE  H13R 1871   8.492   1.466   5.473  1.2297  1.4109 -0.7170
   15DOPE  H13S 1872   8.548   1.322   5.534 -2.3840  1.0771 -1.4442
   15DOPE  C214 1873   8.710   1.457   5.464  0.8042 -0.3818  0.1851
   15DOPE  H14R 1874   8.714   1.567   5.446 -0.7518 -0.7240 -2.8758
   15DOPE  H14S 1875   8.705   1.410   5.363  2.2859 -0.7146  0.2499
   15DOPE  C215 1876   8.829   1.413   5.553 -0.0290  0.5931  0.8626
   15DOPE  H15R 1877   8.829   1.314   5.604  0.0333  1.1574  2.0080
   15DOPE  H15S 1878   8.827   1.482   5.640 -2.8349  0.7155  0.8085
   15DOPE  C216 1879   8.963   1.448   5.483 -0.7178 -0.0837  0.3205
   15DOPE  H16R 1880   9.040   1.446   5.563  1.8929 -0.7693 -2.0742
   15DOPE  H16S 1881   8.958   1.552   5.443  2.0802 -0.1785 -0.4224
   15DOPE  C217 1882   9.014   1.341   5.384 -0.7347  0.0723  0.1831
   15DOPE  H17R 1883   8.958   1.316   5.291 -2.8215 -1.9213  1.8477
   15DOPE  H17S 1884   9.022   1.245   5.439  1.7986  0.9252  1.4408
   15DOPE  C218 1885   9.157   1.381   5.349  0.7090 -0.7110 -0.1379
   15DOPE  H18R 1886   9.150   1.474   5.290 -1.9373 -0.8788 -0.2084
   15DOPE  H18S 1887   9.204   1.318   5.271  0.3277  1.0247 -1.8115
   15DOPE  H18T 1888   9.224   1.392   5.437  1.2135 -0.7234 -0.5156
   15DOPE   C33 1889   7.665   1.700   6.131 -0.5508  0.2373  0.1661
   15DOPE   H3X 1890   7.671   1.590   6.142  0.8988  0.3780  1.1007
   15DOPE   H3Y 1891   7.746   1.740   6.195 -0.4650 -1.2331  1.0172
   15DOPE   C34 1892   7.686   1.741   5.987  0.4828  0.6226  0.0198
   15DOPE   H4X 1893   7.615   1.687   5.922  0.7709 -0.5815  0.6754
   15DOPE   H4Y 1894   7.672   1.851   5.985 -0.4730  0.5453  1.3727
   15DOPE   C35 1895   7.835   1.697   5.934  0.0999 -0.6614  0.0895
   15DOPE   H5X 1896   7.827   1.588   5.952 -2.6131 -0.4595  0.5405
   15DOPE   H5Y 1897   7.905   1.744   6.007  0.4226 -1.2598  0.1669
   15DOPE   C36 1898   7.858   1.726   5.792  0.6975 -0.1867  0.5816
   15DOPE   H6X 1899   7.764   1.727   5.734  0.8367  1.3654  0.3295
   15DOPE   H6Y 1900   7.919   1.643   5.750  3.3300  1.9960 -0.2235
   15DOPE   C37 1901   7.922   1.861   5.770 -0.4524 -0.3585  0.7778
   15DOPE   H7X 1902   7.854   1.938   5.811 -0.1006  1.0808 -1.1967
   15DOPE   H7Y 1903   8.021   1.874   5.821  0.5992 -1.3021 -0.9264
   15DOPE   C38 1904   7.935   1.900   5.617 -0.4054  0.1224 -0.6980
   15DOPE   H8X 1905   7.837   1.887   5.567 -0.2070  0.4051 -1.1711
   15DOPE   H8Y 1906   8.007   1.825   5.578 -1.2600 -1.4319  0.6274
   15DOPE   C39 1907   7.982   2.039   5.588  0.1399  0.1902  0.5574
   15DOPE   H9X 1908   8.090   2.045   5.568 -0.3034  0.9475 -1.9573
   15DOPE  C310 1909   7.911   2.149   5.580 -0.1835  0.1923 -0.7868
   15DOPE  H10X 1910   7.964   2.237   5.540  0.3265 -0.8072 -2.3977
   15DOPE  C311 1911   7.770   2.175   5.607  0.3111  0.2018 -0.0588
   15DOPE  H11X 1912   7.716   2.233   5.529  0.0905 -1.1742 -0.9649
   15DOPE  H11Y 1913   7.722   2.074   5.612  2.9014 -1.0500  1.4136
   15DOPE  C312 1914   7.741   2.250   5.740  0.4506  0.6014  0.3115
   15DOPE  H12X 1915   7.632   2.270   5.740  0.2711 -0.3219  0.6650
   15DOPE  H12Y 1916   7.796   2.345   5.754  0.0775  0.6566  1.4994
   15DOPE  C313 1917   7.773   2.171   5.870  0.4977 -0.4634 -0.3755
   15DOPE  H13X 1918   7.714   2.077   5.866  1.5130 -1.0723 -2.3717
   15DOPE  H13Y 1919   7.881   2.149   5.889  0.3437 -0.7779  0.1776
   15DOPE  C314 1920   7.733   2.250   5.997 -0.0036 -0.1451  0.7882
   15DOPE  H14X 1921   7.629   2.282   5.973 -0.0913 -0.7483  0.3542
   15DOPE  H14Y 1922   7.791   2.345   5.992 -0.8129  0.3060 -2.3117
   15DOPE  C315 1923   7.745   2.176   6.125 -0.5962 -0.5873 -0.2472
   15DOPE  H15X 1924   7.845   2.129   6.136 -0.5917 -0.3971  0.5215
   15DOPE  H15Y 1925   7.670   2.094   6.116 -0.2260 -0.7812 -1.9738
   15DOPE  C316 1926   7.718   2.257   6.254  0.0643 -0.1977  0.2796
   15DOPE  H16X 1927   7.607   2.259   6.265 -0.0465 -1.0797 -0.5946
   15DOPE  H16Y 1928   7.748   2.362   6.234 -0.3265 -0.2026 -0.3674
   15DOPE  C317 1929   7.790   2.200   6.381  0.9307  0.5958 -0.0153
   15DOPE  H17X 1930   7.752   2.260   6.466  1.7771  0.4438  0.4881
   15DOPE  H17Y 1931   7.775   2.090   6.385 -3.0613  1.0063 -0.0451
   15DOPE  C318 1932   7.950   2.225   6.393  0.7063 -0.0444  0.2596
   15DOPE  H18X 1933   7.970   2.335   6.390  0.0219  0.0653 -2.2712
   15DOPE  H18Y 1934   7.978   2.180   6.491 -0.1505 -1.7165 -0.2357
   15DOPE  H18Z 1935   8.000   2.173   6.309 -1.9510 -2.0480 -0.1917
   16DOPE     N 1936   7.288   3.026   7.076 -0.7488  0.2760 -0.6049
   16DOPE   HN1 1937   7.274   2.944   7.139 -0.2179  1.3569  0.9721
   16DOPE   HN2 1938   7.372   3.079   7.106 -0.1855  0.5084 -2.4461
   16DOPE   HN3 1939   7.205   3.087   7.092 -1.1494  0.0625 -1.7734
   16DOPE   C12 1940   7.289   2.995   6.930  0.4338 -0.1544  0.1424
   16DOPE  H12A 1941   7.181   2.992   6.905 -0.2246  4.1208  1.6039
   16DOPE  H12B 1942   7.336   2.896   6.914 -2.0706 -1.2476 -0.9649
   16DOPE   C11 1943   7.357   3.100   6.839 -0.2028  0.1146 -1.0509
   16DOPE  H11A 1944   7.325   3.206   6.850  0.0224  0.2188 -1.3702
   16DOPE  H11B 1945   7.332   3.075   6.733 -1.6737 -1.6979 -0.3377
   16DOPE     P 1946   7.607   3.013   6.783  0.4290 -0.6181 -0.0933
   16DOPE   O13 1947   7.577   2.870   6.796  0.4426  0.0720  0.4589
   16DOPE   O14 1948   7.737   3.058   6.830  0.6393 -0.0918  0.3365
   16DOPE   O11 1949   7.581   3.062   6.631 -0.6216  0.5137  0.0150
   16DOPE   O12 1950   7.493   3.090   6.863 -0.9438 -0.1945  0.4328
   16DOPE    C1 1951   7.690   3.120   6.565  0.5411 -0.1551 -0.2918
   16DOPE    HA 1952   7.664   3.086   6.462 -3.7282 -1.6871  1.0954
   16DOPE    HB 1953   7.789   3.080   6.593  1.1031 -0.1207 -2.0640
   16DOPE    C2 1954   7.693   3.273   6.568 -0.4109  0.2480 -0.2064
   16DOPE    HS 1955   7.737   3.312   6.662 -0.2054  0.3915 -0.3594
   16DOPE   O21 1956   7.567   3.332   6.527 -0.3387 -0.1318  0.2770
   16DOPE   C21 1957   7.486   3.371   6.626 -0.7611  0.5239 -0.2857
   16DOPE   O22 1958   7.519   3.367   6.745  0.1228 -0.5061  0.7757
   16DOPE   C22 1959   7.350   3.391   6.566 -0.4141 -0.5198  0.9463
   16DOPE   H2R 1960   7.282   3.404   6.653 -1.9845 -0.6102 -0.2098
   16DOPE   H2S 1961   7.313   3.309   6.501  0.2640  0.0439 -0.1808
   16DOPE    C3 1962   7.794   3.308   6.461 -0.9723 -1.1889  0.0972
   16DOPE    HX 1963   7.891   3.266   6.496 -0.1096  0.8301  0.2402
   16DOPE    HY 1964   7.820   3.415   6.470  0.1551 -1.5125  0.7572
   16DOPE   O31 1965   7.763   3.266   6.323 -0.3575 -0.4030  0.0061
   16DOPE   C31 1966   7.867   3.286   6.241  0.0917 -0.1923  0.0508
   16DOPE   O32 1967   7.969   3.350   6.272  0.3633 -0.1581  0.0061
   16DOPE   C32 1968   7.842   3.212   6.110 -0.1651  0.3748  0.0753
   16DOPE   H2X 1969   7.786   3.118   6.130  1.3080 -0.6203 -0.2797
   16DOPE   H2Y 1970   7.768   3.275   6.056 -0.7657 -1.2259 -1.0254
   16DOPE   C23 1971   7.339   3.514   6.473 -0.2504 -0.3023 -0.1806
   16DOPE   H3R 1972   7.393   3.483   6.381 -0.8003 -0.9074 -0.3065
   16DOPE   H3S 1973   7.384   3.606   6.516 -1.2196  0.4464 -0.7144
   16DOPE   C24 1974   7.195   3.566   6.447  0.2677  0.3157 -0.2278
   16DOPE   H4R 1975   7.151   3.594   6.545 -0.6728 -1.3490 -0.1377
   16DOPE   H4S 1976   7.131   3.480   6.419 -0.1254 -0.0035  1.5380
   16DOPE   C25 1977   7.190   3.681   6.342 -0.2871  0.2395 -0.5837
   16DOPE   H5R 1978   7.234   3.640   6.249 -0.4225  0.6918 -0.8471
   16DOPE   H5S 1979   7.250   3.770   6.373 -0.7726  0.0794  0.8946
   16DOPE   C26 1980   7.050   3.734   6.311  0.0719 -0.1595  0.8714
   16DOPE   H6R 1981   7.059   3.831   6.258 -2.2309 -0.0663  0.5634
   16DOPE   H6S 1982   7.002   3.759   6.407  1.2952  1.5817  1.0809
   16DOPE   C27 1983   6.964   3.653   6.216 -0.6902  0.4833 -0.2647
   16DOPE   H7R 1984   6.956   3.557   6.271  2.5304  1.6459  2.5921
   16DOPE   H7S 1985   7.003   3.629   6.115  1.7781  0.3388  0.6496
   16DOPE   C28 1986   6.819   3.711   6.193 -0.4513 -0.3591  0.2474
   16DOPE   H8R 1987   6.768   3.732   6.290 -1.9837 -2.3326 -0.0734
   16DOPE   H8S 1988   6.757   3.627   6.156 -1.0115 -1.1674  2.8348
   16DOPE   C29 1989   6.817   3.827   6.098  0.5655 -0.1733 -0.2254
   16DOPE   H9R 1990   6.897   3.900   6.118  0.3916 -0.4704  1.7801
   16DOPE  C210 1991   6.731   3.847   5.994  0.4795 -0.6375 -0.0542
   16DOPE  H10R 1992   6.742   3.932   5.925 -0.1778 -0.3563  0.1784
   16DOPE  C211 1993   6.627   3.746   5.955  0.4477  1.0110 -0.2501
   16DOPE  H11R 1994   6.539   3.797   5.911 -1.0959  0.5610  2.1449
   16DOPE  H11S 1995   6.572   3.704   6.042  1.8595 -1.0187 -0.2585
   16DOPE  C212 1996   6.672   3.633   5.855  0.7292 -0.2414  0.4491
   16DOPE  H12R 1997   6.596   3.553   5.859  0.8489 -0.4015 -0.4347
   16DOPE  H12S 1998   6.763   3.579   5.888  1.0750 -1.4689 -2.2908
   16DOPE  C213 1999   6.686   3.676   5.707  0.6752 -0.2134  0.5002
   16DOPE  H13R 2000   6.761   3.758   5.716 -0.1621  0.5101  1.0865
   16DOPE  H13S 2001   6.583   3.710   5.683  0.9695  0.6783  0.4554
   16DOPE  C214 2002   6.736   3.577   5.602  0.2349  0.3137  0.4502
   16DOPE  H14R 2003   6.660   3.496   5.608  0.3368  0.3157  2.9503
   16DOPE  H14S 2004   6.824   3.521   5.641 -0.2835 -0.2606  0.8263
   16DOPE  C215 2005   6.745   3.626   5.451 -0.3591 -0.2431 -0.4827
   16DOPE  H15R 2006   6.642   3.638   5.411 -0.6471  1.2188  0.6022
   16DOPE  H15S 2007   6.801   3.545   5.400 -0.4574 -1.0474  0.6371
   16DOPE  C216 2008   6.828   3.758   5.440  0.0342  0.0633 -1.3455
   16DOPE  H16R 2009   6.910   3.754   5.514 -0.2817  0.1215 -0.9869
   16DOPE  H16S 2010   6.771   3.852   5.462 -1.3338 -0.2421 -3.2842
   16DOPE  C217 2011   6.895   3.770   5.299 -0.6866 -0.5999 -0.3308
   16DOPE  H17R 2012   6.803   3.774   5.237 -0.9030 -0.6820 -0.0148
   16DOPE  H17S 2013   6.958   3.684   5.269  1.9122  1.1401 -0.1440
   16DOPE  C218 2014   6.965   3.903   5.278  0.2766 -0.1785  0.0011
   16DOPE  H18R 2015   7.068   3.898   5.320  0.2424 -1.7363 -0.0360
   16DOPE  H18S 2016   6.920   3.992   5.325  0.7730 -0.5858  1.2804
   16DOPE  H18T 2017   6.973   3.929   5.170 -1.6906  1.4251  0.1800
   16DOPE   C33 2018   7.965   3.160   6.032 -0.1601 -0.6485 -0.2783
   16DOPE   H3X 2019   8.004   3.084   6.103  2.0559  0.4707 -0.2030
   16DOPE   H3Y 2020   8.051   3.231   6.022  0.5354 -1.3926  0.2783
   16DOPE   C34 2021   7.926   3.107   5.893 -0.3946  0.2412 -0.2202
   16DOPE   H4X 2022   8.012   3.054   5.847 -0.4172 -1.3082  1.3987
   16DOPE   H4Y 2023   7.846   3.030   5.905  0.1402 -0.2318  0.3591
   16DOPE   C35 2024   7.872   3.220   5.797  0.4546  0.1124 -0.0948
   16DOPE   H5X 2025   7.951   3.298   5.791  0.6438 -0.1807 -1.6931
   16DOPE   H5Y 2026   7.779   3.264   5.839  0.8920  0.2959  0.7096
   16DOPE   C36 2027   7.841   3.184   5.654 -0.1711 -0.9191  0.8907
   16DOPE   H6X 2028   7.784   3.274   5.622 -0.7625 -0.2326  3.6257
   16DOPE   H6Y 2029   7.784   3.089   5.656 -0.4471 -0.8144 -0.6942
   16DOPE   C37 2030   7.974   3.166   5.567 -0.1869 -0.2765  0.1604
   16DOPE   H7X 2031   8.007   3.257   5.513  1.5707  0.3792  2.2071
   16DOPE   H7Y 2032   8.058   3.145   5.636 -0.1458  0.1606  0.2515
   16DOPE   C38 2033   7.963   3.049   5.463 -0.2622 -0.2293  0.2964
   16DOPE   H8X 2034   7.882   3.064   5.388  1.6977 -1.6701 -2.2967
   16DOPE   H8Y 2035   7.946   2.949   5.509  1.8682 -0.8727 -0.1909
   16DOPE   C39 2036   8.086   3.036   5.377  0.2830 -0.5130 -0.2722
   16DOPE   H9X 2037   8.159   2.978   5.434 -1.0298 -0.7437  1.2696
   16DOPE  C310 2038   8.104   3.093   5.261 -0.5365  0.2232  0.2988
   16DOPE  H10X 2039   8.199   3.086   5.206 -1.4931  0.4957 -1.4641
   16DOPE  C311 2040   8.005   3.177   5.183 -0.5842  0.4895  0.3888
   16DOPE  H11X 2041   7.900   3.144   5.198 -0.2727 -0.4976  0.5413
   16DOPE  H11Y 2042   8.022   3.282   5.214  0.7941  0.1176  1.0008
   16DOPE  C312 2043   8.007   3.160   5.027 -0.0016  0.2917 -0.2041
   16DOPE  H12X 2044   8.109   3.159   4.982  0.8311 -1.2523  1.5741
   16DOPE  H12Y 2045   7.964   3.254   4.986 -0.2804 -0.5823 -1.9847
   16DOPE  C313 2046   7.939   3.044   4.978 -0.2287 -0.3683 -0.1526
   16DOPE  H13X 2047   8.000   2.953   4.994 -0.2237 -0.3088  0.1748
   16DOPE  H13Y 2048   7.846   3.022   5.034 -1.2997  0.4425 -1.5698
   16DOPE  C314 2049   7.912   3.043   4.825  0.1975  0.3147 -0.7632
   16DOPE  H14X 2050   7.934   2.942   4.784  0.8922 -1.0251  2.6184
   16DOPE  H14Y 2051   7.989   3.106   4.774  0.7455 -1.8330 -2.7521
   16DOPE  C315 2052   7.769   3.090   4.785 -0.0025  0.0146  0.9254
   16DOPE  H15X 2053   7.739   3.173   4.852 -0.5252  0.6265 -0.0476
   16DOPE  H15Y 2054   7.689   3.014   4.798 -0.2987 -0.1781 -1.5676
   16DOPE  C316 2055   7.757   3.145   4.643 -0.0162  0.7702 -0.6704
   16DOPE  H16X 2056   7.797   3.071   4.571 -0.7708 -0.1712 -0.1537
   16DOPE  H16Y 2057   7.830   3.228   4.647 -0.8309  1.4635  0.3384
   16DOPE  C317 2058   7.619   3.180   4.600 -0.6919  0.8520 -0.1748
   16DOPE  H17X 2059   7.539   3.103   4.598 -1.1608  1.2205  1.9395
   16DOPE  H17Y 2060   7.598   3.268   4.665  2.4548  2.2536 -0.8891
   16DOPE  C318 2061   7.612   3.252   4.462  0.3788 -0.7393 -0.4909
   16DOPE  H18X 2062   7.704   3.314   4.458 -1.7168  2.6487  0.1110
   16DOPE  H18Y 2063   7.609   3.177   4.380 -0.2727 -0.5537 -0.6408
   16DOPE  H18Z 2064   7.527   3.323   4.454  0.4485 -0.5165  0.5333
   17DOPE     N 2065   2.676   7.385   7.146 -0.1010  0.2957  0.5945
   17DOPE   HN1 2066   2.649   7.473   7.099  0.0909 -0.3217 -0.7460
   17DOPE   HN2 2067   2.737   7.402   7.228  0.8592 -1.4692  0.2942
   17DOPE   HN3 2068   2.728   7.345   7.065 -1.6974  0.2699 -0.4709
   17DOPE   C12 2069   2.558   7.294   7.184 -0.0269 -0.0502  0.0944
   17DOPE  H12A 2070   2.474   7.310   7.113  1.1127  0.6557 -1.1486
   17DOPE  H12B 2071   2.519   7.338   7.279  1.1058 -0.6622  0.8643
   17DOPE   C11 2072   2.602   7.151   7.201  0.2538 -0.6009  0.8422
   17DOPE  H11A 2073   2.532   7.124   7.283 -0.9611 -3.4292 -1.0009
   17DOPE  H11B 2074   2.706   7.145   7.241 -0.2506 -0.7793  2.2069
   17DOPE     P 2075   2.512   6.940   7.076 -0.4083  0.3539  0.1332
   17DOPE   O13 2076   2.481   6.891   7.208  0.2162 -0.3066 -0.2317
   17DOPE   O14 2077   2.554   6.843   6.975  0.4492 -1.0610  0.1593
   17DOPE   O11 2078   2.381   6.998   7.018 -0.2008  0.1566  0.1641
   17DOPE   O12 2079   2.602   7.069   7.085  0.0465 -0.0302 -0.4729
   17DOPE    C1 2080   2.357   7.059   6.890  0.5818  0.6414 -0.5670
   17DOPE    HA 2081   2.446   7.105   6.842  0.7085  1.9255  0.8036
   17DOPE    HB 2082   2.268   7.125   6.887 -0.2540 -0.3592  1.0808
   17DOPE    C2 2083   2.308   6.940   6.797 -0.0249 -0.6889 -0.5596
   17DOPE    HS 2084   2.390   6.866   6.788  0.8602 -0.1105  2.0949
   17DOPE   O21 2085   2.281   6.994   6.663  0.1320  0.2183  0.3843
   17DOPE   C21 2086   2.278   6.914   6.560  0.4585 -0.6028  0.2635
   17DOPE   O22 2087   2.307   6.797   6.560 -0.2738  0.2432  0.6908
   17DOPE   C22 2088   2.204   6.987   6.437 -0.4288  0.3811 -0.5815
   17DOPE   H2R 2089   2.251   7.087   6.439  3.2374 -1.0985 -2.8343
   17DOPE   H2S 2090   2.096   7.002   6.457 -0.6513  0.3304 -1.6842
   17DOPE    C3 2091   2.187   6.868   6.865  0.1262  1.4255  0.1422
   17DOPE    HX 2092   2.114   6.942   6.904 -0.7983  1.3774 -1.4317
   17DOPE    HY 2093   2.228   6.804   6.947  0.6169  1.8916  0.2688
   17DOPE   O31 2094   2.095   6.798   6.773  0.2607  0.1928 -0.0459
   17DOPE   C31 2095   2.081   6.663   6.789  0.0680  0.3367  0.0201
   17DOPE   O32 2096   2.133   6.601   6.877  0.4320 -0.5513  0.3570
   17DOPE   C32 2097   1.989   6.606   6.681  0.0005 -0.0110  0.0872
   17DOPE   H2X 2098   1.889   6.643   6.709  0.1167 -0.8397  1.7281
   17DOPE   H2Y 2099   2.015   6.655   6.585  1.8005  0.3565  0.7060
   17DOPE   C23 2100   2.215   6.921   6.302 -0.0095 -0.9610  0.7111
   17DOPE   H3R 2101   2.149   6.977   6.232 -1.3336 -1.0341  1.8647
   17DOPE   H3S 2102   2.174   6.818   6.313 -1.8619 -0.0463  3.3512
   17DOPE   C24 2103   2.357   6.922   6.254 -0.4623  0.0603  0.1244
   17DOPE   H4R 2104   2.428   6.889   6.333  0.3754  2.4492  0.4500
   17DOPE   H4S 2105   2.392   7.027   6.243 -0.5197  0.2269  1.3995
   17DOPE   C25 2106   2.378   6.831   6.131  0.0112  0.3144 -0.6591
   17DOPE   H5R 2107   2.353   6.725   6.151  0.9705 -0.0792 -1.4796
   17DOPE   H5S 2108   2.483   6.840   6.095  0.2821  2.4983  0.4781
   17DOPE   C26 2109   2.288   6.870   6.009  0.4307 -0.5288  0.2560
   17DOPE   H6R 2110   2.302   6.971   5.965 -0.0066 -0.8322 -0.5931
   17DOPE   H6S 2111   2.182   6.867   6.041 -0.1991 -0.4476 -1.7118
   17DOPE   C27 2112   2.333   6.789   5.890 -0.3791 -0.2521  0.5303
   17DOPE   H7R 2113   2.269   6.698   5.894 -1.5693  0.6241  2.7890
   17DOPE   H7S 2114   2.440   6.761   5.897 -0.6641 -1.0083  2.5216
   17DOPE   C28 2115   2.306   6.857   5.756  0.1037  0.3085 -0.3003
   17DOPE   H8R 2116   2.352   6.788   5.682 -0.0498  1.5753 -1.6171
   17DOPE   H8S 2117   2.348   6.960   5.765 -0.2345  0.5413 -1.2899
   17DOPE   C29 2118   2.161   6.858   5.733  0.1853 -0.5221  0.1782
   17DOPE   H9R 2119   2.107   6.768   5.765 -5.1540  1.4318 -2.1426
   17DOPE  C210 2120   2.088   6.954   5.678  0.1816 -0.4492  0.7352
   17DOPE  H10R 2121   1.978   6.956   5.685  0.2893  2.1382  3.4617
   17DOPE  C211 2122   2.154   7.078   5.627  0.2498 -0.1532  0.0313
   17DOPE  H11R 2123   2.122   7.087   5.521  0.5888  3.4511  0.1039
   17DOPE  H11S 2124   2.265   7.071   5.617  0.3846  1.7079 -0.2377
   17DOPE  C212 2125   2.114   7.205   5.704  0.3345  0.2003 -0.2320
   17DOPE  H12R 2126   2.004   7.212   5.722  0.4744 -0.9701  1.2449
   17DOPE  H12S 2127   2.132   7.291   5.636  1.4555 -0.2138 -0.4720
   17DOPE  C213 2128   2.174   7.201   5.846 -0.3278 -0.0532  1.0036
   17DOPE  H13R 2129   2.285   7.194   5.843 -0.3806 -1.3843 -1.9018
   17DOPE  H13S 2130   2.140   7.111   5.901 -0.0471  0.2012  1.5907
   17DOPE  C214 2131   2.130   7.319   5.923  0.1080  0.0264  0.1198
   17DOPE  H14R 2132   2.020   7.325   5.930  0.1116  1.6492 -0.5931
   17DOPE  H14S 2133   2.157   7.415   5.873  0.7666 -0.0518  0.3056
   17DOPE  C215 2134   2.179   7.309   6.068  0.2587  0.0370  0.3509
   17DOPE  H15R 2135   2.289   7.321   6.060  0.2387 -0.4778 -0.9476
   17DOPE  H15S 2136   2.169   7.203   6.101  0.9295 -0.7340 -1.7265
   17DOPE  C216 2137   2.111   7.401   6.165 -0.4105 -0.0028  0.0799
   17DOPE  H16R 2138   2.003   7.376   6.175 -0.2546 -0.6892  0.1142
   17DOPE  H16S 2139   2.109   7.502   6.120 -0.7095  0.3422  0.8518
   17DOPE  C217 2140   2.183   7.412   6.300  0.4242  0.1400 -0.5169
   17DOPE  H17R 2141   2.157   7.323   6.362  1.3435 -0.7592 -1.3883
   17DOPE  H17S 2142   2.141   7.489   6.369 -0.9075 -0.6230 -0.4261
   17DOPE  C218 2143   2.334   7.421   6.293  0.3181  0.1148 -0.2294
   17DOPE  H18R 2144   2.373   7.462   6.389 -0.1402 -3.4373  1.6519
   17DOPE  H18S 2145   2.356   7.494   6.213 -0.6881  0.8523  0.1344
   17DOPE  H18T 2146   2.387   7.328   6.265  1.0860  0.4133  0.2163
   17DOPE   C33 2147   2.009   6.453   6.659  0.2380 -0.8986 -0.2969
   17DOPE   H3X 2148   1.957   6.400   6.742 -0.5478  1.0700  0.5524
   17DOPE   H3Y 2149   2.116   6.423   6.660 -0.2392 -2.8927 -1.9777
   17DOPE   C34 2150   1.948   6.405   6.522  0.1487 -0.1394 -0.1709
   17DOPE   H4X 2151   1.939   6.295   6.530 -1.0528  0.0316  1.5333
   17DOPE   H4Y 2152   1.843   6.442   6.515  0.0272 -0.3870  0.2736
   17DOPE   C35 2153   2.028   6.442   6.396 -0.0306  0.4500  0.1912
   17DOPE   H5X 2154   2.131   6.401   6.391 -0.2058  0.1619 -1.5893
   17DOPE   H5Y 2155   2.036   6.553   6.399 -2.6218  0.7251 -0.8154
   17DOPE   C36 2156   1.956   6.411   6.266  0.0126 -0.2608  0.3922
   17DOPE   H6X 2157   2.014   6.468   6.190  2.3296  0.8627  2.8398
   17DOPE   H6Y 2158   1.851   6.448   6.265  0.1304  0.0846 -0.1054
   17DOPE   C37 2159   1.953   6.262   6.251 -0.5251  0.4391 -0.5419
   17DOPE   H7X 2160   2.057   6.221   6.258 -0.4873  0.3694 -1.3988
   17DOPE   H7Y 2161   1.894   6.221   6.336 -0.3157  0.3138 -0.4554
   17DOPE   C38 2162   1.890   6.205   6.114  0.9090 -0.9206 -0.2515
   17DOPE   H8X 2163   1.925   6.100   6.103 -1.3774 -1.8315  0.4930
   17DOPE   H8Y 2164   1.933   6.258   6.027 -0.6375  0.2144 -0.3623
   17DOPE   C39 2165   1.740   6.219   6.096  0.2551 -0.2101  0.6750
   17DOPE   H9X 2166   1.679   6.297   6.144 -0.1722  2.2489 -3.4176
   17DOPE  C310 2167   1.665   6.134   6.025 -0.2582 -1.5171  0.5595
   17DOPE  H10X 2168   1.562   6.161   6.001  0.7977  0.2985 -2.5073
   17DOPE  C311 2169   1.718   6.012   5.951 -0.0581 -0.9847  0.4945
   17DOPE  H11X 2170   1.829   6.003   5.957  0.1080  1.3814  3.0477
   17DOPE  H11Y 2171   1.661   5.926   5.993 -1.9512  0.0885  0.1931
   17DOPE  C312 2172   1.685   6.000   5.801 -0.0569  0.3638  0.9087
   17DOPE  H12X 2173   1.577   6.015   5.782 -0.2277 -0.8142  0.9223
   17DOPE  H12Y 2174   1.716   5.896   5.780 -0.2184 -0.0604  2.6082
   17DOPE  C313 2175   1.762   6.100   5.714  0.0403 -0.4725  0.7670
   17DOPE  H13X 2176   1.742   6.204   5.748 -2.0524 -0.9442  1.1295
   17DOPE  H13Y 2177   1.870   6.080   5.724  0.1459 -0.3216 -0.0071
   17DOPE  C314 2178   1.726   6.089   5.561  0.8430 -0.2931 -0.7360
   17DOPE  H14X 2179   1.784   6.161   5.499  0.9001  1.1723  0.9517
   17DOPE  H14Y 2180   1.619   6.117   5.550  0.6568  0.0187  1.4239
   17DOPE  C315 2181   1.747   5.945   5.508 -0.2816  0.4063  0.1233
   17DOPE  H15X 2182   1.689   5.872   5.569 -3.0383  1.3022 -1.2099
   17DOPE  H15Y 2183   1.857   5.932   5.515 -0.5233 -0.9976  2.1207
   17DOPE  C316 2184   1.701   5.915   5.364 -0.4240 -0.0176 -0.8001
   17DOPE  H16X 2185   1.592   5.938   5.369 -0.0597  1.6735  0.4265
   17DOPE  H16Y 2186   1.719   5.806   5.349 -1.4360 -0.3627  0.3302
   17DOPE  C317 2187   1.760   6.002   5.251  0.0277  0.0935 -0.0149
   17DOPE  H17X 2188   1.860   6.044   5.271 -0.0150  0.0785  0.2265
   17DOPE  H17Y 2189   1.763   5.935   5.162 -0.4315  0.4484 -0.3087
   17DOPE  C318 2190   1.664   6.110   5.211 -0.4572 -0.3527  0.0792
   17DOPE  H18X 2191   1.704   6.165   5.123 -0.7352 -0.1161  0.1008
   17DOPE  H18Y 2192   1.578   6.047   5.180  0.5818 -1.3210 -0.9484
   17DOPE  H18Z 2193   1.638   6.182   5.291  0.5721 -0.9107  0.9341
   18DOPE     N 2194   0.227   3.643   6.971  0.0161  0.3746 -0.3742
   18DOPE   HN1 2195   0.248   3.736   7.011 -0.9191  0.4868 -0.1360
   18DOPE   HN2 2196   0.181   3.581   7.040  1.5743 -0.4622 -0.0334
   18DOPE   HN3 2197   0.316   3.592   6.953  0.2570  0.6022  0.1628
   18DOPE   C12 2198   0.152   3.663   6.840  0.7734 -0.0681  0.6494
   18DOPE  H12A 2199   0.066   3.731   6.863 -0.5194 -1.7803  1.1082
   18DOPE  H12B 2200   0.124   3.560   6.809  1.0978  0.0405  0.0018
   18DOPE   C11 2201   0.232   3.734   6.728  0.2297 -0.4056 -0.2538
   18DOPE  H11A 2202   0.176   3.721   6.633  1.3299 -1.0631 -0.8398
   18DOPE  H11B 2203   0.328   3.680   6.714  0.5364 -0.2633  1.1881
   18DOPE     P 2204   0.352   3.965   6.688  0.3170 -0.5083  0.1877
   18DOPE   O13 2205   0.483   3.902   6.675  0.7309  0.3334 -0.1521
   18DOPE   O14 2206   0.347   4.099   6.758 -0.1510  0.6054 -0.2612
   18DOPE   O11 2207   0.275   3.983   6.551  0.0858  0.4127  0.5747
   18DOPE   O12 2208   0.246   3.875   6.765 -0.0320  0.0394  0.8325
   18DOPE    C1 2209   0.143   4.047   6.559  0.5053 -0.1895  0.2596
   18DOPE    HA 2210   0.144   4.153   6.594  2.9183 -0.1007  0.0704
   18DOPE    HB 2211   0.074   3.997   6.631  1.7792 -1.2180  0.8062
   18DOPE    C2 2212   0.075   4.057   6.417  0.2306 -0.1525 -0.0834
   18DOPE    HS 2213  -0.033   4.062   6.443  0.4675  1.8073  0.6648
   18DOPE   O21 2214   0.097   3.948   6.331 -0.5860 -0.4425  0.3123
   18DOPE   C21 2215   0.056   3.834   6.376 -0.6887 -0.2883  0.5291
   18DOPE   O22 2216  -0.007   3.816   6.475  0.4942  0.3500  0.5898
   18DOPE   C22 2217   0.115   3.716   6.288  0.4777  0.0292 -0.1272
   18DOPE   H2R 2218   0.063   3.626   6.323  2.2995  0.0481  2.9737
   18DOPE   H2S 2219   0.222   3.704   6.317  0.4649  1.1941  0.4578
   18DOPE    C3 2220   0.125   4.190   6.352  0.0512 -0.2886  0.2174
   18DOPE    HX 2221   0.236   4.184   6.359  0.1902  1.6663  0.3761
   18DOPE    HY 2222   0.101   4.276   6.418 -3.6721  0.7904 -2.2383
   18DOPE   O31 2223   0.078   4.224   6.216 -0.7335 -0.1697 -0.1372
   18DOPE   C31 2224   0.169   4.198   6.120 -0.4922  0.0268  0.7867
   18DOPE   O32 2225   0.286   4.174   6.132 -0.1934  0.2388 -0.1311
   18DOPE   C32 2226   0.103   4.214   5.988 -1.0284 -0.2046  0.2939
   18DOPE   H2X 2227  -0.003   4.247   6.002 -1.4955 -0.4397 -2.2611
   18DOPE   H2Y 2228   0.150   4.297   5.933 -1.0864  0.3184  1.0222
   18DOPE   C23 2229   0.108   3.738   6.137  0.1911  0.1968 -0.1026
   18DOPE   H3R 2230   0.147   3.842   6.125 -0.4775  0.6468  1.4285
   18DOPE   H3S 2231  -0.000   3.734   6.113  0.3313 -1.4934 -0.6037
   18DOPE   C24 2232   0.201   3.651   6.053  0.5413  0.3402 -0.1391
   18DOPE   H4R 2233   0.179   3.542   6.065 -1.5642  0.6081 -1.1166
   18DOPE   H4S 2234   0.300   3.679   6.093  0.0583 -1.5099  2.6310
   18DOPE   C25 2235   0.192   3.686   5.907  0.7814 -0.0358  0.3083
   18DOPE   H5R 2236   0.200   3.797   5.906  2.4717 -0.1162 -1.1219
   18DOPE   H5S 2237   0.090   3.658   5.873 -0.6838  1.7570  2.8730
   18DOPE   C26 2238   0.286   3.617   5.809 -0.5725  0.2001 -0.3542
   18DOPE   H6R 2239   0.269   3.508   5.815  0.8830  0.0221  1.0378
   18DOPE   H6S 2240   0.390   3.630   5.846 -0.2058 -0.7528 -1.0192
   18DOPE   C27 2241   0.270   3.669   5.670  0.1148  0.2356  0.5331
   18DOPE   H7R 2242   0.294   3.777   5.660  0.0336  0.3470  1.5109
   18DOPE   H7S 2243   0.163   3.662   5.643  0.2903 -1.0257  0.0617
   18DOPE   C28 2244   0.356   3.600   5.565 -0.4757 -0.1260  0.2132
   18DOPE   H8R 2245   0.338   3.492   5.582 -1.5840 -0.0054 -0.1194
   18DOPE   H8S 2246   0.466   3.606   5.582 -0.5870 -0.5163  1.1444
   18DOPE   C29 2247   0.312   3.646   5.431 -0.1847  0.1836 -0.3533
   18DOPE   H9R 2248   0.210   3.687   5.428 -0.9915 -1.5718  0.9369
   18DOPE  C210 2249   0.383   3.634   5.317 -0.7920  0.4611 -0.3256
   18DOPE  H10R 2250   0.344   3.670   5.221  2.0895 -0.1400 -1.8501
   18DOPE  C211 2251   0.523   3.571   5.300  0.6018  0.0955  0.2393
   18DOPE  H11R 2252   0.537   3.536   5.196  1.7755 -0.2246  0.4860
   18DOPE  H11S 2253   0.538   3.486   5.370 -0.9482 -0.0035  0.4687
   18DOPE  C212 2254   0.645   3.663   5.335  0.0830  0.4259 -0.4655
   18DOPE  H12R 2255   0.632   3.697   5.440  2.4594  1.2455 -0.3816
   18DOPE  H12S 2256   0.639   3.752   5.269  1.9123  1.0060  0.0853
   18DOPE  C213 2257   0.773   3.594   5.293  0.0207 -0.3079 -0.4425
   18DOPE  H13R 2258   0.761   3.566   5.186 -0.5108 -0.7745 -0.2684
   18DOPE  H13S 2259   0.786   3.494   5.340  2.5770 -0.1500 -0.6941
   18DOPE  C214 2260   0.889   3.686   5.329  0.4486 -0.5464  0.9444
   18DOPE  H14R 2261   0.903   3.692   5.439  3.0415 -1.1506  0.7163
   18DOPE  H14S 2262   0.875   3.789   5.290  3.6398 -0.8429 -1.4366
   18DOPE  C215 2263   1.033   3.648   5.282  0.1156 -0.3672 -0.6781
   18DOPE  H15R 2264   1.066   3.548   5.315  1.3866  0.4466  0.6172
   18DOPE  H15S 2265   1.094   3.730   5.326  0.0162 -0.8700  0.4300
   18DOPE  C216 2266   1.064   3.657   5.128 -0.1324  0.8766  0.6525
   18DOPE  H16R 2267   0.991   3.593   5.074  1.2196  0.7842 -1.1701
   18DOPE  H16S 2268   1.165   3.614   5.109 -0.3815  1.2519 -1.8004
   18DOPE  C217 2269   1.069   3.804   5.075 -0.1347 -0.4611  0.1032
   18DOPE  H17R 2270   1.168   3.837   5.111  1.9771 -1.1929 -4.3153
   18DOPE  H17S 2271   0.992   3.869   5.121  0.8618 -0.0698  1.2726
   18DOPE  C218 2272   1.055   3.816   4.922 -0.3402 -0.1519  1.1494
   18DOPE  H18R 2273   1.159   3.828   4.885 -0.7663 -0.7541 -0.3589
   18DOPE  H18S 2274   0.992   3.901   4.889 -1.6111 -1.6624 -0.5685
   18DOPE  H18T 2275   1.013   3.725   4.873  0.7093 -0.1307  0.1687
   18DOPE   C33 2276   0.108   4.086   5.902 -0.1412 -0.1432  0.3564
   18DOPE   H3X 2277   0.041   4.004   5.935 -0.8295  0.0878 -0.4345
   18DOPE   H3Y 2278   0.211   4.043   5.899 -0.3518 -0.7177  1.2374
   18DOPE   C34 2279   0.075   4.127   5.764  0.4788 -0.1373  0.8356
   18DOPE   H4X 2280  -0.025   4.174   5.760  1.2363  1.4899 -0.4114
   18DOPE   H4Y 2281   0.163   4.177   5.717 -0.2987  0.3138 -0.1795
   18DOPE   C35 2282   0.058   3.998   5.680  0.0998  0.4116  0.5872
   18DOPE   H5X 2283  -0.010   3.928   5.734 -2.3408  1.4697 -0.9664
   18DOPE   H5Y 2284   0.151   3.936   5.682 -2.0200 -3.0656  0.6624
   18DOPE   C36 2285  -0.000   4.023   5.541 -0.3801  0.0577 -0.0128
   18DOPE   H6X 2286   0.066   4.090   5.482  0.9927 -0.8451  0.4463
   18DOPE   H6Y 2287  -0.098   4.072   5.560 -0.2969  0.5638 -0.8327
   18DOPE   C37 2288  -0.012   3.894   5.449 -0.8122 -0.0455 -0.2511
   18DOPE   H7X 2289   0.085   3.889   5.395 -0.4468 -0.5542  0.4398
   18DOPE   H7Y 2290  -0.023   3.812   5.523 -1.0489 -0.5488 -0.8363
   18DOPE   C38 2291  -0.132   3.900   5.365  0.0433 -0.5794  0.0783
   18DOPE   H8X 2292  -0.214   3.937   5.431  2.3533  2.4482  1.5067
   18DOPE   H8Y 2293  -0.153   3.795   5.336  2.6848 -0.8250 -1.2100
   18DOPE   C39 2294  -0.116   3.980   5.237  0.6544  0.0067  0.7228
   18DOPE   H9X 2295  -0.032   3.955   5.170  0.5438 -1.8146  1.2032
   18DOPE  C310 2296  -0.197   4.073   5.185  0.3295 -0.3053  0.4288
   18DOPE  H10X 2297  -0.170   4.102   5.083 -2.2350 -0.2171 -0.2831
   18DOPE  C311 2298  -0.325   4.122   5.247  0.1183 -0.1858  0.3135
   18DOPE  H11X 2299  -0.407   4.076   5.187 -1.4220  0.0549  2.1324
   18DOPE  H11Y 2300  -0.340   4.099   5.355 -1.7494  0.1758  0.1704
   18DOPE  C312 2301  -0.327   4.281   5.206  0.3764 -0.3097 -0.4984
   18DOPE  H12X 2302  -0.262   4.309   5.119  0.4209 -0.9672 -0.6806
   18DOPE  H12Y 2303  -0.292   4.331   5.298 -0.4031 -2.5107  1.0723
   18DOPE  C313 2304  -0.480   4.309   5.177 -0.0530  0.8435 -0.7414
   18DOPE  H13X 2305  -0.504   4.252   5.085  0.5991 -0.6201 -0.0252
   18DOPE  H13Y 2306  -0.544   4.263   5.255  0.0288  0.0769 -1.1215
   18DOPE  C314 2307  -0.509   4.458   5.171  0.4963 -0.4100  0.1460
   18DOPE  H14X 2308  -0.612   4.463   5.130  1.1567  0.9803 -1.4278
   18DOPE  H14Y 2309  -0.448   4.499   5.088 -0.7669 -2.2493 -1.8078
   18DOPE  C315 2310  -0.492   4.532   5.303  0.4270 -0.4529  0.4375
   18DOPE  H15X 2311  -0.511   4.640   5.283  4.9288  0.3203 -0.6873
   18DOPE  H15Y 2312  -0.386   4.512   5.330 -0.4617 -1.1934  3.7322
   18DOPE  C316 2313  -0.586   4.499   5.419  0.3000  0.1934 -0.0856
   18DOPE  H16X 2314  -0.617   4.394   5.436 -1.8024  0.6549 -0.7538
   18DOPE  H16Y 2315  -0.675   4.549   5.375  0.0518 -1.5627 -1.6785
   18DOPE  C317 2316  -0.551   4.568   5.549  0.1435  0.5019 -0.4803
   18DOPE  H17X 2317  -0.462   4.525   5.598  0.6912  0.9710 -1.0445
   18DOPE  H17Y 2318  -0.511   4.668   5.523 -1.4606  1.0767 -0.9021
   18DOPE  C318 2319  -0.673   4.588   5.640  0.7146  0.1401  0.7449
   18DOPE  H18X 2320  -0.645   4.614   5.744  0.1182 -0.5249  1.0825
   18DOPE  H18Y 2321  -0.743   4.665   5.601  0.9798  0.7614  1.4713
   18DOPE  H18Z 2322  -0.737   4.499   5.659  0.1197  0.8019  1.9900
   19DOPE     N 2323   6.066   4.827   6.786 -0.3775 -0.1021  0.6588
   19DOPE   HN1 2324   6.101   4.730   6.771 -0.5224  0.2360 -2.3850
   19DOPE   HN2 2325   5.962   4.826   6.787 -0.3924 -0.9479  2.1965
   19DOPE   HN3 2326   6.104   4.880   6.706 -0.6976  0.2468  0.7374
   19DOPE   C12 2327   6.113   4.876   6.921  0.0628  0.6495  0.3256
   19DOPE  H12A 2328   6.063   4.816   7.000  3.1615 -0.4360  1.6143
   19DOPE  H12B 2329   6.079   4.982   6.921  0.6581  1.0200 -3.9278
   19DOPE   C11 2330   6.269   4.859   6.943 -0.2447  0.1097 -0.4947
   19DOPE  H11A 2331   6.298   4.761   6.900 -0.8763 -0.3628  0.1339
   19DOPE  H11B 2332   6.294   4.839   7.050  0.8312 -1.3731 -0.9891
   19DOPE     P 2333   6.483   4.940   6.814  0.4325 -0.3884  0.4406
   19DOPE   O13 2334   6.553   4.830   6.887  0.0806  0.3291  0.2158
   19DOPE   O14 2335   6.551   5.066   6.786 -0.1575 -0.6188  0.3036
   19DOPE   O11 2336   6.443   4.878   6.671  0.0044 -0.4300  0.0170
   19DOPE   O12 2337   6.346   4.975   6.892  0.6860 -0.0234 -0.2640
   19DOPE    C1 2338   6.534   4.887   6.564 -0.7574 -0.1631 -0.5125
   19DOPE    HA 2339   6.638   4.858   6.593 -0.7170  0.0078 -0.4834
   19DOPE    HB 2340   6.542   4.989   6.521  1.4498  0.1065  0.3738
   19DOPE    C2 2341   6.488   4.795   6.442 -0.0748  0.6154 -0.2594
   19DOPE    HS 2342   6.576   4.778   6.376  0.9150  0.2784  1.1092
   19DOPE   O21 2343   6.374   4.846   6.375  0.4647 -0.1046  0.1218
   19DOPE   C21 2344   6.389   4.934   6.272  0.1818  0.1414  0.0370
   19DOPE   O22 2345   6.490   4.964   6.218 -0.1072  0.3739 -0.5579
   19DOPE   C22 2346   6.247   4.978   6.241  0.2626 -0.8267 -0.2821
   19DOPE   H2R 2347   6.240   5.088   6.223 -0.3048 -0.7043  0.6498
   19DOPE   H2S 2348   6.177   4.952   6.323  0.9752 -0.6113  0.4074
   19DOPE    C3 2349   6.459   4.645   6.500 -1.1244  0.1966 -0.2691
   19DOPE    HX 2350   6.381   4.644   6.579  1.1870  0.1597  2.1390
   19DOPE    HY 2351   6.552   4.623   6.556 -1.4130 -0.4962 -0.0516
   19DOPE   O31 2352   6.433   4.555   6.392 -0.6225  0.2227 -0.0519
   19DOPE   C31 2353   6.304   4.552   6.360 -0.2275  0.0429  0.1248
   19DOPE   O32 2354   6.212   4.601   6.417 -0.1433 -0.3653  0.1211
   19DOPE   C32 2355   6.295   4.474   6.229 -0.0140 -0.1551 -0.0888
   19DOPE   H2X 2356   6.375   4.514   6.163 -2.3176  2.1034 -1.6877
   19DOPE   H2Y 2357   6.313   4.365   6.241  0.0774 -0.6206 -3.3510
   19DOPE   C23 2358   6.180   4.916   6.116 -0.5701  0.0523 -0.3129
   19DOPE   H3R 2359   6.128   4.821   6.141 -2.4022  1.2213  0.4751
   19DOPE   H3S 2360   6.253   4.898   6.034 -2.4375  1.1198 -2.3026
   19DOPE   C24 2361   6.077   5.017   6.061  0.3030  0.8532  0.5934
   19DOPE   H4R 2362   6.127   5.116   6.052  2.9005 -0.4184  0.1895
   19DOPE   H4S 2363   5.997   5.037   6.135 -1.1418  0.5972 -0.8491
   19DOPE   C25 2364   6.017   4.982   5.930  0.4874  0.5998  0.6608
   19DOPE   H5R 2365   5.923   5.041   5.926  0.6524  0.8693  0.7181
   19DOPE   H5S 2366   5.991   4.874   5.922  1.4246  0.4325 -0.4527
   19DOPE   C26 2367   6.085   5.044   5.801  0.5737  0.0842 -0.0544
   19DOPE   H6R 2368   6.188   5.006   5.782  0.9235 -0.0681  1.9754
   19DOPE   H6S 2369   6.098   5.153   5.818 -0.1325  0.0780  0.5886
   19DOPE   C27 2370   6.000   5.013   5.670 -0.3027 -0.5126  0.1402
   19DOPE   H7R 2371   6.059   5.070   5.595 -0.6810  1.2310  1.1153
   19DOPE   H7S 2372   5.904   5.070   5.671  0.8876  1.5750  1.2991
   19DOPE   C28 2373   5.991   4.865   5.635 -0.1904 -0.5308 -0.1581
   19DOPE   H8R 2374   5.948   4.805   5.717  0.2098  0.6004  0.9072
   19DOPE   H8S 2375   6.094   4.830   5.612  1.6568  5.3870 -3.1058
   19DOPE   C29 2376   5.904   4.868   5.513  0.3404 -0.1519 -0.4007
   19DOPE   H9R 2377   5.801   4.838   5.534  0.3345  0.8332  1.1625
   19DOPE  C210 2378   5.946   4.874   5.385 -0.5154 -0.4045  0.5407
   19DOPE  H10R 2379   5.871   4.846   5.310 -1.1961 -1.0003  1.4165
   19DOPE  C211 2380   6.089   4.877   5.339 -0.3824 -0.1207  0.1253
   19DOPE  H11R 2381   6.158   4.876   5.426 -1.2093 -0.5645  0.7900
   19DOPE  H11S 2382   6.111   4.978   5.297 -0.1005 -0.4414 -0.5217
   19DOPE  C212 2383   6.140   4.773   5.241 -0.1676 -0.4457 -0.3622
   19DOPE  H12R 2384   6.079   4.770   5.149 -1.6893  1.1130  0.5411
   19DOPE  H12S 2385   6.121   4.674   5.288 -2.0047  0.1548  0.2301
   19DOPE  C213 2386   6.297   4.780   5.228  0.7372  0.0136 -0.2558
   19DOPE  H13R 2387   6.347   4.807   5.323  0.7628 -0.6395 -0.0827
   19DOPE  H13S 2388   6.323   4.861   5.157 -0.6008  0.0817 -0.7027
   19DOPE  C214 2389   6.348   4.640   5.176 -0.2521 -0.2092  0.6124
   19DOPE  H14R 2390   6.312   4.647   5.071  1.6140 -3.1299 -0.3471
   19DOPE  H14S 2391   6.292   4.559   5.227 -1.6804  0.5770  0.3380
   19DOPE  C215 2392   6.500   4.619   5.180  0.2846 -1.1269 -0.2437
   19DOPE  H15R 2393   6.533   4.635   5.285 -0.8804  2.1757 -0.2438
   19DOPE  H15S 2394   6.545   4.702   5.122 -0.6615 -0.1656  0.3521
   19DOPE  C216 2395   6.532   4.482   5.133  0.5165  0.2688 -0.4610
   19DOPE  H16R 2396   6.503   4.471   5.027 -1.5076 -2.1137  0.2579
   19DOPE  H16S 2397   6.476   4.409   5.194  0.4585  0.0069 -0.8269
   19DOPE  C217 2398   6.684   4.451   5.145  0.5583  0.3408  0.1061
   19DOPE  H17R 2399   6.721   4.464   5.249  0.8866 -0.7119  0.1289
   19DOPE  H17S 2400   6.732   4.524   5.077 -0.5138  1.2411  0.2719
   19DOPE  C218 2401   6.711   4.307   5.101  0.1282  0.8475 -0.1514
   19DOPE  H18R 2402   6.814   4.266   5.100  0.3669  1.4417 -0.4221
   19DOPE  H18S 2403   6.666   4.301   4.999 -1.3281  3.2571  0.2443
   19DOPE  H18T 2404   6.651   4.238   5.164  2.6858  1.5293  3.3125
   19DOPE   C33 2405   6.163   4.500   6.147 -0.0200 -0.5464 -0.6443
   19DOPE   H3X 2406   6.131   4.603   6.171 -0.3704 -0.7946 -0.0185
   19DOPE   H3Y 2407   6.087   4.431   6.190 -0.8831 -0.9215 -2.6556
   19DOPE   C34 2408   6.176   4.474   5.996  0.4231  0.7809  0.0286
   19DOPE   H4X 2409   6.241   4.384   5.997 -1.4608 -0.6585  0.2746
   19DOPE   H4Y 2410   6.083   4.430   5.953  0.8175 -0.6846  0.5963
   19DOPE   C35 2411   6.216   4.597   5.912 -0.7998  0.0482 -0.2443
   19DOPE   H5X 2412   6.302   4.640   5.967 -1.3330  0.2642  0.4306
   19DOPE   H5Y 2413   6.141   4.678   5.900  0.7182  1.2084 -2.6515
   19DOPE   C36 2414   6.263   4.557   5.769 -0.4172 -0.4670  0.0572
   19DOPE   H6X 2415   6.346   4.484   5.777 -0.4402 -0.6946 -1.4665
   19DOPE   H6Y 2416   6.304   4.647   5.719  0.5521 -0.0669  1.5297
   19DOPE   C37 2417   6.151   4.509   5.674 -0.3137  0.1748  0.1399
   19DOPE   H7X 2418   6.131   4.401   5.689  1.1674 -0.2385 -0.7082
   19DOPE   H7Y 2419   6.059   4.563   5.704  0.0875 -0.5893  3.1128
   19DOPE   C38 2420   6.181   4.536   5.529  1.2287  0.8480 -0.6601
   19DOPE   H8X 2421   6.206   4.640   5.498 -1.2097  1.3342 -1.2324
   19DOPE   H8Y 2422   6.088   4.509   5.474  0.5245 -2.0219  1.6605
   19DOPE   C39 2423   6.288   4.440   5.491  0.4465 -0.2934  0.7162
   19DOPE   H9X 2424   6.391   4.466   5.519  0.8184 -1.1593  0.1707
   19DOPE  C310 2425   6.262   4.323   5.439  0.2773 -0.0988  0.5580
   19DOPE  H10X 2426   6.350   4.265   5.407 -1.0551 -1.5967 -0.5942
   19DOPE  C311 2427   6.133   4.252   5.404 -0.7487  0.0412  0.4435
   19DOPE  H11X 2428   6.125   4.149   5.444 -0.0403 -0.1120  0.2172
   19DOPE  H11Y 2429   6.051   4.317   5.440  0.1769  0.5276  1.7546
   19DOPE  C312 2430   6.120   4.241   5.251  0.0036 -0.4686  0.2932
   19DOPE  H12X 2431   6.207   4.186   5.209  1.1065  1.6816 -0.4343
   19DOPE  H12Y 2432   6.116   4.342   5.204 -0.8258  0.0273  1.3836
   19DOPE  C313 2433   5.983   4.175   5.208  0.3506 -0.4384  0.1435
   19DOPE  H13X 2434   5.965   4.211   5.104 -0.0971  0.1114  0.4033
   19DOPE  H13Y 2435   6.004   4.066   5.206  0.4851 -0.4598 -2.8408
   19DOPE  C314 2436   5.860   4.180   5.302  0.1407 -0.2839 -0.0538
   19DOPE  H14X 2437   5.839   4.283   5.338  0.1308 -0.5415  0.6885
   19DOPE  H14Y 2438   5.885   4.119   5.392  0.8130  1.7702  1.2032
   19DOPE  C315 2439   5.729   4.130   5.238  0.5108 -0.3932 -0.7171
   19DOPE  H15X 2440   5.738   4.030   5.189 -3.4016 -2.1081  1.5367
   19DOPE  H15Y 2441   5.702   4.206   5.162 -0.7317  0.0676  0.1473
   19DOPE  C316 2442   5.608   4.106   5.334  0.0992 -0.5762 -0.3909
   19DOPE  H16X 2443   5.599   4.191   5.405  0.7856  1.6373 -2.7796
   19DOPE  H16Y 2444   5.637   4.023   5.402  0.5444 -0.8095 -0.8559
   19DOPE  C317 2445   5.472   4.082   5.261 -0.1011  0.0238 -0.8792
   19DOPE  H17X 2446   5.470   3.978   5.221 -1.9545  0.4927 -2.1429
   19DOPE  H17Y 2447   5.396   4.093   5.341  0.7376  0.0005 -0.0642
   19DOPE  C318 2448   5.440   4.172   5.149  0.4819 -0.5456  0.6959
   19DOPE  H18X 2449   5.446   4.277   5.183  1.2662 -0.7824  1.3437
   19DOPE  H18Y 2450   5.516   4.147   5.072 -0.8545 -2.6459 -0.0352
   19DOPE  H18Z 2451   5.345   4.147   5.097 -1.3680  0.8670  3.1667
   20DOPE     N 2452   5.601   0.275   6.991 -0.0536  0.7686  0.4085
   20DOPE   HN1 2453   5.684   0.272   6.929  0.6005 -1.5816  1.3249
   20DOPE   HN2 2454   5.611   0.366   7.040  1.2272 -0.1869  2.0207
   20DOPE   HN3 2455   5.621   0.199   7.058  0.7871  1.0857  0.5220
   20DOPE   C12 2456   5.475   0.257   6.911  0.1890  0.4147 -0.3236
   20DOPE  H12A 2457   5.479   0.167   6.846 -0.6632  1.2361 -1.5613
   20DOPE  H12B 2458   5.447   0.349   6.855  0.4453  1.0932  0.6415
   20DOPE   C11 2459   5.361   0.226   7.008 -0.0652 -0.3254 -0.1992
   20DOPE  H11A 2460   5.394   0.144   7.076  1.4880  0.8727  0.5491
   20DOPE  H11B 2461   5.265   0.192   6.964 -0.8199  0.0422  1.1383
   20DOPE     P 2462   5.246   0.455   7.078 -0.2063 -0.0990  0.0273
   20DOPE   O13 2463   5.302   0.534   6.962  0.4276  0.1840 -0.6966
   20DOPE   O14 2464   5.220   0.529   7.204  0.4086 -0.5388  0.3823
   20DOPE   O11 2465   5.116   0.374   7.032 -0.8430 -0.1605 -0.0644
   20DOPE   O12 2466   5.342   0.332   7.101  0.2245 -0.1047 -0.1861
   20DOPE    C1 2467   5.011   0.446   6.971 -0.0801  0.8203  0.3105
   20DOPE    HA 2468   5.029   0.556   6.966  0.4590  0.7106 -0.3676
   20DOPE    HB 2469   4.920   0.431   7.032  0.8089 -0.4527  1.3679
   20DOPE    C2 2470   4.979   0.388   6.827 -0.1130  0.5281  1.0291
   20DOPE    HS 2471   4.884   0.331   6.827 -0.2609  0.7502  1.7914
   20DOPE   O21 2472   5.079   0.292   6.791 -0.3244  0.1425 -0.0776
   20DOPE   C21 2473   5.050   0.192   6.715 -0.9639 -0.1179  0.5811
   20DOPE   O22 2474   4.933   0.155   6.692 -0.2229  0.7306  0.2145
   20DOPE   C22 2475   5.181   0.134   6.659 -0.5581 -0.1566  0.7893
   20DOPE   H2R 2476   5.179   0.023   6.650 -1.0952 -0.0975  0.1654
   20DOPE   H2S 2477   5.255   0.148   6.741  0.3463 -1.5022  0.2281
   20DOPE    C3 2478   4.975   0.496   6.719  0.4262  0.2671  0.7250
   20DOPE    HX 2479   5.081   0.529   6.713  0.6540 -0.6833 -1.3257
   20DOPE    HY 2480   4.917   0.584   6.754  1.7594  1.4588  0.0418
   20DOPE   O31 2481   4.929   0.451   6.595  0.2097  0.0923  0.3781
   20DOPE   C31 2482   4.959   0.530   6.488 -0.1581 -1.1591 -0.8393
   20DOPE   O32 2483   5.034   0.628   6.498 -0.4702  0.1464  0.4122
   20DOPE   C32 2484   4.907   0.473   6.357 -0.3367  0.3149  0.0417
   20DOPE   H2X 2485   4.930   0.365   6.371 -0.4629  0.6410  3.8255
   20DOPE   H2Y 2486   4.797   0.487   6.352 -0.4110 -0.6022 -1.7267
   20DOPE   C23 2487   5.225   0.208   6.523 -0.6962  0.6091  0.6721
   20DOPE   H3R 2488   5.336   0.198   6.516 -0.7646  0.2074  0.1386
   20DOPE   H3S 2489   5.197   0.315   6.529 -3.0694  0.0466  0.4363
   20DOPE   C24 2490   5.171   0.136   6.405 -0.1113  0.5080 -0.2761
   20DOPE   H4R 2491   5.060   0.134   6.409 -0.0982 -1.4660  0.1883
   20DOPE   H4S 2492   5.203   0.030   6.402  0.7858  0.6437  1.9009
   20DOPE   C25 2493   5.227   0.205   6.283 -0.0691  0.4706  0.0689
   20DOPE   H5R 2494   5.338   0.195   6.273 -0.1957 -0.6614 -0.4006
   20DOPE   H5S 2495   5.207   0.314   6.276  1.4380  0.8287  0.7821
   20DOPE   C26 2496   5.165   0.137   6.154  0.1720 -1.0952  0.6647
   20DOPE   H6R 2497   5.056   0.122   6.167 -0.2286  0.1375 -0.9612
   20DOPE   H6S 2498   5.207   0.034   6.141 -0.8834 -1.7641  2.2793
   20DOPE   C27 2499   5.182   0.221   6.029  0.0082  0.9900  0.1974
   20DOPE   H7R 2500   5.183   0.332   6.041  0.8459  1.2407 -1.8813
   20DOPE   H7S 2501   5.093   0.196   5.969  0.6748  0.5410 -0.6192
   20DOPE   C28 2502   5.312   0.187   5.948  0.0220  0.2048  0.1619
   20DOPE   H8R 2503   5.320   0.077   5.935 -0.8020  0.2537 -0.8128
   20DOPE   H8S 2504   5.396   0.224   6.012  0.7608 -0.2567 -0.5216
   20DOPE   C29 2505   5.306   0.245   5.815 -0.8921 -0.0480 -0.6667
   20DOPE   H9R 2506   5.290   0.353   5.806 -0.5449 -0.0361 -1.1774
   20DOPE  C210 2507   5.282   0.183   5.695  0.3462 -0.5739 -0.1109
   20DOPE  H10R 2508   5.287   0.237   5.599 -0.2804 -1.3856 -0.6203
   20DOPE  C211 2509   5.252   0.039   5.682 -0.6513 -0.3142 -0.2326
   20DOPE  H11R 2510   5.227  -0.010   5.779 -0.5506  1.3677  0.6838
   20DOPE  H11S 2511   5.345  -0.015   5.654  0.1157  1.1506 -0.6200
   20DOPE  C212 2512   5.138  -0.009   5.584  0.1987  0.8031 -0.7127
   20DOPE  H12R 2513   5.150   0.052   5.491 -1.2737 -1.6844 -2.6836
   20DOPE  H12S 2514   5.044   0.029   5.629  0.0050  1.0982 -1.3477
   20DOPE  C213 2515   5.118  -0.164   5.574 -0.2889 -0.3092  0.4363
   20DOPE  H13R 2516   5.038  -0.185   5.500 -1.3076 -1.8427  1.8922
   20DOPE  H13S 2517   5.088  -0.214   5.669  0.6995 -0.6595  0.5774
   20DOPE  C214 2518   5.247  -0.232   5.519  0.0016  0.2251 -0.1504
   20DOPE  H14R 2519   5.229  -0.342   5.515 -0.2107  0.2957 -2.5809
   20DOPE  H14S 2520   5.322  -0.211   5.597 -0.4111 -1.8205  0.8746
   20DOPE  C215 2521   5.291  -0.188   5.375 -0.3493  0.7462 -0.4647
   20DOPE  H15R 2522   5.297  -0.077   5.366 -2.5009  0.9682  0.2146
   20DOPE  H15S 2523   5.203  -0.216   5.313 -0.5130 -0.9048  0.4596
   20DOPE  C216 2524   5.425  -0.257   5.333 -1.1903  0.1949  0.5882
   20DOPE  H16R 2525   5.413  -0.367   5.343  0.4365  0.0688  1.3869
   20DOPE  H16S 2526   5.495  -0.216   5.409 -0.8332  1.7869 -0.5367
   20DOPE  C217 2527   5.458  -0.227   5.185 -0.1082  0.1238  0.2240
   20DOPE  H17R 2528   5.423  -0.126   5.156  1.1299  0.8776  1.2039
   20DOPE  H17S 2529   5.409  -0.305   5.124  3.4755 -0.4268 -2.2688
   20DOPE  C218 2530   5.614  -0.239   5.160  0.8143 -0.1134  0.4223
   20DOPE  H18R 2531   5.630  -0.220   5.051  0.3123 -1.9160 -0.0087
   20DOPE  H18S 2532   5.654  -0.339   5.188 -1.6936 -0.4186  3.5046
   20DOPE  H18T 2533   5.676  -0.163   5.213  1.8627  1.0186 -2.2238
   20DOPE   C33 2534   4.994   0.527   6.243 -0.6776 -0.4865  0.0154
   20DOPE   H3X 2535   4.980   0.469   6.148  1.7163  1.5092 -1.6804
   20DOPE   H3Y 2536   5.102   0.520   6.265 -0.0935  0.2721 -2.2708
   20DOPE   C34 2537   4.953   0.672   6.194 -0.9358  0.5982  0.4517
   20DOPE   H4X 2538   4.850   0.686   6.155 -0.2335  3.1197 -0.7579
   20DOPE   H4Y 2539   4.955   0.751   6.272  1.0587  2.0516 -0.9570
   20DOPE   C35 2540   5.034   0.720   6.074 -0.2852  0.5180  0.5173
   20DOPE   H5X 2541   5.142   0.711   6.099 -0.0197  2.4085  0.2508
   20DOPE   H5Y 2542   5.001   0.823   6.048 -0.7176  0.7965  2.0577
   20DOPE   C36 2543   5.007   0.637   5.949  0.1995  0.0300  0.4931
   20DOPE   H6X 2544   4.899   0.662   5.939 -0.2877 -1.2361  2.1529
   20DOPE   H6Y 2545   5.006   0.526   5.952 -1.1611 -0.0033 -0.2487
   20DOPE   C37 2546   5.079   0.680   5.824  0.1260 -0.5293  0.0506
   20DOPE   H7X 2547   5.058   0.789   5.822  1.2873 -0.1918  2.3371
   20DOPE   H7Y 2548   5.189   0.665   5.822 -0.0219 -1.9377  0.8496
   20DOPE   C38 2549   5.022   0.616   5.694 -0.8019 -0.9838  0.0028
   20DOPE   H8X 2550   4.911   0.613   5.704 -0.8064 -0.8353 -0.0103
   20DOPE   H8Y 2551   5.069   0.515   5.691 -1.2677 -1.2330  0.9181
   20DOPE   C39 2552   5.045   0.701   5.567  0.1094 -0.0047 -0.1210
   20DOPE   H9X 2553   5.000   0.801   5.575 -0.1460  0.2175 -3.2382
   20DOPE  C310 2554   5.100   0.670   5.451  0.4469 -0.8491 -0.4645
   20DOPE  H10X 2555   5.107   0.735   5.363 -0.6389 -2.7839 -2.0677
   20DOPE  C311 2556   5.155   0.534   5.420  0.1624  0.0892 -0.6616
   20DOPE  H11X 2557   5.254   0.546   5.369  0.2365  0.4270 -0.4444
   20DOPE  H11Y 2558   5.159   0.475   5.514  0.1146  2.6299  1.0377
   20DOPE  C312 2559   5.064   0.452   5.325 -0.3117  0.0283  0.5817
   20DOPE  H12X 2560   5.060   0.515   5.234  4.1743  1.3084  1.0534
   20DOPE  H12Y 2561   4.960   0.437   5.361  0.1823 -0.0108  2.0568
   20DOPE  C313 2562   5.125   0.311   5.276  0.1749 -0.3107 -0.5784
   20DOPE  H13X 2563   5.212   0.324   5.209  1.6346  0.2925  1.3419
   20DOPE  H13Y 2564   5.152   0.252   5.367  0.9423 -1.4140 -1.4948
   20DOPE  C314 2565   5.022   0.220   5.199  0.1115 -0.0420 -0.1682
   20DOPE  H14X 2566   5.007   0.257   5.096  0.8702 -0.8533 -0.5884
   20DOPE  H14Y 2567   4.933   0.226   5.266  0.6281 -2.7296  0.9041
   20DOPE  C315 2568   5.071   0.072   5.189  0.0940 -0.2431  0.4507
   20DOPE  H15X 2569   5.069   0.023   5.288 -0.7016  2.3025  1.7963
   20DOPE  H15Y 2570   5.169   0.077   5.137 -0.0382  0.8948  0.2848
   20DOPE  C316 2571   4.988  -0.020   5.095  0.9796  0.0984 -0.2826
   20DOPE  H16X 2572   4.987   0.029   4.996  0.8189 -1.9359 -1.3487
   20DOPE  H16Y 2573   4.885  -0.016   5.137  0.9194 -1.8173 -0.1334
   20DOPE  C317 2574   5.045  -0.164   5.080  0.6138  0.5486 -0.4998
   20DOPE  H17X 2575   5.154  -0.157   5.102  0.5091  1.2053 -0.1538
   20DOPE  H17Y 2576   4.995  -0.227   5.156 -1.9287  2.1894 -0.6820
   20DOPE  C318 2577   5.030  -0.216   4.940  0.1846  0.3706  0.3756
   20DOPE  H18X 2578   5.108  -0.170   4.876 -1.3614 -0.2989 -2.1212
   20DOPE  H18Y 2579   5.036  -0.327   4.929 -1.7097  0.4500 -2.5563
   20DOPE  H18Z 2580   4.933  -0.180   4.899  0.1265  2.3407  2.0902
   21DOPE     N 2581   3.175   7.122   6.817 -0.2577  0.4499  0.4741
   21DOPE   HN1 2582   3.258   7.163   6.770 -0.8612  1.4823  0.2735
   21DOPE   HN2 2583   3.121   7.192   6.873 -0.6349  0.1195  0.5295
   21DOPE   HN3 2584   3.194   7.035   6.870  0.7673  1.0832  1.1630
   21DOPE   C12 2585   3.088   7.096   6.699  0.3497 -0.4969  0.2565
   21DOPE  H12A 2586   3.002   7.044   6.745  0.1861 -2.0992 -1.7436
   21DOPE  H12B 2587   3.133   7.040   6.615 -0.7324 -0.1352 -0.5906
   21DOPE   C11 2588   3.033   7.231   6.643  0.4217  0.5021  0.4280
   21DOPE  H11A 2589   2.972   7.211   6.553  0.8419 -0.2465  0.3033
   21DOPE  H11B 2590   3.125   7.281   6.605  0.8984  0.1728  1.1124
   21DOPE     P 2591   2.818   7.291   6.802 -0.6481  0.2378 -0.2189
   21DOPE   O13 2592   2.807   7.361   6.934 -0.3012  0.2128  0.2117
   21DOPE   O14 2593   2.795   7.141   6.811  0.0243 -0.1502 -0.0278
   21DOPE   O11 2594   2.735   7.359   6.688 -0.0804 -0.4039 -0.0164
   21DOPE   O12 2595   2.969   7.311   6.746 -0.0726  0.1661  0.1173
   21DOPE    C1 2596   2.723   7.499   6.661  0.0028 -0.3456  0.6437
   21DOPE    HA 2597   2.772   7.568   6.733 -1.6845 -1.3584  2.8678
   21DOPE    HB 2598   2.617   7.527   6.648  0.1439 -0.6416 -1.6613
   21DOPE    C2 2599   2.774   7.523   6.517 -0.2301 -0.3375 -0.9212
   21DOPE    HS 2600   2.882   7.500   6.526 -0.1428  0.6728  1.3641
   21DOPE   O21 2601   2.741   7.654   6.485 -0.5434 -0.4454 -0.4391
   21DOPE   C21 2602   2.837   7.723   6.422  0.4504 -0.5156 -0.2786
   21DOPE   O22 2603   2.952   7.695   6.405 -0.3092 -0.0750 -0.2621
   21DOPE   C22 2604   2.774   7.858   6.379  0.4075 -0.5820  0.1620
   21DOPE   H2R 2605   2.795   7.922   6.467 -2.2426  1.5493 -0.5853
   21DOPE   H2S 2606   2.663   7.850   6.381  0.2462  1.1756  2.6088
   21DOPE    C3 2607   2.704   7.441   6.413 -0.2655  0.1146 -0.0855
   21DOPE    HX 2608   2.602   7.485   6.407 -0.9622 -1.4754 -0.4478
   21DOPE    HY 2609   2.687   7.334   6.438 -0.8901  0.8996  3.3678
   21DOPE   O31 2610   2.759   7.463   6.282  0.4275  0.2116 -0.0689
   21DOPE   C31 2611   2.871   7.387   6.257  0.2147  0.1472 -0.1431
   21DOPE   O32 2612   2.931   7.318   6.336  0.2421  0.0137  1.0102
   21DOPE   C32 2613   2.916   7.409   6.114 -0.3413  0.1396  0.7113
   21DOPE   H2X 2614   2.825   7.387   6.055 -0.4961  0.8218  0.6874
   21DOPE   H2Y 2615   2.946   7.515   6.096 -0.3260 -0.1297 -1.0305
   21DOPE   C23 2616   2.845   7.915   6.255  0.4028  0.1659 -0.1442
   21DOPE   H3R 2617   2.941   7.960   6.286 -0.8226  2.5422  0.4253
   21DOPE   H3S 2618   2.778   7.999   6.227 -1.0972 -0.8497  0.2458
   21DOPE   C24 2619   2.846   7.823   6.129 -0.3271 -0.9275  0.2464
   21DOPE   H4R 2620   2.742   7.816   6.091 -1.1574  0.0757  2.1893
   21DOPE   H4S 2621   2.897   7.731   6.164  2.1743  0.1471 -0.3621
   21DOPE   C25 2622   2.929   7.889   6.015 -0.2517 -0.1087 -0.0835
   21DOPE   H5R 2623   3.031   7.906   6.057 -0.6700  0.0439  0.8789
   21DOPE   H5S 2624   2.881   7.987   5.999  0.7489  0.5615  0.8335
   21DOPE   C26 2625   2.945   7.794   5.889 -0.4272  0.3884  0.0985
   21DOPE   H6R 2626   2.851   7.747   5.853  0.3554  0.7724 -2.7262
   21DOPE   H6S 2627   3.018   7.717   5.921  1.3680  1.0591 -2.1468
   21DOPE   C27 2628   2.997   7.881   5.774 -0.8892  0.1161 -0.3497
   21DOPE   H7R 2629   3.051   7.814   5.704  0.6361  0.6572  0.2640
   21DOPE   H7S 2630   3.081   7.942   5.815  0.9316 -1.1399 -2.0618
   21DOPE   C28 2631   2.889   7.958   5.698  0.3508 -0.4976 -0.3201
   21DOPE   H8R 2632   2.934   8.026   5.622  1.6640  0.3655  1.1628
   21DOPE   H8S 2633   2.842   8.021   5.776  0.7722 -0.0952 -0.3861
   21DOPE   C29 2634   2.785   7.869   5.635  0.7808 -0.1399  0.1495
   21DOPE   H9R 2635   2.737   7.794   5.699  0.8637 -0.1784  0.1659
   21DOPE  C210 2636   2.756   7.867   5.504  0.0531  0.0193 -0.2945
   21DOPE  H10R 2637   2.709   7.778   5.459  0.8507  0.1204 -1.3482
   21DOPE  C211 2638   2.807   7.951   5.390  0.3375  1.1311 -0.5710
   21DOPE  H11R 2639   2.913   7.932   5.366  0.2354  1.8774 -1.7243
   21DOPE  H11S 2640   2.802   8.059   5.415  0.6484  1.1040 -0.3963
   21DOPE  C212 2641   2.738   7.934   5.251  0.3732 -0.1381 -0.2691
   21DOPE  H12R 2642   2.733   8.029   5.194  0.3743  0.2365  0.3522
   21DOPE  H12S 2643   2.632   7.931   5.283  0.2908  1.9904 -0.2019
   21DOPE  C213 2644   2.767   7.806   5.168  0.1080 -0.4524 -0.5759
   21DOPE  H13R 2645   2.741   7.721   5.234  0.3163  0.8910  1.2954
   21DOPE  H13S 2646   2.876   7.820   5.151  0.0129  1.6925  0.3545
   21DOPE  C214 2647   2.681   7.787   5.037  0.3851 -0.2541 -0.3853
   21DOPE  H14R 2648   2.699   7.690   4.986  0.6035 -0.6508  0.4280
   21DOPE  H14S 2649   2.707   7.873   4.973  0.2693 -0.6027 -0.9032
   21DOPE  C215 2650   2.534   7.783   5.065 -0.2254 -0.0732  0.2775
   21DOPE  H15R 2651   2.495   7.887   5.075  0.2214  0.2223 -0.9717
   21DOPE  H15S 2652   2.507   7.732   5.161 -0.1264 -0.7033 -0.0247
   21DOPE  C216 2653   2.457   7.704   4.957 -0.2741 -0.4959 -0.6935
   21DOPE  H16R 2654   2.478   7.597   4.979 -0.5540 -0.5412 -0.6450
   21DOPE  H16S 2655   2.482   7.735   4.853 -1.2916  0.9254 -0.5336
   21DOPE  C217 2656   2.310   7.732   4.968  0.3424 -0.0031 -0.0746
   21DOPE  H17R 2657   2.297   7.839   4.943  0.7986 -0.5482 -2.9265
   21DOPE  H17S 2658   2.270   7.712   5.070 -0.3909  1.2803 -0.0886
   21DOPE  C218 2659   2.236   7.651   4.860 -0.4045  0.8997  0.6280
   21DOPE  H18R 2660   2.127   7.672   4.854 -0.3073  0.9053 -2.0328
   21DOPE  H18S 2661   2.246   7.541   4.876 -0.4643  0.3095 -2.6481
   21DOPE  H18T 2662   2.272   7.683   4.760 -2.2557  0.7328 -0.1359
   21DOPE   C33 2663   3.039   7.328   6.073  0.0544  0.0456  0.5036
   21DOPE   H3X 2664   3.023   7.218   6.072  0.3134  0.0064 -0.7580
   21DOPE   H3Y 2665   3.111   7.350   6.155  0.3080 -0.2021  0.3488
   21DOPE   C34 2666   3.096   7.370   5.931 -0.4500 -0.5401  0.3359
   21DOPE   H4X 2667   3.164   7.457   5.944 -1.3655  0.1915  0.3592
   21DOPE   H4Y 2668   3.153   7.285   5.888 -2.9111 -1.1169 -2.0390
   21DOPE   C35 2669   2.989   7.400   5.827  0.0413  0.4891 -0.1157
   21DOPE   H5X 2670   2.920   7.481   5.859  1.2484  2.2214 -1.7288
   21DOPE   H5Y 2671   2.931   7.306   5.808 -1.1099  0.8504  1.3623
   21DOPE   C36 2672   3.050   7.431   5.685  0.3640 -1.2254  0.2920
   21DOPE   H6X 2673   3.121   7.353   5.650 -1.3116 -2.3827 -0.6673
   21DOPE   H6Y 2674   3.105   7.528   5.693 -0.1638 -0.8303 -0.6466
   21DOPE   C37 2675   2.933   7.446   5.572 -0.7485  0.0994 -0.3571
   21DOPE   H7X 2676   2.875   7.353   5.590  1.5970 -1.7181 -1.6618
   21DOPE   H7Y 2677   2.868   7.529   5.609  0.2796 -0.2254  2.3780
   21DOPE   C38 2678   2.990   7.461   5.432 -0.4742  0.5970 -0.3002
   21DOPE   H8X 2679   3.067   7.381   5.425 -0.2251  0.5670  2.1725
   21DOPE   H8Y 2680   3.049   7.552   5.409  0.1300  0.1204 -0.6520
   21DOPE   C39 2681   2.870   7.431   5.346  0.0147  0.3980  0.5867
   21DOPE   H9X 2682   2.813   7.517   5.309 -0.3867  0.0071  0.2877
   21DOPE  C310 2683   2.823   7.313   5.314  0.2740 -0.1239 -0.5516
   21DOPE  H10X 2684   2.738   7.307   5.245 -0.6011 -0.7625  0.5451
   21DOPE  C311 2685   2.879   7.180   5.360  0.0792  0.3157  0.5410
   21DOPE  H11X 2686   2.978   7.188   5.410  1.4984  0.4801 -2.0988
   21DOPE  H11Y 2687   2.795   7.138   5.419 -0.2120  1.5754  1.0563
   21DOPE  C312 2688   2.904   7.065   5.260 -0.2663 -0.3035  0.7160
   21DOPE  H12X 2689   2.817   7.036   5.198  0.5784  2.1557 -1.8493
   21DOPE  H12Y 2690   2.931   6.975   5.319 -2.6618  0.3238  2.9102
   21DOPE  C313 2691   3.017   7.118   5.164  0.6212 -0.3650 -0.5950
   21DOPE  H13X 2692   2.980   7.212   5.118 -1.1657  1.4864  4.0726
   21DOPE  H13Y 2693   3.097   7.141   5.237 -1.2401  2.1755  0.8251
   21DOPE  C314 2694   3.071   7.024   5.058  0.6966  0.3946  0.0293
   21DOPE  H14X 2695   3.169   7.067   5.029  0.5671  1.1627  0.6957
   21DOPE  H14Y 2696   3.019   7.029   4.959  1.1088  0.4499 -0.1858
   21DOPE  C315 2697   3.068   6.876   5.093 -0.4222 -0.8119  0.2724
   21DOPE  H15X 2698   2.965   6.834   5.099  0.2009 -2.7268 -1.4124
   21DOPE  H15Y 2699   3.117   6.868   5.192  0.7214 -0.1917 -0.2207
   21DOPE  C316 2700   3.155   6.790   4.995 -0.1214 -0.2564 -0.0625
   21DOPE  H16X 2701   3.137   6.789   4.885  0.3833 -0.3574 -0.1475
   21DOPE  H16Y 2702   3.159   6.688   5.037  3.0661  0.7955  2.6094
   21DOPE  C317 2703   3.310   6.825   4.994  0.4287 -0.4659 -0.3372
   21DOPE  H17X 2704   3.326   6.922   4.943  0.7860  0.4198  1.3876
   21DOPE  H17Y 2705   3.352   6.813   5.096 -0.2520 -2.2237 -0.2215
   21DOPE  C318 2706   3.388   6.727   4.911  0.1538 -0.7067 -0.5083
   21DOPE  H18X 2707   3.358   6.736   4.804 -0.0523  2.5922 -0.2689
   21DOPE  H18Y 2708   3.497   6.746   4.919  0.2463 -1.5078  0.4586
   21DOPE  H18Z 2709   3.362   6.625   4.947 -1.0283  0.0195  0.8005
   22DOPE     N 2710   7.326   4.857   7.025  0.0560  0.3064 -0.6379
   22DOPE   HN1 2711   7.415   4.901   6.995  0.5335  2.0887  2.9089
   22DOPE   HN2 2712   7.295   4.781   6.961 -0.0228 -0.2851  0.0820
   22DOPE   HN3 2713   7.265   4.939   7.042  0.1073  0.7077 -2.2019
   22DOPE   C12 2714   7.342   4.808   7.169  0.0498  0.1586 -0.0708
   22DOPE  H12A 2715   7.372   4.899   7.226 -1.6521  0.1958  0.8071
   22DOPE  H12B 2716   7.422   4.731   7.173 -0.3607 -0.2569  0.1756
   22DOPE   C11 2717   7.209   4.741   7.216  0.1203  0.1575 -0.1145
   22DOPE  H11A 2718   7.222   4.720   7.324  0.3387 -0.8940 -0.3374
   22DOPE  H11B 2719   7.177   4.655   7.154 -0.0546  1.4299 -1.8559
   22DOPE     P 2720   6.964   4.825   7.159 -0.2495  0.0128  0.2665
   22DOPE   O13 2721   6.893   4.951   7.182 -0.6764 -0.0358 -0.1589
   22DOPE   O14 2722   6.900   4.702   7.216 -0.2665  0.2538  0.3448
   22DOPE   O11 2723   6.983   4.798   7.006  0.3671 -0.2511  0.2458
   22DOPE   O12 2724   7.107   4.843   7.209 -0.5361 -0.2789 -0.1569
   22DOPE    C1 2725   6.866   4.792   6.927  0.1166  0.8668 -0.4663
   22DOPE    HA 2726   6.781   4.850   6.968  1.0723  2.8791 -1.2269
   22DOPE    HB 2727   6.830   4.687   6.915 -0.9829  1.4289 -2.5605
   22DOPE    C2 2728   6.897   4.853   6.788  0.2054 -0.5981 -0.2272
   22DOPE    HS 2729   6.799   4.876   6.742 -0.5576 -0.7572  1.2643
   22DOPE   O21 2730   6.985   4.769   6.719  0.0316  0.1206  0.1693
   22DOPE   C21 2731   6.916   4.672   6.653  0.5890  0.8243 -0.1706
   22DOPE   O22 2732   6.795   4.655   6.657 -0.0395  0.3516  0.1998
   22DOPE   C22 2733   7.009   4.594   6.565  0.3882  0.4939  0.2655
   22DOPE   H2R 2734   7.022   4.494   6.612 -2.0564  0.1116  0.2977
   22DOPE   H2S 2735   7.104   4.649   6.574  0.0712  0.7336  3.6190
   22DOPE    C3 2736   6.962   4.998   6.803  0.2423  0.1603  0.2974
   22DOPE    HX 2737   7.068   4.977   6.831  0.7443  2.4184  0.2462
   22DOPE    HY 2738   6.908   5.042   6.890 -1.8926 -0.8046 -0.4761
   22DOPE   O31 2739   6.944   5.068   6.680  0.4318  0.2498 -0.1901
   22DOPE   C31 2740   7.051   5.147   6.642  0.4986 -0.2722 -0.0429
   22DOPE   O32 2741   7.133   5.192   6.720 -0.2802  0.2563  0.0179
   22DOPE   C32 2742   7.025   5.188   6.499 -0.7958 -0.2200 -0.1311
   22DOPE   H2X 2743   6.960   5.116   6.446 -0.5905  0.5963 -1.5585
   22DOPE   H2Y 2744   6.985   5.291   6.513  0.2859  0.6276 -2.6164
   22DOPE   C23 2745   6.950   4.579   6.418 -0.0250 -0.7653  0.0918
   22DOPE   H3R 2746   6.860   4.514   6.410  0.3685 -1.4351  0.9249
   22DOPE   H3S 2747   7.035   4.551   6.352  0.6971  1.4206  0.0173
   22DOPE   C24 2748   6.913   4.724   6.353 -0.3355  0.2536  0.3926
   22DOPE   H4R 2749   7.015   4.767   6.338 -0.3311 -0.4511 -1.7963
   22DOPE   H4S 2750   6.855   4.789   6.422  0.9258  1.5890  0.2654
   22DOPE   C25 2751   6.841   4.706   6.223 -0.5985 -0.7217  0.2935
   22DOPE   H5R 2752   6.740   4.665   6.245 -1.1687 -1.7271 -3.5814
   22DOPE   H5S 2753   6.891   4.636   6.153 -0.2004 -1.8098  1.6190
   22DOPE   C26 2754   6.820   4.842   6.151  0.1624 -1.3909  0.5557
   22DOPE   H6R 2755   6.910   4.906   6.167 -0.6991  0.1966 -0.6212
   22DOPE   H6S 2756   6.731   4.892   6.193 -0.1662  0.9235 -2.5271
   22DOPE   C27 2757   6.799   4.831   6.001  0.6453 -0.1020 -0.0109
   22DOPE   H7R 2758   6.882   4.773   5.955 -1.2251 -3.0568  0.0481
   22DOPE   H7S 2759   6.807   4.931   5.953 -0.4737 -0.0840 -0.1814
   22DOPE   C28 2760   6.656   4.782   5.969  0.5842 -0.2972  0.0655
   22DOPE   H8R 2761   6.583   4.863   5.989  1.0646  0.2558 -0.3686
   22DOPE   H8S 2762   6.620   4.709   6.045 -6.3595  3.1333  0.8964
   22DOPE   C29 2763   6.640   4.727   5.829  0.6179  0.3906 -0.4173
   22DOPE   H9R 2764   6.717   4.651   5.809  1.7782  0.3163  3.5140
   22DOPE  C210 2765   6.562   4.779   5.740 -0.3306 -0.6306  0.5612
   22DOPE  H10R 2766   6.551   4.734   5.640 -2.1901 -1.4234  1.0826
   22DOPE  C211 2767   6.474   4.901   5.755  0.0434  0.2432 -0.2714
   22DOPE  H11R 2768   6.458   4.918   5.864  0.8726 -1.5658  0.1837
   22DOPE  H11S 2769   6.368   4.881   5.729 -0.4853  0.5836  1.4843
   22DOPE  C212 2770   6.515   5.038   5.702 -0.3658  0.1673 -0.2735
   22DOPE  H12R 2771   6.625   5.043   5.716 -0.4430  0.2062  0.3396
   22DOPE  H12S 2772   6.483   5.116   5.775 -1.4980  0.1511 -0.7259
   22DOPE  C213 2773   6.464   5.075   5.563  0.2118 -0.4625 -0.3975
   22DOPE  H13R 2774   6.494   5.181   5.549  0.7606 -0.5176  0.3217
   22DOPE  H13S 2775   6.354   5.075   5.574  0.0998  0.2788 -1.3930
   22DOPE  C214 2776   6.512   4.983   5.448  0.2561  0.2720  0.3588
   22DOPE  H14R 2777   6.449   4.991   5.357  1.0223  0.2957 -0.1803
   22DOPE  H14S 2778   6.492   4.882   5.490  2.3088 -1.8857 -3.3059
   22DOPE  C215 2779   6.661   5.005   5.414 -0.2929  0.1051 -0.3658
   22DOPE  H15R 2780   6.715   4.990   5.510 -2.5221  0.7551  1.0479
   22DOPE  H15S 2781   6.679   5.107   5.374 -2.5510 -0.1247 -2.1589
   22DOPE  C216 2782   6.735   4.899   5.326  0.1874  1.0387  0.2140
   22DOPE  H16R 2783   6.694   4.907   5.223  0.2786  0.4237  0.1219
   22DOPE  H16S 2784   6.708   4.801   5.371  0.4734 -0.2465 -2.2301
   22DOPE  C217 2785   6.883   4.906   5.326  0.3795 -0.1194 -0.6938
   22DOPE  H17R 2786   6.929   4.834   5.255 -0.8643 -0.9784 -0.6640
   22DOPE  H17S 2787   6.909   4.862   5.425 -1.5404 -1.2515 -0.6465
   22DOPE  C218 2788   6.944   5.039   5.311  0.3941  0.6275 -0.1654
   22DOPE  H18R 2789   6.899   5.120   5.374  0.1246 -0.2532  0.7976
   22DOPE  H18S 2790   6.939   5.070   5.205 -0.0040 -0.4958 -0.4783
   22DOPE  H18T 2791   7.051   5.027   5.335  0.6791  1.0333 -1.1868
   22DOPE   C33 2792   7.156   5.214   6.415 -0.3575 -0.1634 -0.2219
   22DOPE   H3X 2793   7.250   5.209   6.474 -1.1544  2.1120  1.3730
   22DOPE   H3Y 2794   7.152   5.316   6.372 -0.1956  0.3594  0.9674
   22DOPE   C34 2795   7.153   5.121   6.291 -0.1721 -0.5554 -0.9588
   22DOPE   H4X 2796   7.124   5.018   6.321  0.5715 -1.1248 -2.1153
   22DOPE   H4Y 2797   7.074   5.163   6.225 -1.1390  0.0391  0.5184
   22DOPE   C35 2798   7.289   5.111   6.224  0.6697 -0.7119 -0.1293
   22DOPE   H5X 2799   7.365   5.078   6.299 -0.1487 -0.1641  0.9607
   22DOPE   H5Y 2800   7.320   5.210   6.186 -0.3610  0.9333  2.9544
   22DOPE   C36 2801   7.298   5.006   6.107 -0.0654  0.0978  0.1038
   22DOPE   H6X 2802   7.296   4.900   6.140  2.3285 -1.2286 -3.4374
   22DOPE   H6Y 2803   7.394   5.015   6.052  0.0332  0.4743  0.3293
   22DOPE   C37 2804   7.190   5.005   5.999 -0.7278  0.2610 -0.0161
   22DOPE   H7X 2805   7.093   4.962   6.033 -1.4222  1.4555 -0.4157
   22DOPE   H7Y 2806   7.170   5.112   5.973  1.8283  1.4114  2.2224
   22DOPE   C38 2807   7.225   4.915   5.882 -0.1341  0.8161 -0.2423
   22DOPE   H8X 2808   7.237   4.813   5.925  2.5139  1.2013  0.1011
   22DOPE   H8Y 2809   7.321   4.951   5.840  0.3056 -0.9574 -0.8007
   22DOPE   C39 2810   7.123   4.894   5.774  0.3426  0.0023  0.7015
   22DOPE   H9X 2811   7.034   4.836   5.803  1.1628 -1.6619  0.0457
   22DOPE  C310 2812   7.138   4.933   5.644 -0.8348 -0.2248 -0.4430
   22DOPE  H10X 2813   7.051   4.925   5.578 -2.4330  2.6185  1.1178
   22DOPE  C311 2814   7.257   5.001   5.569  0.4983 -0.2419  0.1177
   22DOPE  H11X 2815   7.222   5.083   5.502  2.4589  0.0432 -0.6290
   22DOPE  H11Y 2816   7.327   5.046   5.644  0.1516 -1.1738  1.0159
   22DOPE  C312 2817   7.333   4.904   5.489 -0.4811  0.2978  0.3193
   22DOPE  H12X 2818   7.360   4.812   5.546 -2.1291 -0.0012  0.6489
   22DOPE  H12Y 2819   7.430   4.955   5.467 -1.1230  1.3747 -0.1013
   22DOPE  C313 2820   7.261   4.870   5.351 -0.3286  0.4950 -0.4213
   22DOPE  H13X 2821   7.155   4.844   5.370  0.0782 -1.7814 -0.9503
   22DOPE  H13Y 2822   7.256   4.957   5.283  1.4759  0.5827 -0.5011
   22DOPE  C314 2823   7.341   4.767   5.278 -0.8757  0.7216 -0.2910
   22DOPE  H14X 2824   7.344   4.668   5.328 -1.9794  0.4378 -0.7579
   22DOPE  H14Y 2825   7.445   4.806   5.271 -1.4984  2.4571 -0.4353
   22DOPE  C315 2826   7.296   4.754   5.131 -0.1837 -0.2771 -0.0270
   22DOPE  H15X 2827   7.282   4.855   5.087 -0.8496 -0.4182 -0.1492
   22DOPE  H15Y 2828   7.197   4.705   5.140 -1.6208  2.7353  2.0624
   22DOPE  C316 2829   7.390   4.669   5.054  0.2755  0.4566 -0.1203
   22DOPE  H16X 2830   7.404   4.578   5.116  1.7909  1.2041  0.6901
   22DOPE  H16Y 2831   7.495   4.707   5.052  0.2819  0.5866  1.7194
   22DOPE  C317 2832   7.346   4.631   4.912  0.4197  0.6960  0.2965
   22DOPE  H17X 2833   7.260   4.562   4.919  1.4384 -0.5953  0.3892
   22DOPE  H17Y 2834   7.308   4.717   4.852 -0.6713  1.0026  1.3859
   22DOPE  C318 2835   7.457   4.563   4.830 -0.4214  0.3885  0.6964
   22DOPE  H18X 2836   7.548   4.622   4.810  0.1402 -1.0617 -1.3749
   22DOPE  H18Y 2837   7.497   4.468   4.873 -0.7018 -1.3413 -2.5129
   22DOPE  H18Z 2838   7.414   4.545   4.729 -0.1454  0.0928  0.6308
   23DOPE     N 2839   3.187   1.000   6.956  0.3188 -0.1709  0.3801
   23DOPE   HN1 2840   3.278   1.027   6.997 -0.1936  2.1771  0.1333
   23DOPE   HN2 2841   3.110   1.020   7.023 -1.3759  0.0621 -1.5106
   23DOPE   HN3 2842   3.195   0.897   6.949  0.2955 -0.3150  2.1150
   23DOPE   C12 2843   3.168   1.052   6.814  0.5734  0.4964 -0.0819
   23DOPE  H12A 2844   3.191   1.160   6.805 -0.5276  0.7112 -0.5718
   23DOPE  H12B 2845   3.060   1.037   6.792  1.1171 -2.3614 -1.3470
   23DOPE   C11 2846   3.235   0.967   6.707  0.1840 -0.1425  0.8407
   23DOPE  H11A 2847   3.193   1.003   6.610 -0.7556 -0.2519  1.1903
   23DOPE  H11B 2848   3.203   0.864   6.732  2.4869 -1.0213  0.3784
   23DOPE     P 2849   3.481   1.046   6.642  0.4113 -0.1848  0.1511
   23DOPE   O13 2850   3.612   0.982   6.662  0.6977  0.6202  0.1560
   23DOPE   O14 2851   3.455   1.192   6.671 -0.3983  0.3445 -0.2266
   23DOPE   O11 2852   3.435   1.009   6.498  0.4844  0.0893  0.1118
   23DOPE   O12 2853   3.375   0.966   6.725 -0.0130 -1.2155 -0.1141
   23DOPE    C1 2854   3.451   0.880   6.451  0.1316  0.8731 -0.2866
   23DOPE    HA 2855   3.349   0.850   6.417 -0.0238  0.7291  0.2970
   23DOPE    HB 2856   3.480   0.810   6.532  0.7961  0.4912 -0.8422
   23DOPE    C2 2857   3.548   0.874   6.343 -0.1630  0.0490  0.0697
   23DOPE    HS 2858   3.640   0.927   6.376 -0.9709  1.0236  0.7812
   23DOPE   O21 2859   3.487   0.941   6.225 -0.7629  0.4968 -0.7767
   23DOPE   C21 2860   3.510   1.069   6.214  0.0091 -0.0950 -0.4205
   23DOPE   O22 2861   3.568   1.141   6.294 -0.0520  0.4706  0.4243
   23DOPE   C22 2862   3.435   1.125   6.093  0.3748 -0.9590  0.2129
   23DOPE   H2R 2863   3.438   1.236   6.098 -2.0231 -0.8352  0.5309
   23DOPE   H2S 2864   3.326   1.106   6.110 -0.0730  1.5248  0.5432
   23DOPE    C3 2865   3.577   0.724   6.296  0.5750 -0.4298 -0.4135
   23DOPE    HX 2866   3.479   0.688   6.260  0.4065  0.7127 -1.1560
   23DOPE    HY 2867   3.606   0.669   6.388 -1.1434 -0.3349  0.2270
   23DOPE   O31 2868   3.674   0.721   6.194 -0.6482 -0.1230  0.4402
   23DOPE   C31 2869   3.684   0.607   6.139  0.2979 -0.0005 -0.4375
   23DOPE   O32 2870   3.611   0.513   6.157  0.8033 -0.1124 -0.1267
   23DOPE   C32 2871   3.819   0.604   6.063  0.2106  0.4256  0.0994
   23DOPE   H2X 2872   3.863   0.706   6.072  0.5120  0.4197 -1.1891
   23DOPE   H2Y 2873   3.890   0.534   6.111 -1.2688 -0.7044  0.7454
   23DOPE   C23 2874   3.467   1.078   5.950  0.0662 -0.0317 -0.2853
   23DOPE   H3R 2875   3.490   0.970   5.952 -0.0249 -0.0419  0.9441
   23DOPE   H3S 2876   3.566   1.125   5.929 -1.4661  2.8217 -1.7897
   23DOPE   C24 2877   3.365   1.123   5.837  0.1803  0.2449 -0.0440
   23DOPE   H4R 2878   3.365   1.232   5.858  1.1917 -0.3274  3.7426
   23DOPE   H4S 2879   3.261   1.090   5.862  0.1563  0.8587  0.6855
   23DOPE   C25 2880   3.415   1.082   5.698 -0.3096 -0.0938  0.5200
   23DOPE   H5R 2881   3.332   1.067   5.626 -0.6495  0.0039  0.8889
   23DOPE   H5S 2882   3.467   0.984   5.696  0.8645  0.4579 -2.8244
   23DOPE   C26 2883   3.517   1.183   5.637 -0.3021  0.6808  0.1354
   23DOPE   H6R 2884   3.600   1.198   5.708 -0.6162 -1.9522  1.1804
   23DOPE   H6S 2885   3.458   1.276   5.621  0.4484  1.1260 -0.0870
   23DOPE   C27 2886   3.574   1.131   5.502 -0.0466 -0.3523  0.1461
   23DOPE   H7R 2887   3.491   1.115   5.429 -0.5493  3.6170 -0.3698
   23DOPE   H7S 2888   3.617   1.032   5.526 -0.2086  0.2056  3.0979
   23DOPE   C28 2889   3.679   1.222   5.433  0.6386  0.7517 -0.1530
   23DOPE   H8R 2890   3.734   1.165   5.355  1.0814 -0.1397  0.7876
   23DOPE   H8S 2891   3.756   1.231   5.513  0.5815 -1.4540  0.2105
   23DOPE   C29 2892   3.631   1.349   5.365 -0.9507  0.1183 -1.0529
   23DOPE   H9R 2893   3.600   1.418   5.445  0.2957 -1.4473  0.8827
   23DOPE  C210 2894   3.613   1.366   5.235 -0.4478 -0.2417 -0.0965
   23DOPE  H10R 2895   3.591   1.469   5.205 -1.2732 -0.4744 -0.2997
   23DOPE  C211 2896   3.637   1.265   5.128  1.1240  0.8008  0.5165
   23DOPE  H11R 2897   3.609   1.160   5.153 -0.2432  1.0847  0.2452
   23DOPE  H11S 2898   3.744   1.262   5.100  0.6052  3.7473 -2.4869
   23DOPE  C212 2899   3.548   1.303   5.005  0.5110 -0.6251  0.0934
   23DOPE  H12R 2900   3.566   1.408   4.972  0.5220 -1.3496 -2.4298
   23DOPE  H12S 2901   3.440   1.291   5.029  0.5828 -0.9918  0.2341
   23DOPE  C213 2902   3.562   1.207   4.882 -0.2352 -0.0074  0.2762
   23DOPE  H13R 2903   3.539   1.105   4.919 -0.0924  0.1649  0.8399
   23DOPE  H13S 2904   3.666   1.226   4.848 -0.7873 -0.6453 -1.9493
   23DOPE  C214 2905   3.473   1.231   4.754  0.0065 -0.1518  0.1725
   23DOPE  H14R 2906   3.510   1.185   4.660 -0.1082 -3.0959  1.4660
   23DOPE  H14S 2907   3.477   1.342   4.747 -2.6313 -0.0393 -0.7128
   23DOPE  C215 2908   3.334   1.187   4.784  0.3403 -0.0241 -0.0746
   23DOPE  H15R 2909   3.305   1.241   4.876  1.7697  2.3837 -0.9411
   23DOPE  H15S 2910   3.335   1.077   4.799  0.4110  0.0886  0.7687
   23DOPE  C216 2911   3.235   1.229   4.671 -0.5821  0.1684 -0.9423
   23DOPE  H16R 2912   3.139   1.174   4.687  0.4887 -1.6163 -0.2972
   23DOPE  H16S 2913   3.280   1.202   4.573  0.0498  0.6469 -0.7893
   23DOPE  C217 2914   3.211   1.382   4.656  0.7062  0.0349  0.0403
   23DOPE  H17R 2915   3.154   1.391   4.561  1.4464  0.7636 -0.3456
   23DOPE  H17S 2916   3.309   1.430   4.636  0.4227  0.7208  0.2683
   23DOPE  C218 2917   3.132   1.441   4.773  0.1320 -0.6937 -0.1873
   23DOPE  H18R 2918   3.062   1.364   4.811 -1.4476  1.8966  2.6518
   23DOPE  H18S 2919   3.079   1.537   4.755  2.8022  0.7422 -0.9136
   23DOPE  H18T 2920   3.202   1.454   4.859  1.1325  0.8545 -1.1735
   23DOPE   C33 2921   3.802   0.569   5.913 -0.0248  0.2265 -0.7746
   23DOPE   H3X 2922   3.889   0.607   5.857  1.4669 -0.4246  0.9979
   23DOPE   H3Y 2923   3.714   0.623   5.870  0.7004  1.1509 -1.1357
   23DOPE   C34 2924   3.799   0.419   5.885  0.2880 -0.3443 -0.5054
   23DOPE   H4X 2925   3.888   0.367   5.925 -0.2817 -0.0051  1.3076
   23DOPE   H4Y 2926   3.713   0.381   5.944 -0.0144 -1.9748 -1.9184
   23DOPE   C35 2927   3.791   0.381   5.732  0.3032 -0.4754 -0.5216
   23DOPE   H5X 2928   3.767   0.273   5.732  1.2713 -0.7270 -2.1532
   23DOPE   H5Y 2929   3.891   0.405   5.689  0.4600 -0.3508 -0.0964
   23DOPE   C36 2930   3.679   0.447   5.648  0.5796  0.4755 -0.1439
   23DOPE   H6X 2931   3.676   0.557   5.658  2.4093  0.6657 -1.1281
   23DOPE   H6Y 2932   3.582   0.399   5.672  0.9644 -0.5748 -0.5890
   23DOPE   C37 2933   3.696   0.426   5.494  0.5873 -0.2395 -0.9154
   23DOPE   H7X 2934   3.807   0.419   5.481  0.5237  0.1516 -1.7236
   23DOPE   H7Y 2935   3.650   0.332   5.456  0.7045  0.2900 -2.4559
   23DOPE   C38 2936   3.636   0.535   5.408 -0.6910  0.1766  0.1699
   23DOPE   H8X 2937   3.696   0.622   5.442 -0.9760  0.5505 -0.2702
   23DOPE   H8Y 2938   3.536   0.557   5.452 -1.4540  1.3606 -2.0085
   23DOPE   C39 2939   3.633   0.510   5.261  0.6216  0.0850  0.3037
   23DOPE   H9X 2940   3.576   0.422   5.228 -1.0697  0.8985  0.9216
   23DOPE  C310 2941   3.649   0.602   5.170 -0.2328 -0.5377  0.3268
   23DOPE  H10X 2942   3.621   0.572   5.067 -2.5598  1.5970  0.2272
   23DOPE  C311 2943   3.676   0.754   5.184 -0.3505 -0.2142  0.1987
   23DOPE  H11X 2944   3.659   0.788   5.289  0.2548 -1.3807  0.6921
   23DOPE  H11Y 2945   3.777   0.786   5.153 -1.0447  1.4796 -0.4412
   23DOPE  C312 2946   3.574   0.841   5.099 -0.3680  0.3004  0.1535
   23DOPE  H12X 2947   3.587   0.800   4.996 -0.8573 -1.9159  0.8980
   23DOPE  H12Y 2948   3.595   0.949   5.111 -0.0483  0.4131 -1.2283
   23DOPE  C313 2949   3.425   0.825   5.123  0.5735 -1.4544  0.1797
   23DOPE  H13X 2950   3.401   0.717   5.123  1.1748 -1.6093  1.3321
   23DOPE  H13Y 2951   3.421   0.866   5.226  0.8854 -0.3265 -0.2331
   23DOPE  C314 2952   3.340   0.902   5.018 -0.0969 -0.2676 -0.2404
   23DOPE  H14X 2953   3.376   0.881   4.915  0.6906  3.3301 -0.8433
   23DOPE  H14Y 2954   3.364   1.010   5.032 -1.1262 -0.1849  1.2198
   23DOPE  C315 2955   3.193   0.897   5.032 -1.0017  0.1191 -0.1511
   23DOPE  H15X 2956   3.156   0.867   4.932 -1.7528 -1.2282  0.5060
   23DOPE  H15Y 2957   3.145   0.994   5.058 -1.0096  0.1177 -0.1606
   23DOPE  C316 2958   3.136   0.786   5.128 -0.3703  0.8993 -0.0985
   23DOPE  H16X 2959   3.189   0.796   5.225 -1.6219  0.2785  0.6652
   23DOPE  H16Y 2960   3.163   0.685   5.090  0.6317  0.5200  1.5343
   23DOPE  C317 2961   2.989   0.804   5.141 -0.0841 -0.1210  0.3077
   23DOPE  H17X 2962   2.960   0.910   5.159 -1.4300 -0.6553  1.4590
   23DOPE  H17Y 2963   2.936   0.780   5.047 -1.2247  0.7371  0.7055
   23DOPE  C318 2964   2.905   0.721   5.241 -0.1963 -0.3500  1.4143
   23DOPE  H18X 2965   2.938   0.745   5.345  0.0778  0.3760  1.1640
   23DOPE  H18Y 2966   2.798   0.751   5.237  0.1979  1.0995  1.3070
   23DOPE  H18Z 2967   2.919   0.612   5.227 -0.0181 -0.3580  1.6472
   24DOPE     N 2968   5.487   6.357   7.090  0.0588 -0.1798  0.2550
   24DOPE   HN1 2969   5.491   6.256   7.068 -2.8683 -0.0662 -1.4077
   24DOPE   HN2 2970   5.581   6.397   7.108 -0.7037  1.3698  1.1148
   24DOPE   HN3 2971   5.428   6.383   7.172 -2.7761 -3.0417 -0.6499
   24DOPE   C12 2972   5.428   6.440   6.982  0.2131 -0.0065  0.9590
   24DOPE  H12A 2973   5.320   6.415   6.977  0.2194  0.2012 -3.1906
   24DOPE  H12B 2974   5.477   6.420   6.884 -0.8672 -2.0652  0.7942
   24DOPE   C11 2975   5.449   6.587   7.022 -0.1286  0.3584  0.4946
   24DOPE  H11A 2976   5.406   6.645   6.937 -0.0054 -1.6549 -1.0125
   24DOPE  H11B 2977   5.556   6.619   7.022 -0.1694  0.5360 -0.5406
   24DOPE     P 2978   5.236   6.677   7.136 -0.3221  0.5199  0.1508
   24DOPE   O13 2979   5.198   6.719   7.273 -0.0313  0.0732 -0.1838
   24DOPE   O14 2980   5.143   6.588   7.061  0.1912 -0.0713  0.5700
   24DOPE   O11 2981   5.258   6.811   7.057 -0.3366 -0.4318  0.7880
   24DOPE   O12 2982   5.380   6.623   7.140  0.4000  0.1731 -0.2458
   24DOPE    C1 2983   5.146   6.880   6.992 -0.1228  0.1389  0.5019
   24DOPE    HA 2984   5.187   6.978   6.961  0.5778  0.1952  1.5416
   24DOPE    HB 2985   5.070   6.894   7.072 -1.6854 -1.3991 -0.6154
   24DOPE    C2 2986   5.107   6.819   6.858 -0.0403  0.1473  0.0194
   24DOPE    HS 2987   5.071   6.718   6.887  0.4684  0.2032  0.9183
   24DOPE   O21 2988   5.219   6.813   6.763  0.4999  1.0242  0.0120
   24DOPE   C21 2989   5.239   6.693   6.711 -0.4874 -0.1077  0.0075
   24DOPE   O22 2990   5.182   6.588   6.728  0.5629 -0.2127  0.5649
   24DOPE   C22 2991   5.368   6.704   6.627  0.4849  0.0694 -0.1738
   24DOPE   H2R 2992   5.455   6.698   6.696  0.8023 -0.2038 -0.5915
   24DOPE   H2S 2993   5.363   6.803   6.576 -0.8848  0.1577  0.0847
   24DOPE    C3 2994   5.004   6.902   6.780  0.0762 -0.4588 -0.4202
   24DOPE    HX 2995   5.046   7.003   6.756 -0.1858 -0.0696  0.7048
   24DOPE    HY 2996   4.922   6.927   6.850  1.3622 -0.4447  1.1497
   24DOPE   O31 2997   4.958   6.831   6.660 -0.1600  0.2933 -0.2902
   24DOPE   C31 2998   4.867   6.735   6.683  0.0727 -0.1825  0.1795
   24DOPE   O32 2999   4.840   6.690   6.790  0.6836  0.8377  0.2280
   24DOPE   C32 3000   4.814   6.700   6.546  0.6811 -0.9470 -0.1657
   24DOPE   H2X 3001   4.711   6.671   6.576  0.3474 -0.3496 -0.7022
   24DOPE   H2Y 3002   4.812   6.788   6.479  0.3214 -0.7949  0.0423
   24DOPE   C23 3003   5.368   6.594   6.522  1.0670  0.5925  0.9047
   24DOPE   H3R 3004   5.345   6.493   6.563 -2.4051  1.0054  0.3169
   24DOPE   H3S 3005   5.470   6.584   6.479  1.3598  0.6521  1.5754
   24DOPE   C24 3006   5.268   6.618   6.406 -0.8998 -0.0258  0.6745
   24DOPE   H4R 3007   5.281   6.721   6.367 -0.1033 -1.2592 -2.6598
   24DOPE   H4S 3008   5.160   6.614   6.431 -1.6661  1.1668 -2.0286
   24DOPE   C25 3009   5.300   6.520   6.291  0.2184 -0.1918  0.3447
   24DOPE   H5R 3010   5.321   6.417   6.326 -1.4407 -0.2564  1.2368
   24DOPE   H5S 3011   5.387   6.549   6.228  0.5636 -0.3580  0.7370
   24DOPE   C26 3012   5.195   6.517   6.182  0.4012  0.5446 -0.5937
   24DOPE   H6R 3013   5.172   6.623   6.157  0.1086  0.4531 -0.7142
   24DOPE   H6S 3014   5.104   6.475   6.229  0.7322 -0.8165 -1.1188
   24DOPE   C27 3015   5.229   6.438   6.057 -0.4211  0.3117  0.0673
   24DOPE   H7R 3016   5.202   6.331   6.074  0.5492  0.1308  0.5458
   24DOPE   H7S 3017   5.338   6.426   6.043 -0.3240  0.9182  0.3071
   24DOPE   C28 3018   5.169   6.484   5.922 -0.5787  0.3530 -0.0593
   24DOPE   H8R 3019   5.202   6.414   5.842 -0.2832  1.1077 -0.6178
   24DOPE   H8S 3020   5.195   6.584   5.880  0.0018 -0.2656 -1.2405
   24DOPE   C29 3021   5.020   6.471   5.938 -0.1579 -0.1821  0.0885
   24DOPE   H9R 3022   4.966   6.549   5.992 -0.7645 -2.0891  2.3992
   24DOPE  C210 3023   4.942   6.375   5.881  0.4387  0.2882 -0.3655
   24DOPE  H10R 3024   4.837   6.368   5.911  1.3395 -0.4016  3.0231
   24DOPE  C211 3025   4.993   6.256   5.792 -0.0551 -0.5225 -0.7338
   24DOPE  H11R 3026   5.068   6.209   5.859  0.5535  1.4668  0.0814
   24DOPE  H11S 3027   5.059   6.285   5.707  1.5654 -1.3455  0.1860
   24DOPE  C212 3028   4.879   6.170   5.731  0.8783 -0.0762 -0.1756
   24DOPE  H12R 3029   4.838   6.214   5.638  1.3488 -1.6037 -1.1369
   24DOPE  H12S 3030   4.798   6.165   5.807  0.7567  0.3611 -0.2734
   24DOPE  C213 3031   4.927   6.033   5.686  0.8046 -0.7307  0.1022
   24DOPE  H13R 3032   4.967   5.970   5.769  0.5746 -0.8554  0.1200
   24DOPE  H13S 3033   5.016   6.051   5.623 -1.1248  1.4671 -2.1731
   24DOPE  C214 3034   4.809   5.961   5.613 -0.0647  0.3143  0.7657
   24DOPE  H14R 3035   4.786   6.020   5.522  1.4364 -1.8303 -1.1388
   24DOPE  H14S 3036   4.723   5.953   5.683  1.2448 -1.8450  2.2767
   24DOPE  C215 3037   4.855   5.825   5.552 -0.6518 -0.4494 -0.1931
   24DOPE  H15R 3038   4.892   5.756   5.631 -4.2732 -1.2351  1.0223
   24DOPE  H15S 3039   4.943   5.851   5.490 -1.1126  1.0095 -0.2643
   24DOPE  C216 3040   4.744   5.764   5.478  0.5059  0.6871 -0.3542
   24DOPE  H16R 3041   4.713   5.848   5.412 -1.2780  1.9947  1.9986
   24DOPE  H16S 3042   4.663   5.749   5.552  2.6098  0.9364  2.1241
   24DOPE  C217 3043   4.776   5.641   5.397 -0.1268  0.3843  0.5311
   24DOPE  H17R 3044   4.679   5.592   5.375  1.2182 -0.8619 -3.3668
   24DOPE  H17S 3045   4.828   5.568   5.462  2.5866 -0.0535 -1.8939
   24DOPE  C218 3046   4.859   5.669   5.279  0.7860  0.1219 -0.0596
   24DOPE  H18R 3047   4.859   5.585   5.206 -1.7974 -0.8802  0.9835
   24DOPE  H18S 3048   4.964   5.685   5.310  1.4570 -0.9630 -1.6396
   24DOPE  H18T 3049   4.809   5.751   5.223 -1.1704  0.3996  1.9762
   24DOPE   C33 3050   4.875   6.583   6.475  0.3547 -0.2220  0.2271
   24DOPE   H3X 3051   4.937   6.512   6.534 -0.0562  0.7060  1.8220
   24DOPE   H3Y 3052   4.937   6.620   6.390  1.8028 -1.0090  0.9097
   24DOPE   C34 3053   4.767   6.494   6.399 -1.3207 -0.0070  0.4354
   24DOPE   H4X 3054   4.812   6.397   6.369  0.2177  1.3106 -1.7703
   24DOPE   H4Y 3055   4.686   6.465   6.469 -1.8789  3.8976  1.6565
   24DOPE   C35 3056   4.713   6.557   6.270 -0.0157 -0.5305 -0.8817
   24DOPE   H5X 3057   4.790   6.564   6.191  0.7149  0.2644 -0.1211
   24DOPE   H5Y 3058   4.666   6.653   6.302  1.5634 -0.3448  1.0806
   24DOPE   C36 3059   4.594   6.486   6.214  0.1770  0.2260  0.4800
   24DOPE   H6X 3060   4.539   6.554   6.145 -2.4190 -0.0503  2.1359
   24DOPE   H6Y 3061   4.521   6.463   6.295 -0.9652 -1.9771 -1.0909
   24DOPE   C37 3062   4.636   6.361   6.136 -0.1141 -0.3729  0.3204
   24DOPE   H7X 3063   4.707   6.391   6.056  1.3048 -1.7994  0.9668
   24DOPE   H7Y 3064   4.702   6.304   6.206  2.0118 -0.4769 -1.6626
   24DOPE   C38 3065   4.521   6.275   6.099  0.2459  0.4699  0.9593
   24DOPE   H8X 3066   4.455   6.325   6.025 -1.9080 -1.7874  1.2199
   24DOPE   H8Y 3067   4.460   6.246   6.188 -1.5155  3.5541  0.9132
   24DOPE   C39 3068   4.565   6.145   6.044  0.0294 -0.1488 -0.0742
   24DOPE   H9X 3069   4.622   6.076   6.109  0.8050  0.0518 -0.5288
   24DOPE  C310 3070   4.551   6.104   5.920  0.9018  0.3015  0.0255
   24DOPE  H10X 3071   4.593   6.005   5.898  2.7022  0.4457  2.3222
   24DOPE  C311 3072   4.490   6.178   5.805 -0.3965 -0.3381 -0.3617
   24DOPE  H11X 3073   4.498   6.287   5.823 -2.8281 -0.0966 -0.4548
   24DOPE  H11Y 3074   4.557   6.161   5.718 -0.5470 -0.1289 -0.5209
   24DOPE  C312 3075   4.343   6.151   5.765  0.1606  0.0229  0.0179
   24DOPE  H12X 3076   4.275   6.211   5.829 -0.7651 -0.6787 -0.2925
   24DOPE  H12Y 3077   4.317   6.043   5.754 -0.6821  0.4733 -3.4398
   24DOPE  C313 3078   4.328   6.185   5.616  0.1441  0.4297  0.5675
   24DOPE  H13X 3079   4.356   6.289   5.589  0.3129  0.2956  0.2096
   24DOPE  H13Y 3080   4.388   6.116   5.551  0.5823  1.5791 -0.2835
   24DOPE  C314 3081   4.186   6.162   5.558  0.2373 -0.0196 -0.2631
   24DOPE  H14X 3082   4.116   6.225   5.618 -0.9773 -0.6731 -0.9489
   24DOPE  H14Y 3083   4.155   6.057   5.575  0.0946  0.3036  1.6763
   24DOPE  C315 3084   4.175   6.203   5.414 -0.3584 -0.3064  0.3152
   24DOPE  H15X 3085   4.253   6.136   5.371  1.8481  1.0869  1.8760
   24DOPE  H15Y 3086   4.189   6.311   5.390  0.7646 -0.6426 -0.6358
   24DOPE  C316 3087   4.033   6.169   5.362  0.0892 -0.0816  0.5004
   24DOPE  H16X 3088   3.954   6.230   5.410  0.6449  0.4409  0.7665
   24DOPE  H16Y 3089   4.012   6.066   5.397 -1.2401  0.2209  0.6342
   24DOPE  C317 3090   4.002   6.175   5.212 -0.4277 -0.1137  0.4989
   24DOPE  H17X 3091   4.063   6.101   5.157  1.0939  3.0812 -2.4811
   24DOPE  H17Y 3092   3.894   6.151   5.199  0.1247 -1.6891 -1.6368
   24DOPE  C318 3093   4.035   6.313   5.152 -0.0516  0.1981 -0.2853
   24DOPE  H18X 3094   4.135   6.352   5.181 -0.2935  1.7227 -1.4119
   24DOPE  H18Y 3095   4.045   6.306   5.042 -1.8630  1.4398 -0.5504
   24DOPE  H18Z 3096   3.964   6.393   5.180 -1.8203 -1.0574 -1.0584
   25DOPE     N 3097   6.511   5.279   7.184  1.2894  0.2627 -0.0539
   25DOPE   HN1 3098   6.544   5.181   7.189 -1.7150 -0.8202  0.8398
   25DOPE   HN2 3099   6.573   5.342   7.240  1.3457  0.9290 -0.8463
   25DOPE   HN3 3100   6.413   5.290   7.217  0.9139 -1.6324 -0.4309
   25DOPE   C12 3101   6.520   5.294   7.033 -0.1448 -0.3093 -0.2852
   25DOPE  H12A 3102   6.470   5.391   7.010  0.2406  0.5095  2.0456
   25DOPE  H12B 3103   6.456   5.212   6.995  0.7589 -1.5759  0.8684
   25DOPE   C11 3104   6.661   5.295   6.974  0.4329 -0.6239 -0.3904
   25DOPE  H11A 3105   6.660   5.312   6.864  1.3586 -0.0801 -0.3247
   25DOPE  H11B 3106   6.714   5.199   6.994  0.4514 -0.9088 -1.7114
   25DOPE     P 3107   6.735   5.546   6.985 -0.0017  0.1583  0.0403
   25DOPE   O13 3108   6.839   5.622   7.059 -0.7540 -0.0974 -0.6583
   25DOPE   O14 3109   6.603   5.613   7.003  0.2629  0.1341 -0.3233
   25DOPE   O11 3110   6.761   5.532   6.828 -0.3110  0.5811 -0.2091
   25DOPE   O12 3111   6.726   5.403   7.041  0.0485  0.5221 -0.6172
   25DOPE    C1 3112   6.882   5.476   6.775  0.2610 -0.2841  0.7167
   25DOPE    HA 3113   6.863   5.372   6.741  4.4485 -0.8876 -0.2921
   25DOPE    HB 3114   6.958   5.472   6.856  0.3741  1.2743  0.7083
   25DOPE    C2 3115   6.929   5.573   6.657  0.5092  0.3111 -0.5570
   25DOPE    HS 3116   6.906   5.674   6.699 -0.2917  0.4908 -1.3866
   25DOPE   O21 3117   6.854   5.550   6.538  0.3151 -0.6220  0.8764
   25DOPE   C21 3118   6.793   5.647   6.480 -0.1049 -0.8304  1.0700
   25DOPE   O22 3119   6.791   5.766   6.522 -0.4074 -0.8415  0.3726
   25DOPE   C22 3120   6.718   5.604   6.350 -0.1491  0.4466 -0.7045
   25DOPE   H2R 3121   6.619   5.654   6.347  0.4010  1.5411 -1.1126
   25DOPE   H2S 3122   6.698   5.496   6.369  0.4996  0.6379  1.3162
   25DOPE    C3 3123   7.074   5.556   6.621 -1.1841  0.0346  0.5997
   25DOPE    HX 3124   7.109   5.453   6.596  0.9406  1.1205 -1.1853
   25DOPE    HY 3125   7.128   5.592   6.711 -2.4306  0.6006  1.1524
   25DOPE   O31 3126   7.111   5.639   6.508  0.2123  0.1648 -0.2972
   25DOPE   C31 3127   7.143   5.770   6.529  0.2673  0.0202  0.4397
   25DOPE   O32 3128   7.146   5.821   6.642 -0.1250  0.2369  0.0406
   25DOPE   C32 3129   7.208   5.817   6.399 -0.4116  0.5203 -0.8796
   25DOPE   H2X 3130   7.315   5.789   6.402 -0.3969  0.6597  0.8439
   25DOPE   H2Y 3131   7.151   5.771   6.315 -1.9005  0.3468  0.1706
   25DOPE   C23 3132   6.799   5.625   6.231 -0.2309 -0.2587 -0.0907
   25DOPE   H3R 3133   6.762   5.559   6.150  0.5249  0.5318 -1.1046
   25DOPE   H3S 3134   6.909   5.615   6.244 -0.4502 -0.6071  1.8216
   25DOPE   C24 3135   6.771   5.775   6.184  0.8690  0.3935  0.1649
   25DOPE   H4R 3136   6.808   5.846   6.261  0.7364  0.0014  0.5920
   25DOPE   H4S 3137   6.660   5.783   6.190  1.0071  2.3442  1.1726
   25DOPE   C25 3138   6.804   5.810   6.039 -0.2949  0.1943  0.3347
   25DOPE   H5R 3139   6.904   5.771   6.011 -0.9526 -1.1409 -0.1958
   25DOPE   H5S 3140   6.802   5.921   6.026  1.2877 -0.0274 -2.4475
   25DOPE   C26 3141   6.712   5.746   5.936  0.1178  0.0355 -0.4636
   25DOPE   H6R 3142   6.610   5.784   5.960  0.2852 -0.2563  0.7664
   25DOPE   H6S 3143   6.703   5.635   5.937  2.6248 -0.3147 -3.0164
   25DOPE   C27 3144   6.746   5.789   5.794 -0.5726 -0.4609  0.0268
   25DOPE   H7R 3145   6.843   5.751   5.754 -0.5788 -0.8257  0.3490
   25DOPE   H7S 3146   6.748   5.900   5.802  1.4666 -0.1963 -2.6949
   25DOPE   C28 3147   6.639   5.756   5.693  0.0639  0.0971 -0.6718
   25DOPE   H8R 3148   6.553   5.816   5.732  0.7846  2.0272 -1.9365
   25DOPE   H8S 3149   6.606   5.652   5.715 -0.9950  0.2776 -1.3400
   25DOPE   C29 3150   6.677   5.770   5.550 -0.0455  0.5543 -0.0971
   25DOPE   H9R 3151   6.717   5.866   5.514  1.8517 -0.0155  0.3488
   25DOPE  C210 3152   6.669   5.675   5.460 -0.4123  1.1356  0.4350
   25DOPE  H10R 3153   6.705   5.691   5.357  0.9662  0.5032  0.7948
   25DOPE  C211 3154   6.613   5.530   5.485  0.3691 -0.4790 -0.0019
   25DOPE  H11R 3155   6.555   5.500   5.395  2.1026 -1.1197 -0.9539
   25DOPE  H11S 3156   6.540   5.536   5.568 -0.3387 -0.2311 -0.6300
   25DOPE  C212 3157   6.716   5.416   5.507  0.7569 -0.2616  0.1290
   25DOPE  H12R 3158   6.793   5.424   5.428  0.3747  1.0664 -0.1288
   25DOPE  H12S 3159   6.666   5.317   5.510 -1.7054  0.9254  0.2424
   25DOPE  C213 3160   6.780   5.443   5.641 -0.6692  0.3973  0.7644
   25DOPE  H13R 3161   6.694   5.450   5.711 -0.9559  2.8565  0.2575
   25DOPE  H13S 3162   6.851   5.528   5.644 -1.4161  1.0247  3.2057
   25DOPE  C214 3163   6.846   5.312   5.684  0.0336 -0.6887  0.3179
   25DOPE  H14R 3164   6.928   5.290   5.611 -2.2216 -2.2413 -1.8974
   25DOPE  H14S 3165   6.773   5.233   5.656  0.7722 -0.3253 -3.0893
   25DOPE  C215 3166   6.891   5.314   5.823  0.0227 -0.4388  0.1934
   25DOPE  H15R 3167   6.924   5.413   5.860 -0.1508 -0.0472 -0.6792
   25DOPE  H15S 3168   6.961   5.231   5.847 -1.9118 -2.8643 -2.0014
   25DOPE  C216 3169   6.772   5.285   5.919 -0.4892 -0.5876  0.4829
   25DOPE  H16R 3170   6.708   5.202   5.885  0.0423 -0.4432 -0.9042
   25DOPE  H16S 3171   6.698   5.368   5.911 -0.2713 -0.5624 -1.6010
   25DOPE  C217 3172   6.823   5.274   6.063  0.3216 -0.3364 -0.0318
   25DOPE  H17R 3173   6.876   5.372   6.063 -1.5341  0.7250 -1.0018
   25DOPE  H17S 3174   6.887   5.185   6.077 -0.4591 -0.7506  1.0845
   25DOPE  C218 3175   6.712   5.269   6.165  0.6767  0.4724 -0.3258
   25DOPE  H18R 3176   6.746   5.288   6.269  0.2155 -0.4073 -0.0021
   25DOPE  H18S 3177   6.661   5.170   6.170 -1.1582  1.4285  1.5523
   25DOPE  H18T 3178   6.636   5.347   6.143  0.4091  0.1357 -0.6181
   25DOPE   C33 3179   7.201   5.969   6.383 -0.3170  0.1281 -0.5313
   25DOPE   H3X 3180   7.253   6.042   6.448  1.1779  0.5182 -2.0977
   25DOPE   H3Y 3181   7.095   6.003   6.382 -0.2224  0.4240 -1.8869
   25DOPE   C34 3182   7.248   6.005   6.248  0.0248  0.2639  0.0319
   25DOPE   H4X 3183   7.203   5.937   6.172  0.1395 -0.1313  0.3191
   25DOPE   H4Y 3184   7.208   6.106   6.221 -2.0242 -0.4109  0.3682
   25DOPE   C35 3185   7.406   6.007   6.243  0.3102 -0.2101 -0.4076
   25DOPE   H5X 3186   7.448   5.907   6.269 -1.5331 -0.8039  0.4224
   25DOPE   H5Y 3187   7.435   6.068   6.331  1.8528 -1.9527  0.3695
   25DOPE   C36 3188   7.462   6.056   6.113 -0.2367  0.4492 -0.4463
   25DOPE   H6X 3189   7.420   6.150   6.073 -0.6545  0.3591 -0.2211
   25DOPE   H6Y 3190   7.436   5.975   6.042 -0.4095 -0.5986  0.7651
   25DOPE   C37 3191   7.618   6.061   6.129 -0.7941  0.4932  0.8868
   25DOPE   H7X 3192   7.663   6.121   6.211 -0.3816 -2.2887  2.8525
   25DOPE   H7Y 3193   7.643   5.958   6.160 -2.8673 -0.2996  0.1269
   25DOPE   C38 3194   7.682   6.086   5.994 -0.0012 -0.0263 -0.2583
   25DOPE   H8X 3195   7.645   6.005   5.927 -2.4224 -0.5712  1.5709
   25DOPE   H8Y 3196   7.790   6.063   6.004  0.1671  0.8778  0.0862
   25DOPE   C39 3197   7.665   6.223   5.930  0.0714  0.2488  0.5855
   25DOPE   H9X 3198   7.560   6.250   5.913 -0.2159 -1.0975  0.1077
   25DOPE  C310 3199   7.760   6.302   5.871  0.0608 -0.7977  0.3515
   25DOPE  H10X 3200   7.731   6.398   5.827  1.2916  0.5229  2.2194
   25DOPE  C311 3201   7.906   6.261   5.866  0.6197  0.2869  0.4796
   25DOPE  H11X 3202   7.967   6.353   5.868 -1.0397  1.4963 -1.1782
   25DOPE  H11Y 3203   7.942   6.192   5.946  0.0652 -1.7103 -0.9046
   25DOPE  C312 3204   7.941   6.188   5.732  0.5033  0.3907  0.0376
   25DOPE  H12X 3205   7.879   6.097   5.721  1.8319 -0.5428  0.1043
   25DOPE  H12Y 3206   8.042   6.148   5.755  1.2670  2.9605  1.5680
   25DOPE  C313 3207   7.942   6.256   5.596 -0.0169  0.0866 -0.1431
   25DOPE  H13X 3208   7.841   6.298   5.576 -0.1399  0.3689  1.0001
   25DOPE  H13Y 3209   8.002   6.348   5.585 -0.3667  0.0546 -3.0650
   25DOPE  C314 3210   7.964   6.162   5.478  0.4467 -0.0541 -0.2363
   25DOPE  H14X 3211   7.885   6.084   5.485  1.4114 -1.0125  0.3624
   25DOPE  H14Y 3212   8.065   6.116   5.486 -0.0233 -0.9362  0.9849
   25DOPE  C315 3213   7.960   6.221   5.335 -0.2104 -0.1724 -0.0587
   25DOPE  H15X 3214   8.058   6.264   5.305 -0.7326  1.9526  1.0971
   25DOPE  H15Y 3215   7.884   6.301   5.333 -0.3352 -0.2631  0.8418
   25DOPE  C316 3216   7.921   6.115   5.233 -0.4141  0.4538  0.1533
   25DOPE  H16X 3217   7.828   6.063   5.264 -1.0438  1.8750  0.7514
   25DOPE  H16Y 3218   7.997   6.035   5.252  1.1437  1.6072 -1.0114
   25DOPE  C317 3219   7.911   6.162   5.089 -0.2673  0.1990 -0.0274
   25DOPE  H17X 3220   7.848   6.253   5.084 -0.9085 -0.0511  2.2550
   25DOPE  H17Y 3221   8.010   6.202   5.061  0.4968 -2.2093 -1.0331
   25DOPE  C318 3222   7.853   6.058   4.997 -0.0660 -0.4139  0.1318
   25DOPE  H18X 3223   7.821   6.109   4.903 -3.0604 -3.7837 -0.8870
   25DOPE  H18Y 3224   7.924   5.974   4.983  1.6978  0.9325  0.6093
   25DOPE  H18Z 3225   7.757   6.015   5.032  0.9350 -1.7840  1.2826
   26DOPE     N 3226   0.323   6.055   7.510 -0.1965  0.3475  0.3792
   26DOPE   HN1 3227   0.319   6.014   7.606 -1.3914 -0.6137 -0.0545
   26DOPE   HN2 3228   0.412   6.108   7.504  0.2415 -0.3533  0.5662
   26DOPE   HN3 3229   0.241   6.118   7.503  0.5746  1.5489  1.5557
   26DOPE   C12 3230   0.339   5.954   7.398 -0.0545 -0.0794 -0.1479
   26DOPE  H12A 3231   0.260   5.877   7.409  0.0912  0.0407  2.2773
   26DOPE  H12B 3232   0.442   5.915   7.410  0.1122  0.7063  1.1780
   26DOPE   C11 3233   0.336   6.024   7.262 -0.4276 -0.8199 -0.3252
   26DOPE  H11A 3234   0.236   6.070   7.250 -0.4467 -0.5538  0.7645
   26DOPE  H11B 3235   0.350   5.932   7.202  1.5628 -0.2205 -0.8819
   26DOPE     P 3236   0.548   6.125   7.134  0.3910 -0.2663  0.0003
   26DOPE   O13 3237   0.643   6.016   7.152  0.4441  0.0131 -0.3393
   26DOPE   O14 3238   0.610   6.259   7.127  0.4923  0.3592  0.0557
   26DOPE   O11 3239   0.473   6.096   6.995 -0.2801 -0.0002  0.3752
   26DOPE   O12 3240   0.437   6.121   7.247 -0.0896 -0.5464 -0.1050
   26DOPE    C1 3241   0.343   6.154   6.964 -0.1068  0.6057  0.4157
   26DOPE    HA 3242   0.281   6.196   7.046 -1.4660  0.4715 -0.5169
   26DOPE    HB 3243   0.276   6.075   6.925 -0.8370  1.5987 -0.4164
   26DOPE    C2 3244   0.354   6.253   6.846  0.3873 -0.2342  0.0324
   26DOPE    HS 3245   0.249   6.287   6.839  0.9391  2.3280  2.3965
   26DOPE   O21 3246   0.410   6.192   6.728  0.1760  0.3202  0.0881
   26DOPE   C21 3247   0.355   6.235   6.618  0.6940  0.3744 -0.1100
   26DOPE   O22 3248   0.250   6.296   6.612  0.6836  0.0109 -0.1973
   26DOPE   C22 3249   0.434   6.179   6.503 -0.3789  0.2412 -0.3092
   26DOPE   H2R 3250   0.499   6.098   6.542  0.7862  2.0108  1.6766
   26DOPE   H2S 3251   0.500   6.265   6.477  0.7080 -0.4612  0.0285
   26DOPE    C3 3252   0.443   6.367   6.887  0.0342 -0.4268 -0.1616
   26DOPE    HX 3253   0.547   6.328   6.882  0.1635  0.0146 -1.4372
   26DOPE    HY 3254   0.422   6.396   6.992 -1.0092  0.7344 -0.6642
   26DOPE   O31 3255   0.443   6.484   6.797  0.1260  0.2342 -0.7748
   26DOPE   C31 3256   0.378   6.585   6.846  0.0203  0.7592  0.1731
   26DOPE   O32 3257   0.289   6.589   6.933  0.1612 -0.0108 -0.1455
   26DOPE   C32 3258   0.418   6.712   6.765  0.1516  0.1610 -0.0648
   26DOPE   H2X 3259   0.417   6.792   6.842 -1.4151 -0.8462  1.0286
   26DOPE   H2Y 3260   0.519   6.697   6.721  0.4193  2.3026 -0.2943
   26DOPE   C23 3261   0.336   6.128   6.386 -0.9919 -0.1016  0.4023
   26DOPE   H3R 3262   0.253   6.201   6.380 -0.7117  0.1335 -1.6104
   26DOPE   H3S 3263   0.303   6.027   6.416  0.5616 -1.4873 -2.1430
   26DOPE   C24 3264   0.398   6.110   6.252  0.4677 -0.0397 -1.1672
   26DOPE   H4R 3265   0.447   6.206   6.226 -1.1049  2.0122  2.6981
   26DOPE   H4S 3266   0.324   6.070   6.179 -0.4448 -2.3529  0.8985
   26DOPE   C25 3267   0.518   6.003   6.254 -0.2794  0.2451  0.8585
   26DOPE   H5R 3268   0.478   5.915   6.309  0.2046 -1.2853 -1.1557
   26DOPE   H5S 3269   0.596   6.062   6.307 -0.2350  1.8833 -0.9133
   26DOPE   C26 3270   0.573   5.979   6.113 -1.4228  0.3127 -0.7826
   26DOPE   H6R 3271   0.589   6.073   6.057  0.2367  0.2265 -0.5021
   26DOPE   H6S 3272   0.510   5.910   6.052 -0.4336 -1.1413 -0.2049
   26DOPE   C27 3273   0.711   5.914   6.123  0.3515  0.1159 -0.1046
   26DOPE   H7R 3274   0.688   5.824   6.185 -0.2862  1.4311  1.6419
   26DOPE   H7S 3275   0.777   5.986   6.175  3.1818 -0.5317 -2.5250
   26DOPE   C28 3276   0.784   5.865   5.995 -0.2021  0.3153 -0.7349
   26DOPE   H8R 3277   0.730   5.770   5.978 -1.8470  1.0943  0.0045
   26DOPE   H8S 3278   0.891   5.840   6.016 -0.5262  0.4281  1.2390
   26DOPE   C29 3279   0.776   5.973   5.890  0.1123  0.3869 -0.8423
   26DOPE   H9R 3280   0.836   6.064   5.901  1.6391 -0.7240  0.4641
   26DOPE  C210 3281   0.688   5.975   5.798  0.1459  0.6095  0.2063
   26DOPE  H10R 3282   0.706   6.056   5.727  1.2786  1.3620  1.2956
   26DOPE  C211 3283   0.582   5.878   5.756 -0.5663  0.3856  0.4276
   26DOPE  H11R 3284   0.482   5.925   5.764 -0.9231 -0.1282 -0.8923
   26DOPE  H11S 3285   0.562   5.785   5.814  1.0789  0.7082  1.5910
   26DOPE  C212 3286   0.621   5.847   5.608 -0.7670  0.0226  0.1074
   26DOPE  H12R 3287   0.713   5.784   5.606 -1.1810 -0.7992 -4.2828
   26DOPE  H12S 3288   0.631   5.935   5.541  2.1359 -0.3634 -0.0956
   26DOPE  C213 3289   0.501   5.766   5.543  0.3738  0.0500 -0.5993
   26DOPE  H13R 3290   0.405   5.802   5.585  0.7850  2.5703 -1.6837
   26DOPE  H13S 3291   0.523   5.662   5.576  1.9054 -0.3248 -2.6142
   26DOPE  C214 3292   0.488   5.759   5.391  0.1471  0.1351  0.9700
   26DOPE  H14R 3293   0.566   5.692   5.348 -1.9957 -1.0480 -1.3719
   26DOPE  H14S 3294   0.492   5.859   5.342  0.1782 -1.2218 -2.0708
   26DOPE  C215 3295   0.361   5.682   5.346 -0.2830 -0.5267  0.2654
   26DOPE  H15R 3296   0.277   5.740   5.391 -0.1126 -0.2511  0.2341
   26DOPE  H15S 3297   0.354   5.579   5.385  1.5894  0.1406  2.5748
   26DOPE  C216 3298   0.348   5.684   5.189 -0.1909 -0.7441  0.1126
   26DOPE  H16R 3299   0.443   5.639   5.153 -0.7857 -0.6795 -1.6514
   26DOPE  H16S 3300   0.347   5.788   5.152 -1.9815 -0.5303  0.6576
   26DOPE  C217 3301   0.222   5.619   5.124  0.0187  0.9356  0.2748
   26DOPE  H17R 3302   0.215   5.516   5.165 -0.8534  1.8207  2.5209
   26DOPE  H17S 3303   0.249   5.625   5.016 -1.0096 -1.3642 -0.1684
   26DOPE  C218 3304   0.096   5.694   5.143  0.5609 -0.4167 -0.1410
   26DOPE  H18R 3305   0.106   5.799   5.108 -3.4789 -0.1193 -0.8791
   26DOPE  H18S 3306   0.058   5.690   5.248 -0.8632 -1.9833 -0.6801
   26DOPE  H18T 3307   0.013   5.651   5.084 -0.2704 -0.2628  0.8817
   26DOPE   C33 3308   0.313   6.747   6.653 -0.5122 -1.1669 -0.1101
   26DOPE   H3X 3309   0.333   6.850   6.617  1.6167 -1.0423  1.2450
   26DOPE   H3Y 3310   0.212   6.753   6.699 -1.0493 -2.1397 -1.1067
   26DOPE   C34 3311   0.318   6.651   6.539 -0.0031  0.3144  0.3615
   26DOPE   H4X 3312   0.401   6.682   6.471  1.4503 -0.8678  1.5333
   26DOPE   H4Y 3313   0.347   6.547   6.566 -0.8666 -0.6601 -2.0788
   26DOPE   C35 3314   0.183   6.624   6.466  0.0229  0.3640 -0.0562
   26DOPE   H5X 3315   0.134   6.717   6.430 -0.9140  0.4019  1.2051
   26DOPE   H5Y 3316   0.107   6.592   6.541  0.8215  0.9593  1.0316
   26DOPE   C36 3317   0.206   6.524   6.361 -0.1638 -0.1646  0.8676
   26DOPE   H6X 3318   0.232   6.422   6.395  2.2063 -0.1357 -0.7073
   26DOPE   H6Y 3319   0.291   6.549   6.294  0.3746 -2.2665  0.6947
   26DOPE   C37 3320   0.078   6.504   6.268 -1.1727 -0.6833 -0.2230
   26DOPE   H7X 3321   0.065   6.402   6.225 -1.0343 -0.6401 -0.3644
   26DOPE   H7Y 3322  -0.013   6.516   6.332  0.1837  0.1251  1.6571
   26DOPE   C38 3323   0.088   6.607   6.151  1.1002 -0.3190 -1.0507
   26DOPE   H8X 3324   0.148   6.572   6.063  2.8243 -1.3967  0.4683
   26DOPE   H8Y 3325   0.137   6.700   6.186 -0.5947 -0.0129  0.6469
   26DOPE   C39 3326  -0.050   6.652   6.099  0.5826 -0.8549 -0.4029
   26DOPE   H9X 3327  -0.101   6.704   6.182  0.8276 -0.5697 -0.4298
   26DOPE  C310 3328  -0.102   6.645   5.977 -0.3831 -0.1405  0.3872
   26DOPE  H10X 3329  -0.201   6.687   5.953 -0.5059  0.3578  1.6791
   26DOPE  C311 3330  -0.032   6.592   5.856 -0.5035  0.5207 -0.0461
   26DOPE  H11X 3331   0.075   6.620   5.863 -0.6215  1.0904 -0.4859
   26DOPE  H11Y 3332  -0.038   6.481   5.848 -1.6266  0.6469 -1.4166
   26DOPE  C312 3333  -0.074   6.641   5.721 -0.5195 -0.6524 -0.0759
   26DOPE  H12X 3334  -0.033   6.744   5.724 -0.5670 -0.6435  0.3467
   26DOPE  H12Y 3335  -0.184   6.647   5.708 -0.6602 -0.9897  0.8948
   26DOPE  C313 3336  -0.021   6.558   5.603 -0.5312 -0.1171  1.0932
   26DOPE  H13X 3337   0.087   6.532   5.599 -0.6164 -0.4303  0.7812
   26DOPE  H13Y 3338  -0.085   6.469   5.621 -1.1106  0.4554  1.9931
   26DOPE  C314 3339  -0.055   6.619   5.465  0.3337  0.3020  0.2134
   26DOPE  H14X 3340  -0.024   6.726   5.472  1.4607  0.0299 -0.3020
   26DOPE  H14Y 3341  -0.165   6.621   5.455  0.1764 -3.1632  0.0829
   26DOPE  C315 3342   0.004   6.537   5.349  0.0101 -0.4118 -0.9729
   26DOPE  H15X 3343  -0.039   6.438   5.373  0.2954 -0.6483 -1.4187
   26DOPE  H15Y 3344   0.114   6.537   5.367  0.0105  0.0869 -0.9708
   26DOPE  C316 3345  -0.031   6.570   5.206  0.3057  0.3379 -0.3250
   26DOPE  H16X 3346   0.005   6.673   5.183 -1.3329  0.4455 -2.6955
   26DOPE  H16Y 3347  -0.142   6.570   5.196  0.0042 -1.0369  2.1181
   26DOPE  C317 3348   0.051   6.481   5.113  0.6952  0.5954  0.8345
   26DOPE  H17X 3349   0.045   6.527   5.012 -1.0886  2.0904  1.5614
   26DOPE  H17Y 3350   0.157   6.486   5.144  0.7309  1.3970  0.5962
   26DOPE  C318 3351  -0.002   6.341   5.105  0.0054 -0.0594  0.3850
   26DOPE  H18X 3352   0.057   6.281   5.033  2.8363  0.1610  2.3218
   26DOPE  H18Y 3353  -0.004   6.284   5.201 -0.5288 -3.2379 -1.3906
   26DOPE  H18Z 3354  -0.102   6.337   5.058  0.8824  2.5932 -1.9680
   27DOPE     N 3355   6.885   0.117   7.332  0.2287  0.1573 -0.1423
   27DOPE   HN1 3356   6.956   0.094   7.404  0.3144 -0.2595 -0.3585
   27DOPE   HN2 3357   6.838   0.208   7.353 -2.2450 -0.6061 -1.8818
   27DOPE   HN3 3358   6.804   0.051   7.329  0.4532 -0.1381  0.2496
   27DOPE   C12 3359   6.952   0.135   7.205 -0.0268 -0.2363 -0.1769
   27DOPE  H12A 3360   6.967   0.036   7.156 -0.6947 -0.8616  0.8471
   27DOPE  H12B 3361   7.046   0.190   7.227 -1.1985  1.0573  1.9900
   27DOPE   C11 3362   6.854   0.219   7.127  0.4078 -0.1199  0.7417
   27DOPE  H11A 3363   6.885   0.244   7.023  0.6703 -1.2797  0.5335
   27DOPE  H11B 3364   6.859   0.319   7.175  0.7958 -0.2037  0.8762
   27DOPE     P 3365   6.642   0.133   6.997 -0.0976  0.2329  0.4275
   27DOPE   O13 3366   6.496   0.120   7.015 -0.2514 -0.3267  0.2460
   27DOPE   O14 3367   6.717   0.016   6.948 -0.2078 -0.2437 -0.1139
   27DOPE   O11 3368   6.669   0.257   6.888 -0.6124 -0.4567  0.5333
   27DOPE   O12 3369   6.711   0.181   7.129 -0.3787 -0.0266 -0.4740
   27DOPE    C1 3370   6.685   0.393   6.938  0.2639  0.1740 -0.2033
   27DOPE    HA 3371   6.788   0.426   6.915 -0.0943  0.5415 -1.3066
   27DOPE    HB 3372   6.670   0.404   7.048  1.2844 -1.0285  0.0766
   27DOPE    C2 3373   6.581   0.480   6.857 -0.1828 -0.8013 -0.6611
   27DOPE    HS 3374   6.483   0.436   6.887  0.4565 -0.7004  1.8652
   27DOPE   O21 3375   6.606   0.470   6.713 -0.3502 -0.0647 -0.2034
   27DOPE   C21 3376   6.536   0.383   6.642 -0.4013  0.0514 -0.0018
   27DOPE   O22 3377   6.450   0.306   6.685  0.1245 -0.5191  0.2093
   27DOPE   C22 3378   6.586   0.387   6.498  0.0164  0.2989  0.9131
   27DOPE   H2R 3379   6.695   0.409   6.501  0.0273  1.3532 -2.5877
   27DOPE   H2S 3380   6.529   0.465   6.442 -0.5116 -1.9189 -1.8821
   27DOPE    C3 3381   6.585   0.631   6.895 -0.3004 -0.3578 -0.3138
   27DOPE    HX 3382   6.664   0.694   6.849  0.9301 -0.1227  1.9460
   27DOPE    HY 3383   6.592   0.629   7.006 -3.3480 -5.5048  0.1037
   27DOPE   O31 3384   6.454   0.683   6.865  0.4622  0.0948 -0.3766
   27DOPE   C31 3385   6.431   0.759   6.759  0.0601 -0.6309  0.5916
   27DOPE   O32 3386   6.517   0.815   6.693  0.2755  0.8518 -0.0551
   27DOPE   C32 3387   6.283   0.787   6.737  0.1212 -0.1169  1.0245
   27DOPE   H2X 3388   6.243   0.684   6.730  0.5503 -0.1707 -1.1267
   27DOPE   H2Y 3389   6.246   0.839   6.828 -0.4141  1.8352 -0.2337
   27DOPE   C23 3390   6.557   0.252   6.422 -0.1274 -0.0773  0.3556
   27DOPE   H3R 3391   6.561   0.266   6.312 -1.0971  0.5000  0.3814
   27DOPE   H3S 3392   6.454   0.222   6.450  0.8228 -0.7342  3.5416
   27DOPE   C24 3393   6.648   0.141   6.457  0.0061  0.5448  0.4238
   27DOPE   H4R 3394   6.630   0.051   6.394 -0.0188 -0.4550  1.8281
   27DOPE   H4S 3395   6.633   0.115   6.564 -0.9287 -0.1836  0.1350
   27DOPE   C25 3396   6.790   0.163   6.420 -0.1200 -0.4367  1.1795
   27DOPE   H5R 3397   6.840   0.236   6.488 -1.3243 -0.0375  1.6569
   27DOPE   H5S 3398   6.780   0.199   6.315 -0.9830 -0.6721  1.1752
   27DOPE   C26 3399   6.882   0.040   6.427  0.2495  0.8597  0.2582
   27DOPE   H6R 3400   6.892  -0.013   6.523 -1.2700  0.7185  0.3751
   27DOPE   H6S 3401   6.982   0.078   6.396  0.6464 -0.9228 -0.7592
   27DOPE   C27 3402   6.848  -0.074   6.327  0.0294  0.5282  0.0032
   27DOPE   H7R 3403   6.755  -0.122   6.366 -0.0406  0.8828  0.2737
   27DOPE   H7S 3404   6.932  -0.146   6.339 -0.7208 -0.3628  0.0654
   27DOPE   C28 3405   6.825  -0.040   6.178  0.0544 -0.1091 -0.1109
   27DOPE   H8R 3406   6.753   0.043   6.159  1.1304  0.5981 -1.2630
   27DOPE   H8S 3407   6.783  -0.131   6.131 -0.4911 -1.2767  2.4756
   27DOPE   C29 3408   6.937   0.002   6.087 -0.3355 -0.9318 -0.1003
   27DOPE   H9R 3409   6.967   0.107   6.100  0.0798 -1.1895  1.0695
   27DOPE  C210 3410   6.990  -0.074   5.991  0.3888 -0.1893  1.1789
   27DOPE  H10R 3411   7.074  -0.036   5.932 -1.0335  0.2041 -0.6873
   27DOPE  C211 3412   6.949  -0.216   5.952 -0.0577  0.2395  0.3320
   27DOPE  H11R 3413   6.954  -0.280   6.043 -1.9183 -0.9210 -0.3345
   27DOPE  H11S 3414   7.025  -0.252   5.880 -0.3186 -0.1751  0.2610
   27DOPE  C212 3415   6.816  -0.215   5.879 -0.5037  0.5785 -0.5329
   27DOPE  H12R 3416   6.810  -0.141   5.796  1.9818  0.6118 -0.7542
   27DOPE  H12S 3417   6.736  -0.177   5.946  1.1469  1.5762  0.9513
   27DOPE  C213 3418   6.783  -0.356   5.834  0.0183  0.3715  0.7918
   27DOPE  H13R 3419   6.787  -0.432   5.915 -1.2139 -0.6734 -0.0768
   27DOPE  H13S 3420   6.865  -0.378   5.764 -1.3642  0.4144 -0.9110
   27DOPE  C214 3421   6.653  -0.369   5.747  0.3574  0.0376 -0.1632
   27DOPE  H14R 3422   6.667  -0.298   5.663  0.2823 -0.7385 -0.8351
   27DOPE  H14S 3423   6.576  -0.345   5.824  1.0905 -2.3432  1.4257
   27DOPE  C215 3424   6.639  -0.517   5.709  0.0815 -0.0955 -0.5355
   27DOPE  H15R 3425   6.665  -0.589   5.790  1.0046  1.6810  0.8266
   27DOPE  H15S 3426   6.713  -0.527   5.627  0.4014  0.2095 -0.2843
   27DOPE  C216 3427   6.490  -0.554   5.675 -0.2377 -0.2367 -0.0527
   27DOPE  H16R 3428   6.477  -0.485   5.589  1.7902  2.7181  1.8073
   27DOPE  H16S 3429   6.414  -0.533   5.753 -1.6428 -1.5705 -0.9929
   27DOPE  C217 3430   6.473  -0.696   5.620 -0.6466  0.0148  1.0882
   27DOPE  H17R 3431   6.479  -0.764   5.708 -1.2640 -0.0879  1.0556
   27DOPE  H17S 3432   6.553  -0.724   5.549 -1.3165 -1.6459  0.9413
   27DOPE  C218 3433   6.335  -0.701   5.557  0.5883 -0.0235 -0.4686
   27DOPE  H18R 3434   6.327  -0.642   5.463 -1.0822  0.9881  0.2560
   27DOPE  H18S 3435   6.263  -0.656   5.629  0.8334  1.3445 -1.0551
   27DOPE  H18T 3436   6.309  -0.807   5.536 -0.6626 -0.3775  2.3789
   27DOPE   C33 3437   6.250   0.855   6.607  0.0756  0.0601  0.0984
   27DOPE   H3X 3438   6.281   0.962   6.611  3.9251 -0.8946  0.2769
   27DOPE   H3Y 3439   6.140   0.845   6.602 -0.0242  1.5401 -2.8791
   27DOPE   C34 3440   6.298   0.788   6.472  0.3786 -0.0982  0.5004
   27DOPE   H4X 3441   6.271   0.866   6.398  1.0835 -1.0274 -0.7950
   27DOPE   H4Y 3442   6.407   0.767   6.469  0.1884 -1.3450  1.3643
   27DOPE   C35 3443   6.226   0.658   6.437  0.2422  0.4864 -0.0890
   27DOPE   H5X 3444   6.117   0.670   6.452  0.1720 -1.3056  1.1691
   27DOPE   H5Y 3445   6.253   0.580   6.512 -0.7468  0.4852  0.2811
   27DOPE   C36 3446   6.254   0.605   6.300 -0.8169  0.0102  0.1327
   27DOPE   H6X 3447   6.358   0.623   6.264 -0.4860  2.5360  2.1571
   27DOPE   H6Y 3448   6.189   0.644   6.219  0.1481  1.9898  0.2518
   27DOPE   C37 3449   6.225   0.454   6.303  0.3445 -0.2790  0.2018
   27DOPE   H7X 3450   6.262   0.415   6.399 -0.9737  0.9428  1.2507
   27DOPE   H7Y 3451   6.115   0.439   6.307  0.5783 -1.9599  0.9472
   27DOPE   C38 3452   6.285   0.369   6.186 -0.5377  0.2907 -0.1888
   27DOPE   H8X 3453   6.394   0.372   6.208 -0.7455 -1.3069  1.3404
   27DOPE   H8Y 3454   6.249   0.430   6.101 -0.7098  2.9373  1.6737
   27DOPE   C39 3455   6.240   0.231   6.178 -0.0997  1.0109 -0.1363
   27DOPE   H9X 3456   6.176   0.193   6.258 -0.9519  1.4001 -0.6219
   27DOPE  C310 3457   6.279   0.138   6.091  0.6729 -0.9584 -0.2625
   27DOPE  H10X 3458   6.235   0.037   6.091 -0.4115 -0.5096  0.7245
   27DOPE  C311 3459   6.376   0.168   5.983  0.6782 -0.8106 -0.1623
   27DOPE  H11X 3460   6.328   0.134   5.889 -1.4548 -0.9083  0.8896
   27DOPE  H11Y 3461   6.387   0.278   5.974  1.4313 -1.0209 -2.2747
   27DOPE  C312 3462   6.511   0.105   5.995 -0.4519 -0.1610 -1.3381
   27DOPE  H12X 3463   6.505  -0.006   5.994 -0.5217 -0.1975  0.3295
   27DOPE  H12Y 3464   6.545   0.132   6.097  0.9434 -2.9316 -0.9899
   27DOPE  C313 3465   6.616   0.165   5.900 -0.3921  0.3622  1.0812
   27DOPE  H13X 3466   6.604   0.275   5.906 -0.4441  0.7029 -2.6654
   27DOPE  H13Y 3467   6.718   0.134   5.932  0.8227  0.5124 -2.2360
   27DOPE  C314 3468   6.596   0.119   5.752 -0.7721  0.3193 -0.4597
   27DOPE  H14X 3469   6.514   0.164   5.692 -1.1426  0.0441 -0.1682
   27DOPE  H14Y 3470   6.575   0.010   5.752 -3.2484  0.6594  2.4040
   27DOPE  C315 3471   6.722   0.162   5.673  0.2807 -0.6456  0.1801
   27DOPE  H15X 3472   6.803   0.093   5.704  2.4412  1.8152  0.2951
   27DOPE  H15Y 3473   6.745   0.264   5.709 -1.0533  0.6324 -2.3359
   27DOPE  C316 3474   6.701   0.156   5.521  0.2778 -0.6572  0.6354
   27DOPE  H16X 3475   6.603   0.203   5.497  0.0674 -1.1893  0.4337
   27DOPE  H16Y 3476   6.708   0.054   5.479  0.6580 -0.0579 -0.8152
   27DOPE  C317 3477   6.797   0.251   5.452 -0.0725 -0.2612 -0.0643
   27DOPE  H17X 3478   6.778   0.261   5.343 -0.3667  1.1444  0.0968
   27DOPE  H17Y 3479   6.787   0.342   5.514 -0.6633  0.0190 -0.5594
   27DOPE  C318 3480   6.945   0.205   5.449 -0.2869 -0.3464 -0.2599
   27DOPE  H18X 3481   7.019   0.266   5.393  0.4634 -0.2557  0.7944
   27DOPE  H18Y 3482   6.973   0.179   5.553 -0.8934 -2.7225 -0.6169
   27DOPE  H18Z 3483   6.952   0.102   5.408  0.3700  0.1341 -1.3965
   28DOPE     N 3484   6.473   7.387   6.819  0.6573 -0.4307 -0.2325
   28DOPE   HN1 3485   6.572   7.419   6.819  0.4207  0.4526  2.1219
   28DOPE   HN2 3486   6.426   7.479   6.813 -0.3533 -0.8073  1.3591
   28DOPE   HN3 3487   6.443   7.355   6.913  1.2525 -0.7535 -0.1448
   28DOPE   C12 3488   6.413   7.299   6.709 -0.0368  0.6118 -0.2176
   28DOPE  H12A 3489   6.464   7.201   6.716 -1.6927 -0.3638 -1.1974
   28DOPE  H12B 3490   6.442   7.343   6.612 -0.3905 -1.7504 -1.4559
   28DOPE   C11 3491   6.262   7.285   6.722  0.7549  0.5655  0.2274
   28DOPE  H11A 3492   6.223   7.243   6.627  1.4659  2.1571 -0.8194
   28DOPE  H11B 3493   6.222   7.388   6.732 -1.0060 -0.1072  0.4872
   28DOPE     P 3494   6.215   7.052   6.842  0.4717  0.3216  0.3040
   28DOPE   O13 3495   6.132   7.010   6.955  0.7803  0.2905 -0.5304
   28DOPE   O14 3496   6.351   6.998   6.841 -0.3450  0.2167  0.2304
   28DOPE   O11 3497   6.130   7.019   6.710  0.0132  0.2493  0.3143
   28DOPE   O12 3498   6.227   7.212   6.844 -0.1433  0.2950  0.0390
   28DOPE    C1 3499   5.995   7.070   6.692  0.1545  0.5684 -0.1845
   28DOPE    HA 3500   6.005   7.179   6.675 -1.0027  0.8964  1.0574
   28DOPE    HB 3501   5.935   7.047   6.783 -0.2992  3.2007  0.2452
   28DOPE    C2 3502   5.920   6.999   6.577  0.4067  0.0261 -0.5433
   28DOPE    HS 3503   5.935   6.888   6.578  3.4675  0.3278 -2.1600
   28DOPE   O21 3504   5.973   7.058   6.456 -0.1555 -0.5601  0.3082
   28DOPE   C21 3505   6.084   7.001   6.406 -0.3772  0.0995  0.1093
   28DOPE   O22 3506   6.134   6.899   6.448  0.2400  0.1752 -0.1522
   28DOPE   C22 3507   6.142   7.087   6.294  0.0040 -0.3861  0.5795
   28DOPE   H2R 3508   6.253   7.085   6.300  0.0668  0.0775 -0.2666
   28DOPE   H2S 3509   6.099   7.188   6.310  0.9380 -0.0949  1.3176
   28DOPE    C3 3510   5.760   7.016   6.587  0.0439  0.0500 -0.1339
   28DOPE    HX 3511   5.738   7.123   6.609  0.2777 -0.3022  2.0936
   28DOPE    HY 3512   5.707   6.957   6.665 -3.0677  0.2742 -1.9318
   28DOPE   O31 3513   5.704   6.991   6.461  0.0013  0.4935  0.3131
   28DOPE   C31 3514   5.672   6.860   6.433 -0.2603 -0.5098 -0.8502
   28DOPE   O32 3515   5.711   6.765   6.496  0.2109  0.6035 -0.5413
   28DOPE   C32 3516   5.574   6.857   6.312 -0.2062  0.5673  0.1651
   28DOPE   H2X 3517   5.474   6.823   6.348 -1.2133  1.2979 -1.7855
   28DOPE   H2Y 3518   5.552   6.961   6.279 -0.4066  0.7263  0.7823
   28DOPE   C23 3519   6.100   7.039   6.156  0.4952 -0.5387  0.2191
   28DOPE   H3R 3520   6.074   6.931   6.158 -2.4424  0.0404 -1.3839
   28DOPE   H3S 3521   6.185   7.050   6.085 -0.9007  0.1524 -1.4330
   28DOPE   C24 3522   5.983   7.121   6.086 -0.0291 -0.1143 -0.1844
   28DOPE   H4R 3523   5.894   7.105   6.149  0.7762  0.0874  1.0313
   28DOPE   H4S 3524   5.972   7.081   5.983  0.1864 -0.9181  0.1010
   28DOPE   C25 3525   6.006   7.270   6.061  0.3462 -0.7390 -0.3608
   28DOPE   H5R 3526   6.004   7.318   6.161 -0.9550 -0.0183 -0.7054
   28DOPE   H5S 3527   5.921   7.313   6.003  0.6534 -0.8649 -0.9109
   28DOPE   C26 3528   6.136   7.311   5.987 -0.1576  0.2204 -0.2395
   28DOPE   H6R 3529   6.226   7.256   6.023  0.2828  0.8722 -0.3256
   28DOPE   H6S 3530   6.162   7.419   5.998  2.3818 -0.1780 -1.4886
   28DOPE   C27 3531   6.154   7.281   5.829 -0.0937 -0.1312  0.1534
   28DOPE   H7R 3532   6.070   7.323   5.769  0.4117  0.6128 -0.0398
   28DOPE   H7S 3533   6.149   7.170   5.817 -0.1011 -0.0901 -0.2367
   28DOPE   C28 3534   6.297   7.316   5.778 -0.3498  0.0981  0.5959
   28DOPE   H8R 3535   6.328   7.261   5.687 -0.1746  1.2442 -0.0536
   28DOPE   H8S 3536   6.371   7.276   5.851  0.3394  0.2434 -0.0066
   28DOPE   C29 3537   6.333   7.453   5.732  0.4987  0.0676 -0.5416
   28DOPE   H9R 3538   6.354   7.521   5.815 -0.0954  0.5595 -0.7886
   28DOPE  C210 3539   6.335   7.500   5.610  0.2303 -0.0638  0.7272
   28DOPE  H10R 3540   6.340   7.610   5.604 -2.9385  0.1158 -0.9949
   28DOPE  C211 3541   6.295   7.430   5.481 -0.3409  0.4408 -0.0680
   28DOPE  H11R 3542   6.206   7.473   5.431 -2.2720 -0.6583  2.2672
   28DOPE  H11S 3543   6.270   7.324   5.502 -1.4204  0.8297  0.6579
   28DOPE  C212 3544   6.409   7.430   5.373 -0.5342  0.1966 -0.5757
   28DOPE  H12R 3545   6.446   7.534   5.366  3.2500 -0.6350  3.0973
   28DOPE  H12S 3546   6.369   7.391   5.276  1.4219 -0.2224 -1.2636
   28DOPE  C213 3547   6.523   7.341   5.425 -0.1767 -0.2611  0.5652
   28DOPE  H13R 3548   6.481   7.238   5.432  1.7227 -1.0078  1.9009
   28DOPE  H13S 3549   6.557   7.380   5.524 -0.1623  1.8459 -0.2250
   28DOPE  C214 3550   6.646   7.352   5.339  0.2763  0.2550  0.4636
   28DOPE  H14R 3551   6.701   7.447   5.360 -1.0196  1.4333 -1.2146
   28DOPE  H14S 3552   6.630   7.339   5.230 -0.1130 -0.1732  0.5722
   28DOPE  C215 3553   6.740   7.239   5.380  0.1718  0.4202 -0.2200
   28DOPE  H15R 3554   6.684   7.146   5.357  1.9410 -1.1195  1.3215
   28DOPE  H15S 3555   6.748   7.230   5.491 -0.3040 -0.5454 -0.2562
   28DOPE  C216 3556   6.886   7.237   5.323 -0.3842  0.5086  0.5224
   28DOPE  H16R 3557   6.874   7.235   5.212 -0.3341  2.0079  0.4717
   28DOPE  H16S 3558   6.930   7.137   5.342 -0.0486  0.5494 -0.0199
   28DOPE  C217 3559   6.960   7.365   5.363 -0.5717 -0.1471  0.1208
   28DOPE  H17R 3560   6.907   7.460   5.339  0.2243  0.3246  0.1767
   28DOPE  H17S 3561   7.053   7.362   5.304  0.0904 -4.1660  1.0867
   28DOPE  C218 3562   6.999   7.381   5.511  0.0118  0.3418  0.3846
   28DOPE  H18R 3563   7.056   7.475   5.530 -1.9584  1.7552 -0.3005
   28DOPE  H18S 3564   7.065   7.298   5.544 -0.2188  0.6994  1.8072
   28DOPE  H18T 3565   6.914   7.396   5.580  0.2137  0.7750  0.5446
   28DOPE   C33 3566   5.616   6.765   6.198 -0.4485  0.3342  0.1199
   28DOPE   H3X 3567   5.639   6.662   6.231  1.4575  0.4389 -0.7399
   28DOPE   H3Y 3568   5.703   6.799   6.138 -1.0710  0.2477 -0.8590
   28DOPE   C34 3569   5.514   6.760   6.078 -0.3022  0.4299  0.4505
   28DOPE   H4X 3570   5.413   6.750   6.122 -0.6060  2.5346  0.3318
   28DOPE   H4Y 3571   5.517   6.854   6.019 -0.2783  0.0133 -0.2281
   28DOPE   C35 3572   5.546   6.640   5.985 -0.1074 -0.3273  0.0310
   28DOPE   H5X 3573   5.446   6.611   5.946 -0.0189  1.5791 -1.7526
   28DOPE   H5Y 3574   5.592   6.552   6.036  1.3637 -0.9793 -2.2997
   28DOPE   C36 3575   5.629   6.683   5.863 -0.4439  0.4656 -0.3900
   28DOPE   H6X 3576   5.731   6.722   5.888 -0.0372 -0.6257 -0.2831
   28DOPE   H6Y 3577   5.582   6.775   5.823 -1.5334  0.3886  0.6578
   28DOPE   C37 3578   5.659   6.572   5.768 -0.1474 -0.4573 -0.0186
   28DOPE   H7X 3579   5.707   6.490   5.826  2.2891 -0.9974 -2.5580
   28DOPE   H7Y 3580   5.566   6.537   5.718  0.4455 -2.5183  0.2164
   28DOPE   C38 3581   5.777   6.596   5.672 -0.5155 -0.3870  0.0239
   28DOPE   H8X 3582   5.829   6.502   5.644  1.4859  0.7232 -0.2126
   28DOPE   H8Y 3583   5.864   6.640   5.726  1.0300 -3.0232 -0.1320
   28DOPE   C39 3584   5.749   6.678   5.549  0.0243 -0.2529 -0.1984
   28DOPE   H9X 3585   5.657   6.646   5.497  0.4490 -0.8077 -0.6091
   28DOPE  C310 3586   5.824   6.783   5.497  0.4928 -0.1803 -0.0364
   28DOPE  H10X 3587   5.791   6.820   5.399  0.8917 -2.4082 -1.0775
   28DOPE  C311 3588   5.944   6.855   5.546  0.0866  1.1316  0.1311
   28DOPE  H11X 3589   5.995   6.787   5.618 -0.7263 -1.2367 -1.3917
   28DOPE  H11Y 3590   6.019   6.870   5.465 -0.6376 -1.0275 -1.0467
   28DOPE  C312 3591   5.913   6.996   5.600  0.5506  0.7067 -0.2747
   28DOPE  H12X 3592   5.873   7.053   5.515 -1.2385  1.0817  0.7690
   28DOPE  H12Y 3593   6.004   7.041   5.644 -1.7367  2.6234  2.9089
   28DOPE  C313 3594   5.821   6.973   5.723  0.3429 -0.2858  0.2309
   28DOPE  H13X 3595   5.728   6.918   5.698  0.1614  1.6077 -4.1200
   28DOPE  H13Y 3596   5.873   6.917   5.804  1.9542  0.6534 -0.1208
   28DOPE  C314 3597   5.763   7.108   5.776 -0.3918 -0.3525 -0.7661
   28DOPE  H14X 3598   5.839   7.189   5.775 -0.0360 -0.6149  1.3305
   28DOPE  H14Y 3599   5.725   7.091   5.879 -2.5948 -0.1467 -1.4794
   28DOPE  C315 3600   5.652   7.168   5.679 -0.1148 -0.5896 -0.1782
   28DOPE  H15X 3601   5.568   7.096   5.674 -0.5315 -0.1078 -0.2077
   28DOPE  H15Y 3602   5.693   7.175   5.576 -0.8410  1.4144 -0.3650
   28DOPE  C316 3603   5.604   7.315   5.714 -0.5598 -0.6077  0.8951
   28DOPE  H16X 3604   5.574   7.316   5.821 -1.2583 -3.0319  0.7966
   28DOPE  H16Y 3605   5.510   7.335   5.657  0.3272  2.3103  0.3315
   28DOPE  C317 3606   5.714   7.419   5.694 -0.5750 -0.0261 -0.2432
   28DOPE  H17X 3607   5.795   7.398   5.766 -0.2944 -2.3009 -1.1260
   28DOPE  H17Y 3608   5.758   7.407   5.593 -0.4348 -1.0810 -0.0658
   28DOPE  C318 3609   5.658   7.559   5.720 -0.3131 -0.2554  0.3109
   28DOPE  H18X 3610   5.567   7.594   5.666 -0.9810  1.6758  2.5145
   28DOPE  H18Y 3611   5.645   7.579   5.829 -0.8997  0.7203  0.0746
   28DOPE  H18Z 3612   5.735   7.630   5.682 -0.9205  0.8902  1.1536
   29DOPE     N 3613   0.017   1.414   6.706  0.7764 -0.1732  0.5785
   29DOPE   HN1 3614  -0.069   1.470   6.723  0.6677 -1.0937  3.6052
   29DOPE   HN2 3615   0.097   1.464   6.749  1.0764  0.7381 -0.9608
   29DOPE   HN3 3616   0.032   1.422   6.604 -1.1350  2.0989  0.3900
   29DOPE   C12 3617  -0.019   1.272   6.745 -0.0598 -0.4590  0.5012
   29DOPE  H12A 3618   0.064   1.205   6.713  1.7535  1.0620  1.8498
   29DOPE  H12B 3619  -0.109   1.248   6.684  0.5222  1.2617 -1.1517
   29DOPE   C11 3620  -0.044   1.275   6.892 -0.6041  0.1392  0.0386
   29DOPE  H11A 3621  -0.050   1.173   6.936 -0.1028  0.4464  0.8349
   29DOPE  H11B 3622  -0.145   1.319   6.911 -0.7821 -0.8197  1.4728
   29DOPE     P 3623   0.187   1.266   7.039  0.2995 -0.0995  0.2444
   29DOPE   O13 3624   0.168   1.277   7.187 -0.0815  0.6507  0.1248
   29DOPE   O14 3625   0.314   1.325   6.983 -0.0855 -0.2599 -0.2188
   29DOPE   O11 3626   0.162   1.122   6.978  0.1720  0.1406  0.6320
   29DOPE   O12 3627   0.062   1.347   6.966  0.1006 -0.3049 -0.3292
   29DOPE    C1 3628   0.281   1.047   6.939 -0.4291  0.9032  0.6123
   29DOPE    HA 3629   0.331   0.997   7.025  0.6503  0.1468 -0.4179
   29DOPE    HB 3630   0.363   1.100   6.886 -0.4135  0.0027 -0.3226
   29DOPE    C2 3631   0.234   0.937   6.832 -0.5658 -0.1082 -0.4441
   29DOPE    HS 3632   0.315   0.861   6.823 -0.8329 -0.4704  0.0904
   29DOPE   O21 3633   0.206   1.005   6.704 -0.1786 -0.5346 -0.1439
   29DOPE   C21 3634   0.306   1.030   6.622  0.1382 -1.7183  0.3309
   29DOPE   O22 3635   0.424   1.010   6.653  0.3746  0.7392 -0.1158
   29DOPE   C22 3636   0.250   1.087   6.492 -0.1784 -0.2460 -0.1523
   29DOPE   H2R 3637   0.331   1.061   6.420  0.1912 -0.0059  0.1733
   29DOPE   H2S 3638   0.260   1.197   6.485 -0.3525 -0.3168 -4.5505
   29DOPE    C3 3639   0.119   0.850   6.882  0.7489 -0.3897 -0.0923
   29DOPE    HX 3640   0.049   0.913   6.941  0.1909 -1.6075  0.5979
   29DOPE    HY 3641   0.163   0.766   6.940 -0.8603 -0.7939  0.6036
   29DOPE   O31 3642   0.055   0.789   6.766 -0.2906 -0.2471 -0.5446
   29DOPE   C31 3643  -0.056   0.835   6.731 -0.4097 -0.3357  0.1385
   29DOPE   O32 3644  -0.116   0.937   6.767  0.7092  0.2955  0.2047
   29DOPE   C32 3645  -0.106   0.739   6.620 -0.4935 -0.3408 -0.8263
   29DOPE   H2X 3646  -0.021   0.708   6.555 -0.6329 -1.0265 -0.6857
   29DOPE   H2Y 3647  -0.133   0.645   6.673 -0.0310  0.1377  0.3013
   29DOPE   C23 3648   0.112   1.038   6.453  0.3773  0.5585 -0.0090
   29DOPE   H3R 3649   0.047   1.089   6.528  1.1964  0.0896  1.0594
   29DOPE   H3S 3650   0.091   0.929   6.456 -1.8290  0.8480 -2.2218
   29DOPE   C24 3651   0.078   1.080   6.307  0.2721  0.2946  0.1578
   29DOPE   H4R 3652   0.160   1.047   6.239  1.0804  0.0937  1.1961
   29DOPE   H4S 3653   0.079   1.191   6.311  0.2588  0.2655  2.2836
   29DOPE   C25 3654  -0.064   1.034   6.263 -0.1631  0.4019 -0.2075
   29DOPE   H5R 3655  -0.140   1.076   6.333  0.2799  1.4458 -0.3282
   29DOPE   H5S 3656  -0.070   0.924   6.273  3.4285  0.0219 -1.0078
   29DOPE   C26 3657  -0.112   1.069   6.118  0.0894 -0.3801  0.2476
   29DOPE   H6R 3658  -0.215   1.029   6.099  1.2800 -2.4288 -2.6545
   29DOPE   H6S 3659  -0.042   1.011   6.054 -0.1887 -0.9552  0.4628
   29DOPE   C27 3660  -0.094   1.209   6.072  0.1138  0.5404 -0.0993
   29DOPE   H7R 3661   0.013   1.230   6.096  0.7802 -3.2550  0.9079
   29DOPE   H7S 3662  -0.163   1.270   6.134 -1.6875  0.0263 -1.5204
   29DOPE   C28 3663  -0.115   1.215   5.917 -0.0777 -0.2241  0.2170
   29DOPE   H8R 3664  -0.220   1.195   5.887 -0.3916 -0.3795  1.3667
   29DOPE   H8S 3665  -0.063   1.132   5.864  1.0966  1.7011 -1.8342
   29DOPE   C29 3666  -0.087   1.350   5.849  0.1297  0.3675  0.2289
   29DOPE   H9R 3667  -0.163   1.427   5.866  0.9053  0.7306  2.4839
   29DOPE  C210 3668   0.028   1.384   5.783 -0.1312 -1.4506 -0.6813
   29DOPE  H10R 3669   0.031   1.486   5.741  1.9025 -1.4370 -0.5983
   29DOPE  C211 3670   0.152   1.301   5.762 -0.1612  0.4177  0.6169
   29DOPE  H11R 3671   0.156   1.208   5.823  3.4063  0.6590  0.9568
   29DOPE  H11S 3672   0.245   1.357   5.786  0.6224 -2.2440  4.5974
   29DOPE  C212 3673   0.170   1.270   5.611  0.0972 -0.0652  0.6301
   29DOPE  H12R 3674   0.273   1.234   5.594 -0.3754 -2.3006  2.0717
   29DOPE  H12S 3675   0.156   1.355   5.540 -0.5369  0.1206  0.9655
   29DOPE  C213 3676   0.079   1.147   5.572 -0.1026 -0.3046  0.1413
   29DOPE  H13R 3677  -0.030   1.167   5.569 -0.1226 -0.4473 -0.1125
   29DOPE  H13S 3678   0.094   1.071   5.652 -0.0172  1.0710  1.4739
   29DOPE  C214 3679   0.119   1.091   5.434  0.4602  0.3327 -0.1502
   29DOPE  H14R 3680   0.230   1.085   5.433  0.4253 -0.5002 -0.9879
   29DOPE  H14S 3681   0.085   1.159   5.353 -1.9139 -0.7380 -0.1137
   29DOPE  C215 3682   0.072   0.950   5.412  0.0795 -0.5031  0.8010
   29DOPE  H15R 3683  -0.037   0.940   5.390 -0.0300  2.0071 -0.1232
   29DOPE  H15S 3684   0.084   0.888   5.503 -2.6011  1.1108  2.4090
   29DOPE  C216 3685   0.139   0.880   5.288 -0.0260  0.0129 -0.5719
   29DOPE  H16R 3686   0.222   0.939   5.244 -1.4316  1.5242 -1.2933
   29DOPE  H16S 3687   0.071   0.895   5.201  1.2293 -1.0752 -1.7895
   29DOPE  C217 3688   0.178   0.728   5.311  0.1216 -0.3276  0.0189
   29DOPE  H17R 3689   0.081   0.678   5.329  0.6894 -0.9015  1.6306
   29DOPE  H17S 3690   0.244   0.704   5.397  2.3014  1.6731 -0.9893
   29DOPE  C218 3691   0.223   0.669   5.172  0.5333  0.6387  0.8683
   29DOPE  H18R 3692   0.330   0.689   5.150  0.9846 -0.1863  2.1999
   29DOPE  H18S 3693   0.156   0.706   5.091  2.4358 -0.6861 -1.4277
   29DOPE  H18T 3694   0.213   0.559   5.180  1.1680  0.6510  2.1235
   29DOPE   C33 3695  -0.217   0.787   6.524  0.1422  0.1557  0.2941
   29DOPE   H3X 3696  -0.187   0.881   6.474 -2.3011  0.6099 -0.4666
   29DOPE   H3Y 3697  -0.320   0.802   6.562 -0.8346 -0.6554 -1.8459
   29DOPE   C34 3698  -0.241   0.672   6.418 -0.4966  0.6250  0.6257
   29DOPE   H4X 3699  -0.152   0.643   6.359 -0.1314 -3.2321  2.7382
   29DOPE   H4Y 3700  -0.268   0.580   6.474 -0.0660  1.5099  2.3844
   29DOPE   C35 3701  -0.347   0.724   6.323  0.2721 -0.7560 -0.2020
   29DOPE   H5X 3702  -0.314   0.816   6.270 -0.5745 -0.9391 -1.0799
   29DOPE   H5Y 3703  -0.443   0.744   6.375 -0.2712 -0.8042 -1.1675
   29DOPE   C36 3704  -0.384   0.619   6.214 -0.0836 -0.1462 -0.0679
   29DOPE   H6X 3705  -0.296   0.598   6.150  1.4068  1.4001  1.4148
   29DOPE   H6Y 3706  -0.452   0.679   6.150  1.2603  1.6306  0.1175
   29DOPE   C37 3707  -0.460   0.490   6.258  0.4753  0.0538 -0.3652
   29DOPE   H7X 3708  -0.381   0.422   6.296  1.4490  0.9683 -0.7037
   29DOPE   H7Y 3709  -0.533   0.517   6.337 -0.2462 -1.5176 -0.4573
   29DOPE   C38 3710  -0.531   0.419   6.139  0.3298 -0.0769  0.0903
   29DOPE   H8X 3711  -0.595   0.489   6.082  1.3711  0.6822 -0.1701
   29DOPE   H8Y 3712  -0.604   0.342   6.175 -0.8529  1.4635  1.1472
   29DOPE   C39 3713  -0.434   0.359   6.038  0.3471 -0.2195 -0.5523
   29DOPE   H9X 3714  -0.345   0.309   6.080 -1.9013 -2.2739  2.1404
   29DOPE  C310 3715  -0.449   0.365   5.904 -0.4236 -0.6000 -0.4679
   29DOPE  H10X 3716  -0.362   0.322   5.851  1.4522 -0.4482  2.2611
   29DOPE  C311 3717  -0.556   0.423   5.818  0.1131 -0.1400  0.4797
   29DOPE  H11X 3718  -0.613   0.346   5.763  0.5275 -1.1004  1.3410
   29DOPE  H11Y 3719  -0.632   0.485   5.870  0.0744 -0.3578  0.6898
   29DOPE  C312 3720  -0.497   0.516   5.712  0.1655 -0.1697 -0.1162
   29DOPE  H12X 3721  -0.420   0.460   5.655  0.7357  0.4941 -0.0104
   29DOPE  H12Y 3722  -0.432   0.600   5.745  2.1072 -0.7405 -2.2247
   29DOPE  C313 3723  -0.604   0.577   5.614 -0.4205 -0.1446 -0.4210
   29DOPE  H13X 3724  -0.653   0.492   5.561  0.4514 -0.5050 -0.6621
   29DOPE  H13Y 3725  -0.687   0.628   5.668  1.1080  2.3057 -0.2488
   29DOPE  C314 3726  -0.550   0.660   5.503  0.4167 -0.2882  0.2240
   29DOPE  H14X 3727  -0.633   0.686   5.434  0.0525  0.4286  0.9128
   29DOPE  H14Y 3728  -0.473   0.606   5.444  0.9966  1.0071 -0.2400
   29DOPE  C315 3729  -0.480   0.791   5.548  0.2220  0.1396  0.0191
   29DOPE  H15X 3730  -0.380   0.768   5.591  0.2459  0.5109  0.1619
   29DOPE  H15Y 3731  -0.536   0.847   5.626 -0.3265 -0.1140 -0.1878
   29DOPE  C316 3732  -0.453   0.892   5.429 -0.2437  0.6186  0.3689
   29DOPE  H16X 3733  -0.548   0.946   5.408  1.1264  2.4271 -1.5052
   29DOPE  H16Y 3734  -0.433   0.842   5.332  3.2936 -0.7439  1.6570
   29DOPE  C317 3735  -0.352   0.999   5.461  0.0278 -0.6196  0.3639
   29DOPE  H17X 3736  -0.392   1.085   5.518 -0.2403 -1.9109  2.2014
   29DOPE  H17Y 3737  -0.268   0.960   5.521  1.5672  1.0689 -0.6122
   29DOPE  C318 3738  -0.282   1.055   5.335  0.1270 -0.3865 -0.8108
   29DOPE  H18X 3739  -0.220   0.985   5.274  1.7902 -0.3956  0.8132
   29DOPE  H18Y 3740  -0.352   1.109   5.268  0.6204  2.3884  0.7475
   29DOPE  H18Z 3741  -0.213   1.138   5.362  0.6821 -1.3242  0.7806
   30DOPE     N 3742   6.495   6.796   6.713  0.3528 -0.1888  0.3620
   30DOPE   HN1 3743   6.515   6.733   6.794  2.0042 -1.2406 -0.7957
   30DOPE   HN2 3744   6.472   6.894   6.740 -0.9885 -0.7037  1.2215
   30DOPE   HN3 3745   6.412   6.758   6.662  2.3657 -1.0959 -2.4748
   30DOPE   C12 3746   6.617   6.798   6.627 -0.4336 -0.9051  0.0488
   30DOPE  H12A 3747   6.605   6.737   6.535  0.3269 -1.0074  0.0088
   30DOPE  H12B 3748   6.697   6.744   6.683  0.2865  0.1866  0.1045
   30DOPE   C11 3749   6.645   6.948   6.604  0.1184 -0.1085  0.8174
   30DOPE  H11A 3750   6.564   6.989   6.541 -0.0590 -0.8410  0.5609
   30DOPE  H11B 3751   6.738   6.959   6.545 -1.1743  0.0837 -1.2764
   30DOPE     P 3752   6.745   7.035   6.834  0.0402  0.6520 -0.3477
   30DOPE   O13 3753   6.719   6.922   6.927  0.1886 -0.0202 -0.4997
   30DOPE   O14 3754   6.736   7.171   6.889 -0.0788  0.6701 -0.6053
   30DOPE   O11 3755   6.874   7.000   6.755  0.0521  0.2150 -0.1797
   30DOPE   O12 3756   6.637   7.029   6.721 -0.0476 -0.5934 -0.0953
   30DOPE    C1 3757   6.992   7.077   6.722  0.2181  0.0625  0.0131
   30DOPE    HA 3758   7.081   7.011   6.732 -0.4306 -1.1354 -1.7449
   30DOPE    HB 3759   7.000   7.159   6.797  0.4901  0.2908 -0.2632
   30DOPE    C2 3760   6.991   7.134   6.579  0.7658  0.2825 -0.5619
   30DOPE    HS 3761   6.890   7.175   6.557 -0.1783 -1.4281  0.4044
   30DOPE   O21 3762   7.005   7.022   6.487 -0.1192  0.6608 -0.1714
   30DOPE   C21 3763   6.956   7.042   6.367 -0.1761 -0.2812  0.8817
   30DOPE   O22 3764   6.902   7.146   6.329  0.2572 -0.3169 -0.9950
   30DOPE   C22 3765   6.971   6.912   6.276  0.9964  0.1846 -0.6015
   30DOPE   H2R 3766   6.889   6.845   6.310  1.9741  0.1943  2.0530
   30DOPE   H2S 3767   7.068   6.863   6.299  1.7470  1.8927  0.0924
   30DOPE    C3 3768   7.100   7.241   6.560  0.0565  0.4992  0.4378
   30DOPE    HX 3769   7.064   7.338   6.599 -0.9942  0.7147 -0.9949
   30DOPE    HY 3770   7.109   7.252   6.450 -0.3459 -0.0795  0.3413
   30DOPE   O31 3771   7.236   7.198   6.606 -0.6929 -0.0819 -0.3287
   30DOPE   C31 3772   7.279   7.267   6.713 -0.0416 -0.0293  0.5345
   30DOPE   O32 3773   7.213   7.336   6.785  0.0751  0.4998  0.6236
   30DOPE   C32 3774   7.423   7.238   6.745  1.1004  0.1058 -0.0554
   30DOPE   H2X 3775   7.427   7.248   6.855  0.3368 -2.5396  0.2799
   30DOPE   H2Y 3776   7.438   7.128   6.734  0.5603  0.2152 -2.7276
   30DOPE   C23 3777   6.955   6.935   6.119  0.2825  0.7703 -0.0600
   30DOPE   H3R 3778   7.012   7.024   6.086  0.0453  1.0932  0.4065
   30DOPE   H3S 3779   6.849   6.963   6.106 -0.7542 -2.8112 -0.5289
   30DOPE   C24 3780   6.987   6.808   6.034 -0.2171  0.1811 -0.3212
   30DOPE   H4R 3781   6.924   6.730   6.081 -0.8855  1.4762  1.0046
   30DOPE   H4S 3782   7.096   6.785   6.038  0.3508  2.7129  0.9439
   30DOPE   C25 3783   6.926   6.806   5.891 -0.4040 -0.2017 -0.6158
   30DOPE   H5R 3784   7.004   6.849   5.824  0.7106  0.9419  1.3091
   30DOPE   H5S 3785   6.828   6.859   5.892 -0.2520  0.0978 -1.2194
   30DOPE   C26 3786   6.891   6.659   5.845 -0.4026 -1.0606  0.0795
   30DOPE   H6R 3787   6.837   6.607   5.927 -0.7833 -0.7835  0.0109
   30DOPE   H6S 3788   6.990   6.610   5.831 -0.3687 -0.9154 -0.2092
   30DOPE   C27 3789   6.816   6.660   5.711 -0.3139  0.0829  0.0252
   30DOPE   H7R 3790   6.724   6.720   5.725 -0.0786  0.6444 -0.8017
   30DOPE   H7S 3791   6.771   6.560   5.695 -2.2980  1.0449 -0.5925
   30DOPE   C28 3792   6.882   6.727   5.587 -0.1686 -0.1435  0.2831
   30DOPE   H8R 3793   6.911   6.833   5.600 -1.1318  0.4642 -1.9676
   30DOPE   H8S 3794   6.801   6.734   5.511 -0.0390 -0.7964  0.0760
   30DOPE   C29 3795   7.011   6.658   5.540  0.8336 -0.1851 -0.5691
   30DOPE   H9R 3796   7.039   6.560   5.579  2.7866  0.7848  0.6259
   30DOPE  C210 3797   7.095   6.718   5.461 -0.1510 -0.2924  0.3192
   30DOPE  H10R 3798   7.192   6.672   5.436  0.1210  0.7773 -0.6351
   30DOPE  C211 3799   7.098   6.853   5.390  0.3747 -0.0204  0.6940
   30DOPE  H11R 3800   7.008   6.908   5.425  0.7090  0.3487  0.9794
   30DOPE  H11S 3801   7.102   6.836   5.280 -1.3809  1.1198  0.4106
   30DOPE  C212 3802   7.217   6.945   5.429  0.0867  0.7066 -0.5127
   30DOPE  H12R 3803   7.224   7.024   5.351  0.2397 -0.1849 -1.4254
   30DOPE  H12S 3804   7.311   6.886   5.424  0.2992  0.9947  0.0646
   30DOPE  C213 3805   7.192   7.014   5.569 -0.4139 -0.6558  0.2317
   30DOPE  H13R 3806   7.149   6.936   5.636  1.5347 -0.8888  1.3138
   30DOPE  H13S 3807   7.112   7.090   5.557 -0.1369 -0.6651 -2.1387
   30DOPE  C214 3808   7.325   7.069   5.628  0.0193  0.2977 -0.1963
   30DOPE  H14R 3809   7.364   7.139   5.551 -0.6864 -1.8220 -2.6258
   30DOPE  H14S 3810   7.405   6.991   5.636  0.9879  1.3543  0.8310
   30DOPE  C215 3811   7.313   7.149   5.761  0.0683 -0.4328  0.0034
   30DOPE  H15R 3812   7.217   7.205   5.767 -0.2423 -0.9042 -0.5170
   30DOPE  H15S 3813   7.397   7.220   5.779  0.1313 -0.0928 -1.5357
   30DOPE  C216 3814   7.312   7.045   5.883  0.0947  0.4850 -0.1870
   30DOPE  H16R 3815   7.410   6.992   5.885 -0.2360 -0.1017  0.7493
   30DOPE  H16S 3816   7.237   6.970   5.850 -0.6906  0.9004  0.6291
   30DOPE  C217 3817   7.275   7.111   6.016  0.2922  0.3503 -0.8275
   30DOPE  H17R 3818   7.170   7.147   6.005  0.1397  0.5249  0.8866
   30DOPE  H17S 3819   7.336   7.203   6.026 -0.4471  0.6270  1.7653
   30DOPE  C218 3820   7.295   7.025   6.141 -0.4464  0.0342  0.3100
   30DOPE  H18R 3821   7.221   6.943   6.132 -1.5729  1.0498 -0.0738
   30DOPE  H18S 3822   7.248   7.085   6.221 -1.2474  0.0316 -0.1452
   30DOPE  H18T 3823   7.398   6.986   6.156  0.1571  2.0968  2.0960
   30DOPE   C33 3824   7.521   7.328   6.672 -0.3845  0.2374  0.3350
   30DOPE   H3X 3825   7.488   7.431   6.694  0.8546  1.1429 -1.6780
   30DOPE   H3Y 3826   7.508   7.328   6.561 -1.0753  0.0924  0.4120
   30DOPE   C34 3827   7.666   7.311   6.709  0.3349  0.1934 -0.3332
   30DOPE   H4X 3828   7.726   7.382   6.649 -0.3991  1.6751  0.6452
   30DOPE   H4Y 3829   7.677   7.342   6.815 -1.9550  2.2860 -0.6179
   30DOPE   C35 3830   7.716   7.168   6.678 -1.0357  0.3044 -0.0521
   30DOPE   H5X 3831   7.659   7.083   6.720  1.0717 -0.7662  0.8085
   30DOPE   H5Y 3832   7.813   7.159   6.732 -0.3380 -0.3252 -1.3653
   30DOPE   C36 3833   7.738   7.145   6.527 -0.5859 -0.4472 -0.4656
   30DOPE   H6X 3834   7.846   7.123   6.510 -0.3121  2.0550 -2.7417
   30DOPE   H6Y 3835   7.708   7.239   6.475 -0.5858  0.4555  1.1047
   30DOPE   C37 3836   7.654   7.036   6.457 -0.1721 -0.5932  1.3015
   30DOPE   H7X 3837   7.684   6.935   6.491 -0.0947 -0.4307  1.7219
   30DOPE   H7Y 3838   7.545   7.050   6.475 -0.3479  0.9258 -0.6292
   30DOPE   C38 3839   7.670   7.038   6.298  0.5520 -0.3598 -0.4338
   30DOPE   H8X 3840   7.622   6.948   6.255  0.2720 -0.4692  0.1069
   30DOPE   H8Y 3841   7.779   7.030   6.276  0.9230 -0.2899  1.2755
   30DOPE   C39 3842   7.625   7.160   6.229  0.2427  0.2587  0.3317
   30DOPE   H9X 3843   7.527   7.197   6.262 -1.0665 -3.1250  0.6071
   30DOPE  C310 3844   7.696   7.225   6.133  0.5541  0.3252 -0.4728
   30DOPE  H10X 3845   7.648   7.318   6.099  3.4797  1.5633 -1.5462
   30DOPE  C311 3846   7.830   7.189   6.078 -1.0931 -0.6376  0.1930
   30DOPE  H11X 3847   7.886   7.284   6.066  0.6575 -1.3307  2.2875
   30DOPE  H11Y 3848   7.892   7.133   6.151 -0.7494  0.1071  0.4859
   30DOPE  C312 3849   7.821   7.106   5.946 -0.2472 -0.1857 -0.1897
   30DOPE  H12X 3850   7.741   7.029   5.958 -0.4059 -0.2026 -1.3291
   30DOPE  H12Y 3851   7.915   7.052   5.922 -0.4158 -1.1995  1.2581
   30DOPE  C313 3852   7.774   7.190   5.826 -0.6448  0.4531  0.0084
   30DOPE  H13X 3853   7.667   7.218   5.833 -1.5526 -1.9572 -2.4212
   30DOPE  H13Y 3854   7.833   7.284   5.826 -0.6662  0.4668  0.0820
   30DOPE  C314 3855   7.793   7.113   5.695  0.1235 -0.8694 -0.5324
   30DOPE  H14X 3856   7.707   7.044   5.678 -3.1410  2.4262  1.1865
   30DOPE  H14Y 3857   7.888   7.056   5.697 -0.3092 -1.5851 -0.0500
   30DOPE  C315 3858   7.799   7.217   5.589  0.4389  0.2488  0.0533
   30DOPE  H15X 3859   7.891   7.277   5.603  0.5382  0.9994 -3.1133
   30DOPE  H15Y 3860   7.709   7.282   5.591  0.5527  0.3951  1.0313
   30DOPE  C316 3861   7.815   7.144   5.451  0.7166 -0.7426 -0.7963
   30DOPE  H16X 3862   7.775   7.041   5.458 -0.3466 -0.4171 -1.7812
   30DOPE  H16Y 3863   7.924   7.125   5.439  0.6638 -1.7375  0.1469
   30DOPE  C317 3864   7.739   7.211   5.332 -0.1773  1.0952 -0.5336
   30DOPE  H17X 3865   7.634   7.222   5.367  0.2104  1.6277  0.5238
   30DOPE  H17Y 3866   7.767   7.318   5.344  0.8417  0.7230  0.5785
   30DOPE  C318 3867   7.771   7.143   5.201  0.3100  0.1186 -0.6522
   30DOPE  H18X 3868   7.876   7.108   5.193  0.7004  0.4101  2.1659
   30DOPE  H18Y 3869   7.706   7.053   5.194 -0.1412  0.4319 -0.5223
   30DOPE  H18Z 3870   7.743   7.212   5.119 -1.7916 -0.0141 -0.1143
   31DOPE     N 3871   2.092   4.286   3.016  0.6396 -0.1567 -0.2969
   31DOPE   HN1 3872   2.022   4.320   2.947  0.9951  0.5898 -0.2999
   31DOPE   HN2 3873   2.048   4.220   3.084  0.7686 -1.0281 -1.0376
   31DOPE   HN3 3874   2.128   4.364   3.074  0.9569 -2.0250  2.2064
   31DOPE   C12 3875   2.198   4.210   2.945 -0.2681  0.3569 -0.9908
   31DOPE  H12A 3876   2.295   4.209   2.998 -1.2545 -0.0541  0.8975
   31DOPE  H12B 3877   2.223   4.262   2.850  2.1352 -0.2813 -0.7628
   31DOPE   C11 3878   2.145   4.065   2.919  0.1746 -0.0862 -0.0712
   31DOPE  H11A 3879   2.229   3.999   2.890 -1.1197 -0.0684 -4.6875
   31DOPE  H11B 3880   2.064   4.074   2.843 -0.2162 -0.1678  0.3327
   31DOPE     P 3881   2.005   3.888   3.058  0.7166 -0.0059  0.0341
   31DOPE   O13 3882   2.006   3.810   2.932 -0.2422  0.7821 -0.8875
   31DOPE   O14 3883   1.868   3.922   3.104 -0.0929  0.4765 -0.4891
   31DOPE   O11 3884   2.077   3.807   3.167  0.3122 -0.0310 -0.5219
   31DOPE   O12 3885   2.087   4.019   3.043 -0.1879 -0.5334  0.0125
   31DOPE    C1 3886   2.204   3.744   3.165 -0.1001 -0.3741  0.1961
   31DOPE    HA 3887   2.284   3.818   3.188 -0.6480  0.7680 -1.3668
   31DOPE    HB 3888   2.214   3.692   3.067 -0.4238 -0.4391  0.1964
   31DOPE    C2 3889   2.237   3.647   3.277  0.6029  1.0238 -0.5714
   31DOPE    HS 3890   2.161   3.566   3.274  2.0843 -0.4601 -0.0673
   31DOPE   O21 3891   2.229   3.719   3.401  0.0582 -0.4296 -0.1454
   31DOPE   C21 3892   2.111   3.727   3.450  0.1924  0.6093  0.8168
   31DOPE   O22 3893   2.005   3.681   3.407 -0.7614  0.0569 -0.4102
   31DOPE   C22 3894   2.131   3.803   3.581 -0.4963 -0.5132  0.2956
   31DOPE   H2R 3895   2.076   3.756   3.665 -1.7488 -0.3322 -0.3965
   31DOPE   H2S 3896   2.093   3.906   3.566 -3.3209 -1.4695  0.3427
   31DOPE    C3 3897   2.372   3.583   3.258 -0.0845  0.2800 -1.0860
   31DOPE    HX 3898   2.444   3.649   3.204  0.3781  0.5461 -0.1698
   31DOPE    HY 3899   2.353   3.497   3.190 -0.2960 -0.5222 -0.0260
   31DOPE   O31 3900   2.425   3.561   3.390 -0.2229 -0.4983  0.0673
   31DOPE   C31 3901   2.418   3.433   3.428  0.6053 -0.6689  0.2561
   31DOPE   O32 3902   2.389   3.340   3.354  0.8631 -0.2333  0.0208
   31DOPE   C32 3903   2.452   3.428   3.573 -0.6864 -0.6532  0.5698
   31DOPE   H2X 3904   2.523   3.344   3.586 -0.2718 -0.6729 -1.4351
   31DOPE   H2Y 3905   2.502   3.523   3.599  1.3217 -1.4931 -0.0195
   31DOPE   C23 3906   2.280   3.819   3.636 -0.2372  0.3585 -0.0365
   31DOPE   H3R 3907   2.331   3.889   3.566 -1.2768  0.8346 -0.3488
   31DOPE   H3S 3908   2.341   3.726   3.635 -0.9022 -0.0888 -0.1397
   31DOPE   C24 3909   2.275   3.888   3.773  0.0544 -0.7825 -0.4312
   31DOPE   H4R 3910   2.380   3.900   3.806 -0.4425 -0.1622  0.9901
   31DOPE   H4S 3911   2.221   3.818   3.841 -1.7556  1.8057  0.9629
   31DOPE   C25 3912   2.220   4.028   3.784 -0.4317  0.6196  0.1263
   31DOPE   H5R 3913   2.112   4.038   3.759 -0.8236  3.0071  2.3936
   31DOPE   H5S 3914   2.279   4.093   3.716 -1.2680 -0.0071 -1.2435
   31DOPE   C26 3915   2.240   4.080   3.931  0.3940 -0.8436 -0.2803
   31DOPE   H6R 3916   2.349   4.071   3.950  0.6268  1.2916 -0.3878
   31DOPE   H6S 3917   2.195   4.008   4.003  0.3782 -3.1795 -2.4878
   31DOPE   C27 3918   2.181   4.224   3.953 -0.3647 -0.0054 -0.4226
   31DOPE   H7R 3919   2.108   4.252   3.874  0.1128  1.6693 -0.2937
   31DOPE   H7S 3920   2.268   4.291   3.943  1.2624 -1.7558  1.1946
   31DOPE   C28 3921   2.131   4.256   4.097  0.1820 -0.1789  0.2658
   31DOPE   H8R 3922   2.052   4.178   4.106  1.6048 -1.6825  0.1426
   31DOPE   H8S 3923   2.070   4.348   4.099  1.7567  0.9168 -0.6208
   31DOPE   C29 3924   2.243   4.251   4.194  0.1215  0.0953  0.7614
   31DOPE   H9R 3925   2.326   4.180   4.181 -1.6823 -2.3838  1.9438
   31DOPE  C210 3926   2.251   4.335   4.297  0.2100 -0.4031 -0.3993
   31DOPE  H10R 3927   2.317   4.328   4.384 -0.9961  0.5120  0.6214
   31DOPE  C211 3928   2.152   4.445   4.332  0.1290  0.1232  0.4852
   31DOPE  H11R 3929   2.129   4.424   4.439  1.2737 -1.8387  0.3941
   31DOPE  H11S 3930   2.051   4.432   4.287 -0.3373 -0.0995  1.5715
   31DOPE  C212 3931   2.203   4.581   4.306  0.3283 -0.3444 -0.3581
   31DOPE  H12R 3932   2.208   4.590   4.196  1.1608 -0.9234 -0.3742
   31DOPE  H12S 3933   2.300   4.588   4.360 -0.3957  1.1966  0.8442
   31DOPE  C213 3934   2.115   4.702   4.351  0.6070 -0.0484 -0.5077
   31DOPE  H13R 3935   2.040   4.712   4.269 -1.0847  0.0478  1.0042
   31DOPE  H13S 3936   2.176   4.794   4.364 -2.0128  1.9139 -1.1928
   31DOPE  C214 3937   2.035   4.688   4.480 -0.5148 -0.6016  0.6580
   31DOPE  H14R 3938   1.986   4.589   4.487 -0.2739 -0.7246  0.6269
   31DOPE  H14S 3939   1.958   4.768   4.470  1.3461  1.2114  0.1174
   31DOPE  C215 3940   2.117   4.709   4.613  0.0852  0.0542 -0.5024
   31DOPE  H15R 3941   2.192   4.790   4.599  0.7285 -0.3157  0.6770
   31DOPE  H15S 3942   2.175   4.614   4.619 -1.9930 -1.2429  0.1453
   31DOPE  C216 3943   2.035   4.732   4.740 -0.7586  0.4223 -0.1989
   31DOPE  H16R 3944   1.966   4.645   4.750  0.0627 -0.3303 -0.8329
   31DOPE  H16S 3945   1.963   4.816   4.730 -0.8726  0.3776  0.2227
   31DOPE  C217 3946   2.110   4.755   4.865  0.1739 -0.1457  0.6727
   31DOPE  H17R 3947   2.179   4.840   4.846  0.3367 -0.3897  0.1467
   31DOPE  H17S 3948   2.179   4.669   4.882  2.0616  1.6078  2.6784
   31DOPE  C218 3949   2.011   4.772   4.980 -0.2922  0.5516  0.0593
   31DOPE  H18R 3950   2.063   4.815   5.069 -1.9259 -0.1438  1.4092
   31DOPE  H18S 3951   1.957   4.681   5.014  0.2945 -0.4614 -1.6117
   31DOPE  H18T 3952   1.936   4.847   4.949 -1.3606 -0.8096 -0.7521
   31DOPE   C33 3953   2.324   3.403   3.652 -0.1844 -0.1790  0.3748
   31DOPE   H3X 3954   2.262   3.317   3.619  1.2696 -0.0142 -3.1519
   31DOPE   H3Y 3955   2.251   3.484   3.633 -1.3286 -1.7566 -2.6877
   31DOPE   C34 3956   2.348   3.400   3.802  0.5234  0.2139  0.1824
   31DOPE   H4X 3957   2.442   3.344   3.821  0.2821 -0.2025  0.1609
   31DOPE   H4Y 3958   2.365   3.501   3.847  0.2694 -0.1090  1.0218
   31DOPE   C35 3959   2.247   3.316   3.882  0.3949 -0.3805  0.1565
   31DOPE   H5X 3960   2.246   3.220   3.826 -0.5141  0.6841 -1.7435
   31DOPE   H5Y 3961   2.143   3.354   3.877  0.3585 -0.5891 -0.9142
   31DOPE   C36 3962   2.281   3.300   4.028 -0.0684 -0.2242  0.0795
   31DOPE   H6X 3963   2.293   3.403   4.066  1.1803 -0.2404 -0.2203
   31DOPE   H6Y 3964   2.379   3.249   4.040 -0.7619 -1.4853  0.6695
   31DOPE   C37 3965   2.183   3.226   4.108 -0.0701  0.4213 -0.1341
   31DOPE   H7X 3966   2.081   3.269   4.109  1.0139  3.2876 -1.3699
   31DOPE   H7Y 3967   2.183   3.121   4.072  0.9936  0.7263 -1.0997
   31DOPE   C38 3968   2.227   3.223   4.262  0.2682 -0.4076  0.1294
   31DOPE   H8X 3969   2.223   3.325   4.305  0.5964 -0.4276  0.2050
   31DOPE   H8Y 3970   2.329   3.180   4.248 -0.1968 -2.3276  2.0846
   31DOPE   C39 3971   2.134   3.146   4.354  0.1919  0.2495  0.4166
   31DOPE   H9X 3972   2.048   3.198   4.398  0.4070  1.8759 -0.9423
   31DOPE  C310 3973   2.167   3.017   4.374  0.1903  0.3478  0.4188
   31DOPE  H10X 3974   2.097   2.955   4.433 -1.2598  1.8962  0.3977
   31DOPE  C311 3975   2.284   2.945   4.314 -0.2891 -0.3429 -0.0664
   31DOPE  H11X 3976   2.280   2.956   4.204  0.4737 -0.1154 -0.0794
   31DOPE  H11Y 3977   2.377   3.001   4.337 -0.1261  0.0710 -1.6441
   31DOPE  C312 3978   2.302   2.801   4.356 -0.5159 -0.3622 -0.1184
   31DOPE  H12X 3979   2.370   2.745   4.289 -0.7600 -1.1076  0.2374
   31DOPE  H12Y 3980   2.201   2.754   4.355 -1.4766  1.6126 -0.1646
   31DOPE  C313 3981   2.346   2.785   4.502  0.3093 -0.5083 -0.2005
   31DOPE  H13X 3982   2.452   2.811   4.519 -0.7151  1.9580  3.9529
   31DOPE  H13Y 3983   2.290   2.859   4.562 -1.8762 -1.6471 -0.7126
   31DOPE  C314 3984   2.324   2.647   4.553 -0.2423  0.4389 -0.2364
   31DOPE  H14X 3985   2.378   2.580   4.483 -3.1200 -1.0208 -1.2285
   31DOPE  H14Y 3986   2.218   2.617   4.534 -0.7353  1.5870  0.5868
   31DOPE  C315 3987   2.377   2.625   4.695  0.7951 -0.0756  0.5578
   31DOPE  H15X 3988   2.338   2.705   4.761 -1.1615 -0.0251 -0.5630
   31DOPE  H15Y 3989   2.487   2.638   4.689  0.7075  0.2860 -0.4947
   31DOPE  C316 3990   2.334   2.487   4.741 -0.4533 -0.6396 -0.4701
   31DOPE  H16X 3991   2.395   2.462   4.831  1.3546  0.9368 -1.1811
   31DOPE  H16Y 3992   2.370   2.418   4.662  1.2559 -1.0840  0.6280
   31DOPE  C317 3993   2.187   2.473   4.781 -0.4247 -0.3878  0.5917
   31DOPE  H17X 3994   2.184   2.484   4.892 -4.6053 -0.6044  0.6543
   31DOPE  H17Y 3995   2.131   2.559   4.739 -0.2761 -0.3802  0.4078
   31DOPE  C318 3996   2.117   2.344   4.738 -0.2692  0.6051 -0.7316
   31DOPE  H18X 3997   2.136   2.312   4.633  3.4331 -0.6230  0.1547
   31DOPE  H18Y 3998   2.166   2.262   4.795 -0.0347  0.3002 -1.3610
   31DOPE  H18Z 3999   2.007   2.341   4.752 -0.5910 -4.5929 -2.2575
   32DOPE     N 4000   5.921   4.093   3.192 -0.7968  0.6395 -0.0921
   32DOPE   HN1 4001   5.939   4.179   3.248 -0.9257  1.7270 -1.6562
   32DOPE   HN2 4002   5.837   4.124   3.140 -1.1792 -0.8036 -0.3558
   32DOPE   HN3 4003   5.898   4.010   3.250  1.7720 -0.1921 -0.1129
   32DOPE   C12 4004   6.032   4.057   3.095  0.0586  0.5173 -0.5061
   32DOPE  H12A 4005   6.107   3.999   3.154 -0.6582  0.5820  0.4997
   32DOPE  H12B 4006   6.076   4.146   3.044  0.2560  1.3363  1.0232
   32DOPE   C11 4007   5.985   3.979   2.976  1.0070  0.5170 -0.6120
   32DOPE  H11A 4008   6.073   3.941   2.920  1.7127 -1.0691  1.4692
   32DOPE  H11B 4009   5.943   4.050   2.900  1.6025 -0.8270 -2.2664
   32DOPE     P 4010   5.870   3.751   2.926 -0.6431  0.2175 -0.0511
   32DOPE   O13 4011   5.947   3.758   2.801  0.1636 -0.3341  0.2782
   32DOPE   O14 4012   5.725   3.724   2.911 -0.1021 -0.4117 -0.8137
   32DOPE   O11 4013   5.936   3.630   3.014 -0.2166 -0.5123  0.4638
   32DOPE   O12 4014   5.901   3.874   3.018  0.0911  0.5045  0.0400
   32DOPE    C1 4015   5.865   3.555   3.110  0.0601  0.2552 -0.1208
   32DOPE    HA 4016   5.924   3.465   3.136  1.5952  0.9520 -1.0866
   32DOPE    HB 4017   5.767   3.514   3.077 -1.2844  0.6110  3.0868
   32DOPE    C2 4018   5.846   3.642   3.233 -0.5502 -0.1767  0.8774
   32DOPE    HS 4019   5.805   3.739   3.195 -0.0555 -0.8717 -1.6359
   32DOPE   O21 4020   5.976   3.651   3.303 -0.5825  0.2397 -0.3282
   32DOPE   C21 4021   5.997   3.767   3.358 -0.2532  0.8919 -0.2906
   32DOPE   O22 4022   5.936   3.870   3.348 -0.3745  0.0075  0.0892
   32DOPE   C22 4023   6.123   3.762   3.448 -0.1833  0.0345  0.8955
   32DOPE   H2R 4024   6.206   3.821   3.404 -0.7441 -0.3100 -0.7003
   32DOPE   H2S 4025   6.157   3.658   3.465 -1.3760 -0.2061  2.0242
   32DOPE    C3 4026   5.739   3.588   3.336  0.3064 -0.6579  0.1459
   32DOPE    HX 4027   5.636   3.608   3.298  0.8343  1.7087 -0.1930
   32DOPE    HY 4028   5.754   3.656   3.423 -1.1335  1.4633 -1.1696
   32DOPE   O31 4029   5.761   3.449   3.369 -0.3172 -0.1165  0.1121
   32DOPE   C31 4030   5.686   3.409   3.468  0.6826  0.3148  0.1070
   32DOPE   O32 4031   5.602   3.483   3.528  0.1463 -0.3922 -0.0349
   32DOPE   C32 4032   5.706   3.259   3.497  0.5164  0.7830  0.3493
   32DOPE   H2X 4033   5.672   3.194   3.413 -0.5003 -1.1968  2.1806
   32DOPE   H2Y 4034   5.815   3.237   3.501 -0.0654 -2.9254 -0.0874
   32DOPE   C23 4035   6.090   3.827   3.588  0.3422 -0.0304  0.4551
   32DOPE   H3R 4036   6.033   3.919   3.560  0.1242 -0.7936 -1.8368
   32DOPE   H3S 4037   6.172   3.878   3.643  2.6824 -0.4639 -2.3498
   32DOPE   C24 4038   6.010   3.728   3.677 -0.3643 -0.3136  0.5583
   32DOPE   H4R 4039   6.077   3.657   3.728  0.4015 -0.6791 -0.8952
   32DOPE   H4S 4040   5.942   3.665   3.616 -0.7592  1.3842 -0.8670
   32DOPE   C25 4041   5.913   3.810   3.772  0.7094 -0.3923  0.1150
   32DOPE   H5R 4042   5.840   3.877   3.721 -0.6862  0.9184  3.5817
   32DOPE   H5S 4043   5.986   3.877   3.822  0.5770 -1.3480  1.6351
   32DOPE   C26 4044   5.834   3.727   3.875  0.0611  0.3858 -0.3070
   32DOPE   H6R 4045   5.822   3.788   3.966  0.3707 -1.6103  1.1436
   32DOPE   H6S 4046   5.882   3.630   3.900 -2.4226 -0.4843  1.4925
   32DOPE   C27 4047   5.696   3.673   3.825 -0.0565 -0.7643 -0.5229
   32DOPE   H7R 4048   5.714   3.592   3.750 -1.4783 -0.8193 -0.8371
   32DOPE   H7S 4049   5.662   3.767   3.776  1.9774  0.7822  0.8462
   32DOPE   C28 4050   5.615   3.607   3.938  0.3815  0.4461 -0.1731
   32DOPE   H8R 4051   5.628   3.673   4.026  1.2538 -1.8487  1.5097
   32DOPE   H8S 4052   5.658   3.512   3.976  0.6600  1.4910  2.3156
   32DOPE   C29 4053   5.474   3.582   3.909 -0.3497 -0.1777 -0.7790
   32DOPE   H9R 4054   5.427   3.671   3.864  1.9867  0.9577 -1.1263
   32DOPE  C210 4055   5.407   3.466   3.923 -0.2919  0.0420 -0.2625
   32DOPE  H10R 4056   5.310   3.463   3.872 -0.7665 -0.8297  0.6776
   32DOPE  C211 4057   5.451   3.332   3.971 -0.5678 -0.3125  0.2269
   32DOPE  H11R 4058   5.550   3.332   4.022 -0.4545  1.9720  0.0936
   32DOPE  H11S 4059   5.479   3.274   3.881 -0.2570 -0.7429  0.5936
   32DOPE  C212 4060   5.342   3.249   4.042  0.6621  0.3850 -0.6845
   32DOPE  H12R 4061   5.284   3.200   3.961  1.2143 -0.5688 -0.5111
   32DOPE  H12S 4062   5.278   3.310   4.109  0.2727 -0.5760 -0.1686
   32DOPE  C213 4063   5.406   3.142   4.133  0.2420  0.3064  0.6618
   32DOPE  H13R 4064   5.325   3.097   4.195  0.0121  0.2413  0.3154
   32DOPE  H13S 4065   5.459   3.200   4.211  0.1330  1.2792  0.0216
   32DOPE  C214 4066   5.483   3.033   4.054  0.1191  0.4731  0.3378
   32DOPE  H14R 4067   5.546   2.971   4.121 -2.9561 -2.5299  0.6958
   32DOPE  H14S 4068   5.540   3.088   3.975 -1.4777  0.6117 -0.7609
   32DOPE  C215 4069   5.393   2.937   3.976 -0.1659  0.7704 -0.2924
   32DOPE  H15R 4070   5.331   3.003   3.911  0.7448 -0.3805 -2.4367
   32DOPE  H15S 4071   5.322   2.879   4.039  0.8564 -0.2332 -0.0424
   32DOPE  C216 4072   5.460   2.832   3.884  0.5038  0.0815 -0.1441
   32DOPE  H16R 4073   5.502   2.752   3.948  0.2675 -1.4470 -1.8107
   32DOPE  H16S 4074   5.547   2.872   3.828 -0.1214 -0.4983 -1.5966
   32DOPE  C217 4075   5.351   2.779   3.794  0.1527  0.4536  0.3928
   32DOPE  H17R 4076   5.301   2.855   3.730 -0.3336 -1.6302 -1.8511
   32DOPE  H17S 4077   5.274   2.739   3.863 -0.7992  2.7381  0.7440
   32DOPE  C218 4078   5.401   2.685   3.688 -0.0239  0.4302  0.6641
   32DOPE  H18R 4079   5.492   2.628   3.717  0.3781  0.5155 -0.3754
   32DOPE  H18S 4080   5.436   2.748   3.604  0.4494 -1.1940 -0.4083
   32DOPE  H18T 4081   5.326   2.606   3.664 -0.8620  0.4345  2.9685
   32DOPE   C33 4082   5.638   3.220   3.625  0.6358  0.2394 -0.3383
   32DOPE   H3X 4083   5.530   3.203   3.607  0.8311  0.3298 -1.7094
   32DOPE   H3Y 4084   5.649   3.290   3.711  0.7009 -0.1335 -0.0399
   32DOPE   C34 4085   5.675   3.077   3.674  0.0260 -0.7052  0.3110
   32DOPE   H4X 4086   5.610   3.055   3.762 -2.6502  2.2861 -0.7060
   32DOPE   H4Y 4087   5.646   3.004   3.595 -0.1784 -0.2276 -0.0657
   32DOPE   C35 4088   5.826   3.064   3.698  0.5223 -0.2727 -0.5775
   32DOPE   H5X 4089   5.866   3.079   3.595 -0.1377  0.7921 -0.6957
   32DOPE   H5Y 4090   5.838   2.960   3.733 -0.0624 -0.1300  0.0727
   32DOPE   C36 4091   5.892   3.164   3.798 -0.3568  0.6448  0.0568
   32DOPE   H6X 4092   5.877   3.267   3.760 -0.1534  1.0347  1.0038
   32DOPE   H6Y 4093   5.998   3.134   3.792 -0.6043 -0.2784  0.0760
   32DOPE   C37 4094   5.821   3.152   3.932  0.3350 -0.8764  0.3535
   32DOPE   H7X 4095   5.714   3.185   3.930  1.0720  1.7504 -0.3185
   32DOPE   H7Y 4096   5.814   3.044   3.958 -3.9163 -0.7235  0.5960
   32DOPE   C38 4097   5.882   3.243   4.036  0.4091  0.0470  0.0254
   32DOPE   H8X 4098   5.867   3.346   3.996 -0.7714 -0.2349 -0.3170
   32DOPE   H8Y 4099   5.992   3.233   4.032  0.8042  3.4519 -1.1549
   32DOPE   C39 4100   5.842   3.216   4.176 -0.7421 -0.3621 -0.2025
   32DOPE   H9X 4101   5.843   3.109   4.203  2.4577 -1.0143 -2.3972
   32DOPE  C310 4102   5.828   3.305   4.272  0.4725  0.2505 -0.5613
   32DOPE  H10X 4103   5.798   3.268   4.371  2.6741  0.1460  0.1139
   32DOPE  C311 4104   5.846   3.457   4.260  0.3430  0.1993 -0.8251
   32DOPE  H11X 4105   5.944   3.478   4.308  0.3173 -1.8759  0.2067
   32DOPE  H11Y 4106   5.840   3.503   4.159 -2.3871  2.3581  0.1775
   32DOPE  C312 4107   5.747   3.543   4.342 -0.9181  0.0645  0.0604
   32DOPE  H12X 4108   5.764   3.647   4.310 -0.3473 -0.3969 -1.2068
   32DOPE  H12Y 4109   5.760   3.533   4.452 -1.4752 -0.6400  0.0716
   32DOPE  C313 4110   5.602   3.503   4.310 -0.3491  0.1616 -0.0722
   32DOPE  H13X 4111   5.592   3.477   4.203 -0.9186 -0.1700  0.0584
   32DOPE  H13Y 4112   5.572   3.415   4.370  0.1571  0.6799  0.9820
   32DOPE  C314 4113   5.505   3.615   4.342  0.7562  0.1973  0.4754
   32DOPE  H14X 4114   5.405   3.572   4.318  0.5316  1.6832 -1.4597
   32DOPE  H14Y 4115   5.524   3.703   4.276  4.0058  0.0114  0.9653
   32DOPE  C315 4116   5.512   3.673   4.479  0.0342 -0.4436 -0.1023
   32DOPE  H15X 4117   5.440   3.757   4.492 -1.4423 -1.7847  0.7645
   32DOPE  H15Y 4118   5.615   3.715   4.484  0.2526 -0.6240 -2.2915
   32DOPE  C316 4119   5.482   3.576   4.593 -0.1483 -0.0081  0.6814
   32DOPE  H16X 4120   5.548   3.488   4.574 -1.1729 -0.2285 -2.3358
   32DOPE  H16Y 4121   5.376   3.545   4.578 -0.1242  0.2642 -0.0611
   32DOPE  C317 4122   5.520   3.632   4.729  0.8662  0.2336  0.4345
   32DOPE  H17X 4123   5.630   3.633   4.721  0.8475 -0.3247  0.1158
   32DOPE  H17Y 4124   5.470   3.731   4.724 -0.4260 -0.4402 -0.6487
   32DOPE  C318 4125   5.459   3.561   4.849  0.6545  0.5113 -0.7257
   32DOPE  H18X 4126   5.349   3.554   4.843  0.3888  1.1528  2.1293
   32DOPE  H18Y 4127   5.505   3.460   4.863 -0.2808  0.3796  1.8903
   32DOPE  H18Z 4128   5.486   3.609   4.945 -1.0751  0.3785 -0.1599
   33DOPE     N 4129   3.282   1.526   2.956 -0.3581 -0.5680 -0.6600
   33DOPE   HN1 4130   3.322   1.493   2.867 -0.5422 -0.1884 -0.8875
   33DOPE   HN2 4131   3.360   1.540   3.023 -0.5575 -0.2233 -0.4919
   33DOPE   HN3 4132   3.213   1.455   2.987 -0.0632 -0.3524  0.5466
   33DOPE   C12 4133   3.198   1.650   2.934  0.2034  0.7668 -0.4265
   33DOPE  H12A 4134   3.092   1.615   2.935 -0.3220  2.1655  1.8976
   33DOPE  H12B 4135   3.222   1.704   2.840  0.3175  0.6617 -0.4573
   33DOPE   C11 4136   3.205   1.755   3.050 -0.0713 -0.1448 -0.4437
   33DOPE  H11A 4137   3.202   1.704   3.149  0.4620  0.0352 -0.3261
   33DOPE  H11B 4138   3.116   1.821   3.054 -0.8270 -1.1869  0.4284
   33DOPE     P 4139   3.340   1.973   2.992  0.0706  0.0081  0.0321
   33DOPE   O13 4140   3.246   1.998   2.875 -0.5518  0.5279  0.6129
   33DOPE   O14 4141   3.479   2.024   2.985  0.1023  0.2418 -0.8141
   33DOPE   O11 4142   3.284   2.050   3.117  0.0398  0.0216  0.8151
   33DOPE   O12 4143   3.331   1.823   3.043  0.3868 -0.3088  0.1634
   33DOPE    C1 4144   3.301   2.000   3.248  0.1980  0.0168  0.5432
   33DOPE    HA 4145   3.393   1.939   3.266  0.5128  1.4702  5.0878
   33DOPE    HB 4146   3.214   1.938   3.276 -1.6685  2.3815  0.2622
   33DOPE    C2 4147   3.311   2.115   3.355  0.2102  0.0915  0.8083
   33DOPE    HS 4148   3.412   2.159   3.343 -0.0125  0.2677 -0.5469
   33DOPE   O21 4149   3.282   2.056   3.488 -0.0918 -0.6521  0.1560
   33DOPE   C21 4150   3.389   2.018   3.549  0.2828  0.1665  0.2958
   33DOPE   O22 4151   3.501   2.012   3.501  0.1906  0.2291  0.7506
   33DOPE   C22 4152   3.354   1.963   3.690  0.2653 -0.1260  0.9453
   33DOPE   H2R 4153   3.250   1.929   3.704  0.2535  0.2873  1.9568
   33DOPE   H2S 4154   3.371   2.053   3.754  0.0683  0.9699 -0.5016
   33DOPE    C3 4155   3.208   2.228   3.324  0.2017  0.0834 -0.4627
   33DOPE    HX 4156   3.112   2.175   3.308  0.5439 -0.3691 -1.0662
   33DOPE    HY 4157   3.234   2.297   3.240  0.4144  0.6205  0.0312
   33DOPE   O31 4158   3.191   2.308   3.436 -0.1621 -0.3591  0.0955
   33DOPE   C31 4159   3.275   2.409   3.451 -0.0604 -0.7466  0.6061
   33DOPE   O32 4160   3.373   2.434   3.382 -0.1351  0.1987 -0.2646
   33DOPE   C32 4161   3.226   2.506   3.557 -0.3489 -0.4192 -0.1190
   33DOPE   H2X 4162   3.317   2.560   3.592 -0.2295 -0.2365 -0.7088
   33DOPE   H2Y 4163   3.159   2.580   3.507  0.1322 -0.5192 -0.9227
   33DOPE   C23 4164   3.448   1.845   3.729  0.1030  0.1225 -0.4088
   33DOPE   H3R 4165   3.557   1.857   3.712  0.3896 -1.0217  0.4752
   33DOPE   H3S 4166   3.419   1.759   3.665  0.2981 -2.4243  2.6796
   33DOPE   C24 4167   3.434   1.817   3.878 -0.2964 -0.3399 -1.1256
   33DOPE   H4R 4168   3.330   1.781   3.894 -0.3708  1.0683  2.5738
   33DOPE   H4S 4169   3.444   1.906   3.943 -1.6995 -0.4899 -0.6721
   33DOPE   C25 4170   3.526   1.701   3.926  0.2977 -0.2282  0.7652
   33DOPE   H5R 4171   3.631   1.737   3.921  0.4303 -0.7435 -1.4200
   33DOPE   H5S 4172   3.516   1.615   3.856  3.2504 -0.8411  0.9724
   33DOPE   C26 4173   3.487   1.660   4.062 -0.3221 -0.5911  0.0310
   33DOPE   H6R 4174   3.388   1.611   4.059  0.0165 -1.2933  0.1116
   33DOPE   H6S 4175   3.484   1.743   4.136 -0.7257 -0.5703 -0.0050
   33DOPE   C27 4176   3.587   1.558   4.116 -0.2499 -0.2229  0.5702
   33DOPE   H7R 4177   3.694   1.582   4.099  0.0017  0.2389  2.6022
   33DOPE   H7S 4178   3.549   1.472   4.057 -1.4671  1.8915 -1.9005
   33DOPE   C28 4179   3.557   1.515   4.264  0.0168 -0.0097 -0.0289
   33DOPE   H8R 4180   3.447   1.507   4.271  0.0246 -1.3588 -0.9811
   33DOPE   H8S 4181   3.600   1.594   4.330 -1.1668 -0.4743  1.3236
   33DOPE   C29 4182   3.603   1.383   4.307  0.0323 -0.5654  0.4706
   33DOPE   H9R 4183   3.593   1.307   4.228  0.2815  0.5632 -0.6849
   33DOPE  C210 4184   3.678   1.356   4.413 -0.1722  0.0703 -0.6460
   33DOPE  H10R 4185   3.710   1.254   4.439 -2.6248 -0.5953 -0.0568
   33DOPE  C211 4186   3.731   1.460   4.511 -0.6116  1.4189  0.4197
   33DOPE  H11R 4187   3.723   1.428   4.617 -3.6859  0.9213  0.1272
   33DOPE  H11S 4188   3.696   1.565   4.504  0.9009  2.0374  1.6373
   33DOPE  C212 4189   3.885   1.480   4.505  0.2122  0.2784 -0.3389
   33DOPE  H12R 4190   3.910   1.546   4.591  1.0623  1.9063 -1.7497
   33DOPE  H12S 4191   3.921   1.537   4.416  0.2218  0.5399 -0.1705
   33DOPE  C213 4192   3.971   1.354   4.522 -0.2958 -0.7956 -0.3506
   33DOPE  H13R 4193   3.968   1.289   4.431 -2.4865 -0.4264 -0.6099
   33DOPE  H13S 4194   3.922   1.302   4.607 -1.1554 -0.0594 -0.3770
   33DOPE  C214 4195   4.118   1.372   4.543 -0.1800 -0.2674  0.6249
   33DOPE  H14R 4196   4.133   1.447   4.623 -0.7595  0.3402  0.1733
   33DOPE  H14S 4197   4.161   1.401   4.445 -2.2245 -1.4767 -0.7015
   33DOPE  C215 4198   4.190   1.243   4.576  0.8467 -0.1922  0.3372
   33DOPE  H15R 4199   4.155   1.178   4.493  1.4071  0.5195 -0.4722
   33DOPE  H15S 4200   4.139   1.189   4.659 -0.6117  0.0576 -0.3489
   33DOPE  C216 4201   4.340   1.256   4.568  0.6454  0.5435 -0.9913
   33DOPE  H16R 4202   4.359   1.303   4.469 -0.2956  4.5200  0.4848
   33DOPE  H16S 4203   4.387   1.156   4.570  0.1949  0.3346  0.4882
   33DOPE  C217 4204   4.398   1.359   4.672  0.2706  0.0561 -0.8609
   33DOPE  H17R 4205   4.356   1.460   4.655 -2.0225 -0.5557  0.7318
   33DOPE  H17S 4206   4.509   1.346   4.663  0.1389 -2.1877  0.1012
   33DOPE  C218 4207   4.356   1.331   4.815  0.9638  0.1120 -1.0758
   33DOPE  H18R 4208   4.377   1.224   4.837 -1.6136 -0.4310 -1.0122
   33DOPE  H18S 4209   4.245   1.334   4.819  0.9467 -0.3439 -1.1621
   33DOPE  H18T 4210   4.392   1.408   4.887 -3.1448  1.4679 -0.2494
   33DOPE   C33 4211   3.148   2.436   3.662 -0.9819 -0.2055  0.2814
   33DOPE   H3X 4212   3.050   2.392   3.631 -0.7076 -0.5227 -0.1359
   33DOPE   H3Y 4213   3.122   2.527   3.721  2.0884  1.0739 -0.1994
   33DOPE   C34 4214   3.227   2.337   3.756  0.1059  0.4144 -0.6091
   33DOPE   H4X 4215   3.272   2.254   3.697  0.1250 -0.5331  0.6735
   33DOPE   H4Y 4216   3.310   2.395   3.801 -0.4548  0.1169  0.8550
   33DOPE   C35 4217   3.132   2.280   3.860  0.0100  0.4855 -0.3639
   33DOPE   H5X 4218   3.072   2.203   3.807  0.2465  0.9083 -1.2630
   33DOPE   H5Y 4219   3.065   2.362   3.894 -0.0835  0.5188 -0.6275
   33DOPE   C36 4220   3.201   2.218   3.985  0.3676  0.1834 -0.5267
   33DOPE   H6X 4221   3.264   2.297   4.032 -1.2803  0.4946  1.2963
   33DOPE   H6Y 4222   3.274   2.135   3.972  1.0026 -0.4335  4.7647
   33DOPE   C37 4223   3.102   2.171   4.096  0.1391  0.3190 -0.9412
   33DOPE   H7X 4224   3.027   2.252   4.104  1.7937  1.9596 -1.1343
   33DOPE   H7Y 4225   3.058   2.073   4.070 -0.1644  0.0800  0.4102
   33DOPE   C38 4226   3.162   2.151   4.237  0.4028  0.1594 -0.5769
   33DOPE   H8X 4227   3.248   2.082   4.238 -0.6693 -1.2285  0.2184
   33DOPE   H8Y 4228   3.082   2.111   4.303  0.0180  0.9818 -0.5264
   33DOPE   C39 4229   3.212   2.281   4.295  0.0813 -0.0788  0.0094
   33DOPE   H9X 4230   3.298   2.325   4.243  0.9123 -1.7459 -0.0889
   33DOPE  C310 4231   3.178   2.332   4.422  0.1494 -0.1078  0.6676
   33DOPE  H10X 4232   3.212   2.434   4.445  0.7883  0.2811 -1.6609
   33DOPE  C311 4233   3.079   2.265   4.512  0.1384  0.3541 -0.4031
   33DOPE  H11X 4234   2.979   2.272   4.463 -1.1361 -1.6199  1.7077
   33DOPE  H11Y 4235   3.108   2.160   4.533  0.9036  0.6556  0.0810
   33DOPE  C312 4236   3.076   2.323   4.659 -0.7367 -0.5737 -0.1282
   33DOPE  H12X 4237   2.995   2.398   4.670  0.1107  0.3684 -0.1544
   33DOPE  H12Y 4238   3.167   2.385   4.671 -2.1325  1.9747 -1.7708
   33DOPE  C313 4239   3.079   2.216   4.765 -0.3846 -0.1239  0.0520
   33DOPE  H13X 4240   3.158   2.139   4.750  0.8205  0.9737  0.5799
   33DOPE  H13Y 4241   3.108   2.257   4.864 -0.9180 -0.8999  0.5451
   33DOPE  C314 4242   2.948   2.150   4.785  0.7878 -0.2505 -0.3643
   33DOPE  H14X 4243   2.901   2.120   4.689  1.6956  1.4582 -1.3993
   33DOPE  H14Y 4244   2.897   2.226   4.848  2.0632 -0.8555  1.5071
   33DOPE  C315 4245   2.966   2.023   4.871  0.4170  0.2753 -0.6354
   33DOPE  H15X 4246   3.051   2.038   4.940  0.6356  0.1158 -0.8676
   33DOPE  H15Y 4247   2.993   1.936   4.807  2.2157  0.5775 -0.3264
   33DOPE  C316 4248   2.835   1.976   4.948  0.0801 -0.1128  0.3695
   33DOPE  H16X 4249   2.751   1.970   4.876 -0.4680 -0.5452  1.0261
   33DOPE  H16Y 4250   2.805   2.055   5.020  3.2921  0.3580  1.3979
   33DOPE  C317 4251   2.850   1.848   5.017  0.1267 -0.5731 -0.3390
   33DOPE  H17X 4252   2.929   1.863   5.094 -0.9697 -0.7198  0.8506
   33DOPE  H17Y 4253   2.749   1.827   5.059 -0.4547 -0.5595 -1.6768
   33DOPE  C318 4254   2.889   1.728   4.932  0.2891 -0.0731  0.3135
   33DOPE  H18X 4255   2.999   1.728   4.920  0.1884 -0.3453 -0.7501
   33DOPE  H18Y 4256   2.855   1.634   4.979 -0.4190 -0.1416 -0.3012
   33DOPE  H18Z 4257   2.843   1.734   4.830 -0.3141  1.8669  0.6417
   34DOPE     N 4258   3.736   4.723   2.542  0.5485 -0.2364  0.3149
   34DOPE   HN1 4259   3.698   4.630   2.516  0.3339  0.4776 -2.1245
   34DOPE   HN2 4260   3.665   4.791   2.508 -0.0171 -1.7834 -1.8285
   34DOPE   HN3 4261   3.819   4.734   2.481  1.1170 -0.5518  1.0143
   34DOPE   C12 4262   3.769   4.727   2.682  0.6176 -0.3621 -0.9437
   34DOPE  H12A 4263   3.688   4.770   2.745 -0.2319 -0.6393 -1.8328
   34DOPE  H12B 4264   3.870   4.771   2.700  1.0613 -1.6815 -0.0655
   34DOPE   C11 4265   3.776   4.580   2.719 -0.4447 -0.1642 -0.3055
   34DOPE  H11A 4266   3.787   4.565   2.829 -0.9827  2.5846  0.2023
   34DOPE  H11B 4267   3.862   4.540   2.662  0.5171  1.1116  0.2204
   34DOPE     P 4268   3.640   4.360   2.730 -0.6535 -0.1070  0.2188
   34DOPE   O13 4269   3.767   4.289   2.759 -0.3079 -0.2947 -0.4895
   34DOPE   O14 4270   3.550   4.300   2.634 -0.1063 -0.2631  0.2970
   34DOPE   O11 4271   3.552   4.378   2.864 -0.4314 -0.1340 -0.2923
   34DOPE   O12 4272   3.663   4.504   2.678  0.0855 -0.3547  0.2736
   34DOPE    C1 4273   3.597   4.354   2.991 -0.1887 -0.0691 -0.0421
   34DOPE    HA 4274   3.526   4.409   3.057 -1.1830 -0.1979 -0.9708
   34DOPE    HB 4275   3.691   4.410   3.012  0.4998 -0.3975 -2.0065
   34DOPE    C2 4276   3.592   4.201   3.029  0.4184 -0.1286  0.4977
   34DOPE    HS 4277   3.638   4.159   2.937 -1.0107  1.8496 -1.2111
   34DOPE   O21 4278   3.458   4.152   3.058  0.0698  0.0166  0.4313
   34DOPE   C21 4279   3.447   4.032   3.018  0.1641 -0.4575  0.1425
   34DOPE   O22 4280   3.537   3.967   2.965  0.3603  0.1605 -0.5652
   34DOPE   C22 4281   3.300   3.984   3.048  0.1458  0.6767 -1.0254
   34DOPE   H2R 4282   3.248   3.969   2.951 -1.8227  2.2363 -0.2816
   34DOPE   H2S 4283   3.233   4.053   3.103 -1.6129 -1.2583 -0.6245
   34DOPE    C3 4284   3.691   4.184   3.152 -0.2183 -0.7131  0.3537
   34DOPE    HX 4285   3.783   4.246   3.144 -1.4694  1.3644  1.0176
   34DOPE    HY 4286   3.724   4.080   3.169  1.7119 -0.2166 -0.1083
   34DOPE   O31 4287   3.615   4.246   3.262 -0.0887  0.1435  0.0492
   34DOPE   C31 4288   3.543   4.171   3.329  0.1815  0.2178 -0.4279
   34DOPE   O32 4289   3.541   4.048   3.322  0.0446 -0.1549  1.3213
   34DOPE   C32 4290   3.451   4.245   3.425  0.0062  0.3447 -0.1953
   34DOPE   H2X 4291   3.388   4.314   3.363 -1.0687 -0.7489 -0.3672
   34DOPE   H2Y 4292   3.404   4.163   3.482 -1.3228  0.7960 -0.5892
   34DOPE   C23 4293   3.295   3.839   3.116  0.3552  0.3914 -0.1422
   34DOPE   H3R 4294   3.333   3.862   3.218  1.2541  2.2965 -0.8472
   34DOPE   H3S 4295   3.375   3.769   3.082  2.9687  2.8888  0.4436
   34DOPE   C24 4296   3.159   3.772   3.122 -0.2573 -0.4910 -0.9318
   34DOPE   H4R 4297   3.177   3.676   3.175  2.7345  0.8469  0.7262
   34DOPE   H4S 4298   3.136   3.742   3.018  4.5954 -3.6232 -1.4249
   34DOPE   C25 4299   3.047   3.857   3.184 -0.6554 -0.3683 -0.3712
   34DOPE   H5R 4300   2.949   3.807   3.163 -2.3426  2.2584  0.7921
   34DOPE   H5S 4301   3.046   3.960   3.144 -1.0418  0.9048  2.6348
   34DOPE   C26 4302   3.051   3.856   3.341  0.6571 -0.0690 -0.4492
   34DOPE   H6R 4303   3.147   3.905   3.366  1.2934 -1.3657 -0.2760
   34DOPE   H6S 4304   3.055   3.751   3.377  1.7339 -0.5475 -1.8914
   34DOPE   C27 4305   2.921   3.926   3.394 -0.2015  0.8871 -0.4597
   34DOPE   H7R 4306   2.902   3.897   3.499 -0.5732 -0.4437 -0.8671
   34DOPE   H7S 4307   2.834   3.895   3.332  0.3440 -0.5287 -0.5610
   34DOPE   C28 4308   2.931   4.073   3.381  0.6624 -0.9943 -0.1344
   34DOPE   H8R 4309   2.832   4.106   3.419  0.3419 -0.0152 -1.7090
   34DOPE   H8S 4310   2.925   4.102   3.274 -0.8309 -1.6974 -0.2685
   34DOPE   C29 4311   3.050   4.139   3.445  0.5159  0.2790 -0.5782
   34DOPE   H9R 4312   3.133   4.073   3.476 -0.2428 -0.5037 -0.1597
   34DOPE  C210 4313   3.060   4.279   3.451 -0.5331  0.6632 -0.1955
   34DOPE  H10R 4314   3.149   4.327   3.495 -1.1223  2.6586 -1.0769
   34DOPE  C211 4315   2.958   4.383   3.401 -0.2429  0.8199  0.1462
   34DOPE  H11R 4316   2.866   4.333   3.364 -0.3102 -0.6500  2.1374
   34DOPE  H11S 4317   3.002   4.431   3.311  0.8603 -0.1314  0.1480
   34DOPE  C212 4318   2.905   4.495   3.491  0.7637 -0.1962  0.3971
   34DOPE  H12R 4319   2.840   4.458   3.574  1.5772  0.5056  1.3660
   34DOPE  H12S 4320   2.839   4.555   3.424  1.1389  0.8577  0.9522
   34DOPE  C213 4321   3.015   4.579   3.547  0.4882  0.3574  0.2002
   34DOPE  H13R 4322   3.078   4.606   3.459  1.0528 -0.2532  0.4083
   34DOPE  H13S 4323   3.071   4.496   3.596 -1.2077 -2.2034 -1.9025
   34DOPE  C214 4324   2.956   4.693   3.635  0.1695 -0.4392 -1.0487
   34DOPE  H14R 4325   3.026   4.734   3.711 -0.3368 -1.3185 -0.0781
   34DOPE  H14S 4326   2.865   4.669   3.694 -0.5689  0.5694 -1.7339
   34DOPE  C215 4327   2.934   4.820   3.545 -1.0028  0.5844  0.1655
   34DOPE  H15R 4328   2.877   4.800   3.452 -2.8722 -1.5228  1.6542
   34DOPE  H15S 4329   3.034   4.850   3.508 -1.0454 -0.3564 -0.7730
   34DOPE  C216 4330   2.873   4.941   3.611  0.5882  0.1050 -0.8290
   34DOPE  H16R 4331   2.885   5.027   3.541  0.8101  0.5053 -0.3069
   34DOPE  H16S 4332   2.939   4.972   3.695  0.2228 -2.0985  0.3341
   34DOPE  C217 4333   2.721   4.938   3.645  0.5339  0.2238  0.3061
   34DOPE  H17R 4334   2.705   4.991   3.741  1.2349 -0.6099  0.8921
   34DOPE  H17S 4335   2.700   4.830   3.664  1.3777 -0.6435 -3.0148
   34DOPE  C218 4336   2.633   4.985   3.530  0.0081 -0.1698 -0.7539
   34DOPE  H18R 4337   2.529   4.950   3.547  0.0058  0.8233  1.6555
   34DOPE  H18S 4338   2.661   4.932   3.436 -1.3459 -0.5972 -0.9394
   34DOPE  H18T 4339   2.643   5.095   3.525  0.5703 -0.2080 -0.5052
   34DOPE   C33 4340   3.552   4.317   3.521  0.6554  0.9695 -0.2574
   34DOPE   H3X 4341   3.633   4.372   3.468 -0.4303  2.6634 -0.2336
   34DOPE   H3Y 4342   3.606   4.244   3.584  0.6802  1.3221  0.1285
   34DOPE   C34 4343   3.486   4.417   3.622 -1.1495  0.1130  0.5234
   34DOPE   H4X 4344   3.556   4.480   3.681 -1.4088  1.2371 -0.3184
   34DOPE   H4Y 4345   3.415   4.481   3.565 -0.6484 -0.0569 -0.3042
   34DOPE   C35 4346   3.404   4.345   3.728  0.3394  0.0811 -0.4300
   34DOPE   H5X 4347   3.469   4.267   3.774 -0.7833 -0.4801  0.2620
   34DOPE   H5Y 4348   3.327   4.293   3.666 -0.8929  2.0664 -0.6766
   34DOPE   C36 4349   3.362   4.449   3.831 -0.5389 -0.0984  0.8332
   34DOPE   H6X 4350   3.272   4.507   3.802  0.2682  1.4594  1.3748
   34DOPE   H6Y 4351   3.438   4.529   3.848  0.5010 -1.0312  0.7182
   34DOPE   C37 4352   3.318   4.376   3.962  0.6917  0.0846  0.5266
   34DOPE   H7X 4353   3.222   4.327   3.933  1.0678 -0.0801 -0.4663
   34DOPE   H7Y 4354   3.393   4.300   3.993  3.5309  0.3724 -4.5525
   34DOPE   C38 4355   3.290   4.470   4.077  1.0207  0.1807 -0.9964
   34DOPE   H8X 4356   3.370   4.547   4.073  2.0565 -0.9176 -2.2825
   34DOPE   H8Y 4357   3.301   4.411   4.171 -2.0035 -0.0684 -0.7180
   34DOPE   C39 4358   3.154   4.537   4.081  0.3580 -0.2853 -0.3710
   34DOPE   H9X 4359   3.157   4.631   4.024  1.1631  1.4266  2.3008
   34DOPE  C310 4360   3.049   4.501   4.157 -0.5985 -0.4379  0.1587
   34DOPE  H10X 4361   2.964   4.570   4.165 -1.1002 -1.2094  2.1109
   34DOPE  C311 4362   3.051   4.389   4.256  0.7471 -0.0839  0.4831
   34DOPE  H11X 4363   2.950   4.343   4.248  0.3359  1.1742 -2.8445
   34DOPE  H11Y 4364   3.115   4.304   4.223 -0.7322 -0.3837 -1.8852
   34DOPE  C312 4365   3.099   4.425   4.397 -0.0015  0.2972 -0.2968
   34DOPE  H12X 4366   3.047   4.510   4.446  0.7439  0.7703 -0.3074
   34DOPE  H12Y 4367   3.210   4.432   4.393  0.0028  0.0102 -0.7762
   34DOPE  C313 4368   3.065   4.317   4.504  0.0780 -0.6111 -0.0440
   34DOPE  H13X 4369   2.955   4.300   4.510  0.2989 -2.0183  0.5245
   34DOPE  H13Y 4370   3.116   4.222   4.479  1.4992  0.5732 -1.8616
   34DOPE  C314 4371   3.095   4.368   4.651  0.0395 -0.0255 -0.5854
   34DOPE  H14X 4372   3.035   4.458   4.677  1.5098  0.1742  2.5401
   34DOPE  H14Y 4373   3.202   4.396   4.656 -0.0976  0.2684  1.2956
   34DOPE  C315 4374   3.065   4.261   4.760 -0.3130  0.3910 -0.2689
   34DOPE  H15X 4375   3.116   4.286   4.855 -3.9870 -2.0727  2.6312
   34DOPE  H15Y 4376   3.098   4.165   4.713  0.5247  0.7727 -0.4707
   34DOPE  C316 4377   2.917   4.238   4.793 -0.5098 -0.4002 -0.3581
   34DOPE  H16X 4378   2.860   4.225   4.698  0.9053 -1.4598 -1.1090
   34DOPE  H16Y 4379   2.880   4.336   4.829 -1.2571  0.0654 -2.2834
   34DOPE  C317 4380   2.887   4.117   4.876  0.1316  0.3043 -0.5246
   34DOPE  H17X 4381   2.795   4.070   4.836 -0.4059 -1.6380  2.6500
   34DOPE  H17Y 4382   2.971   4.044   4.867  0.7744  0.6051  2.2748
   34DOPE  C318 4383   2.859   4.133   5.021 -0.2250 -0.4681 -0.6503
   34DOPE  H18X 4384   2.929   4.206   5.067 -1.0672  0.1480 -0.3337
   34DOPE  H18Y 4385   2.760   4.183   5.020  1.8342  4.1239 -2.0942
   34DOPE  H18Z 4386   2.863   4.043   5.086  1.3694 -0.1576 -0.2580
   35DOPE     N 4387   6.432   3.598   2.902 -0.2625  0.3639  0.6768
   35DOPE   HN1 4388   6.513   3.619   2.964  0.1292 -2.2413  1.1762
   35DOPE   HN2 4389   6.392   3.691   2.880  1.1030  0.9707  0.6685
   35DOPE   HN3 4390   6.372   3.536   2.961 -0.5275  0.1872  0.2271
   35DOPE   C12 4391   6.497   3.541   2.782  0.4033 -0.6150 -0.0352
   35DOPE  H12A 4392   6.559   3.622   2.737 -0.9091  0.7558  0.5686
   35DOPE  H12B 4393   6.420   3.523   2.704 -0.7970  0.3108  0.9162
   35DOPE   C11 4394   6.587   3.417   2.812 -0.4818  0.1012 -0.0980
   35DOPE  H11A 4395   6.607   3.354   2.722 -1.3467  1.2966 -1.1540
   35DOPE  H11B 4396   6.536   3.361   2.893  1.6031  0.2354  1.3823
   35DOPE     P 4397   6.845   3.371   2.869  0.0160  0.0141 -0.3015
   35DOPE   O13 4398   6.949   3.437   2.949 -0.0047 -0.5435 -0.4434
   35DOPE   O14 4399   6.882   3.318   2.736 -0.0624 -0.0084  0.2483
   35DOPE   O11 4400   6.792   3.253   2.960 -0.3204 -0.2442  0.2281
   35DOPE   O12 4401   6.716   3.465   2.855 -0.1232  0.5434  0.1287
   35DOPE    C1 4402   6.702   3.266   3.068 -0.2433 -0.3507  0.4554
   35DOPE    HA 4403   6.618   3.199   3.042 -0.6247  0.9599 -1.9962
   35DOPE    HB 4404   6.655   3.366   3.082 -0.2706 -0.1595 -0.8680
   35DOPE    C2 4405   6.775   3.228   3.201 -0.5151 -0.4959 -0.1145
   35DOPE    HS 4406   6.855   3.156   3.174  0.3318  0.5142 -0.3541
   35DOPE   O21 4407   6.684   3.161   3.282  0.0273  0.2173 -0.0262
   35DOPE   C21 4408   6.742   3.091   3.383  0.9674  0.4143 -0.5419
   35DOPE   O22 4409   6.863   3.068   3.392 -0.0998 -0.1386 -0.1914
   35DOPE   C22 4410   6.642   3.041   3.484 -0.0125 -0.0199  0.0997
   35DOPE   H2R 4411   6.551   2.999   3.435 -0.6299  1.6384 -0.2615
   35DOPE   H2S 4412   6.605   3.130   3.540  0.7606  0.4838 -0.1785
   35DOPE    C3 4413   6.848   3.351   3.266 -0.0278 -0.4352 -0.2398
   35DOPE    HX 4414   6.927   3.385   3.195  0.9402  1.5924  1.7051
   35DOPE    HY 4415   6.907   3.330   3.357 -1.0888  0.4044  0.6759
   35DOPE   O31 4416   6.758   3.465   3.287 -0.3764 -0.1999  0.1557
   35DOPE   C31 4417   6.686   3.449   3.394  0.0018  0.4132  0.4159
   35DOPE   O32 4418   6.698   3.357   3.478 -0.5379 -0.8357  0.7755
   35DOPE   C32 4419   6.591   3.566   3.398 -0.7361 -0.4447  0.5768
   35DOPE   H2X 4420   6.615   3.630   3.311  1.2482 -1.2235  0.5107
   35DOPE   H2Y 4421   6.492   3.517   3.386  0.1208 -2.1817  0.3175
   35DOPE   C23 4422   6.707   2.943   3.584  0.0822 -0.7131 -0.1528
   35DOPE   H3R 4423   6.771   3.007   3.650 -1.1142  1.3800 -0.9481
   35DOPE   H3S 4424   6.781   2.876   3.535  2.4953  0.9827  0.9575
   35DOPE   C24 4425   6.599   2.871   3.659 -0.0461  0.3890  0.1529
   35DOPE   H4R 4426   6.533   2.830   3.580 -1.2906  3.8782 -0.8001
   35DOPE   H4S 4427   6.538   2.948   3.712  2.7290  2.7432  0.1382
   35DOPE   C25 4428   6.647   2.755   3.748 -0.1557 -0.5344  1.1454
   35DOPE   H5R 4429   6.713   2.784   3.832  0.1218 -0.2332  0.8281
   35DOPE   H5S 4430   6.722   2.693   3.694  1.4575  2.9061 -0.9214
   35DOPE   C26 4431   6.531   2.668   3.798  0.4369 -0.0919 -0.5186
   35DOPE   H6R 4432   6.458   2.738   3.844  2.8364  2.6206 -0.5299
   35DOPE   H6S 4433   6.560   2.597   3.879  2.1738  0.7597 -0.3462
   35DOPE   C27 4434   6.459   2.594   3.686  0.7188  0.7744  0.3601
   35DOPE   H7R 4435   6.535   2.554   3.615  2.5239  1.6851  1.7197
   35DOPE   H7S 4436   6.398   2.660   3.621 -1.2029 -1.6141 -0.4239
   35DOPE   C28 4437   6.360   2.481   3.733  0.0798 -0.0913 -0.0621
   35DOPE   H8R 4438   6.305   2.437   3.647 -3.8516  1.9880  1.1542
   35DOPE   H8S 4439   6.271   2.534   3.773  0.1551  0.8727 -1.0974
   35DOPE   C29 4440   6.431   2.380   3.818  0.3401  0.1129 -0.2552
   35DOPE   H9R 4441   6.504   2.318   3.764  0.3136  1.1695 -1.5516
   35DOPE  C210 4442   6.415   2.367   3.954 -0.6160 -0.2730 -0.0684
   35DOPE  H10R 4443   6.478   2.293   4.006 -0.0711 -0.6439 -1.2239
   35DOPE  C211 4444   6.327   2.448   4.042 -0.2094  0.1067 -0.2436
   35DOPE  H11R 4445   6.315   2.549   3.998  1.1878  0.5354  0.3094
   35DOPE  H11S 4446   6.378   2.455   4.141  2.5461 -0.7959 -1.5019
   35DOPE  C212 4447   6.190   2.378   4.076 -0.6166 -0.2097  0.2791
   35DOPE  H12R 4448   6.136   2.347   3.985 -0.2263  1.6556 -0.6343
   35DOPE  H12S 4449   6.142   2.454   4.141  2.6957  0.3180  2.3418
   35DOPE  C213 4450   6.210   2.256   4.169  0.6381 -1.1831  0.3888
   35DOPE  H13R 4451   6.267   2.287   4.259 -0.1404  2.1500 -0.1574
   35DOPE  H13S 4452   6.248   2.180   4.097 -1.1567  0.5589 -2.5959
   35DOPE  C214 4453   6.068   2.210   4.209 -0.1410 -0.2028  0.2129
   35DOPE  H14R 4454   5.998   2.195   4.124 -2.4351  2.6856  1.3980
   35DOPE  H14S 4455   6.010   2.290   4.260 -1.4019 -0.9604  0.0118
   35DOPE  C215 4456   6.057   2.073   4.279 -0.4965  0.6077  0.3694
   35DOPE  H15R 4457   6.114   1.995   4.222 -1.5785  0.9747 -1.2915
   35DOPE  H15S 4458   5.948   2.050   4.278 -0.1545 -1.3720 -1.7389
   35DOPE  C216 4459   6.113   2.084   4.418 -0.6385 -0.0767 -0.0026
   35DOPE  H16R 4460   6.037   2.144   4.472  1.3422  1.2482  1.4520
   35DOPE  H16S 4461   6.203   2.148   4.430  1.1122 -2.5026  0.6040
   35DOPE  C217 4462   6.145   1.955   4.501 -0.2763 -1.3707  0.9012
   35DOPE  H17R 4463   6.048   1.901   4.514 -1.8190  0.9280 -0.4270
   35DOPE  H17S 4464   6.189   1.982   4.599  1.2686  0.5204 -0.2545
   35DOPE  C218 4465   6.253   1.859   4.446  0.0456 -0.5846  0.3070
   35DOPE  H18R 4466   6.208   1.802   4.362 -0.3507 -0.3456  0.3540
   35DOPE  H18S 4467   6.281   1.789   4.528  2.7508  0.4224  0.3144
   35DOPE  H18T 4468   6.347   1.913   4.423  0.7666 -1.5422  0.8983
   35DOPE   C33 4469   6.604   3.645   3.533  0.3812  0.6396 -0.4640
   35DOPE   H3X 4470   6.701   3.700   3.534  0.3255  0.7331  0.0077
   35DOPE   H3Y 4471   6.599   3.572   3.617 -1.2260  1.9120  0.5904
   35DOPE   C34 4472   6.489   3.744   3.540  0.3652 -0.1871  0.1027
   35DOPE   H4X 4473   6.495   3.816   3.456  1.1613 -2.4302 -1.8630
   35DOPE   H4Y 4474   6.396   3.688   3.518 -0.7104  0.5747  2.3557
   35DOPE   C35 4475   6.478   3.811   3.676  0.0381  1.3022  0.5384
   35DOPE   H5X 4476   6.426   3.909   3.676 -1.1695  0.6895  1.0465
   35DOPE   H5Y 4477   6.578   3.829   3.721  0.9007 -0.8788 -0.3413
   35DOPE   C36 4478   6.391   3.719   3.774 -0.4370  0.6032  0.3986
   35DOPE   H6X 4479   6.439   3.619   3.781 -1.1673  0.0746 -1.5381
   35DOPE   H6Y 4480   6.291   3.705   3.729  0.8619 -0.1304 -2.4881
   35DOPE   C37 4481   6.396   3.790   3.914  0.3870  0.8285  0.0098
   35DOPE   H7X 4482   6.491   3.760   3.962 -0.0797  1.7826  1.6056
   35DOPE   H7Y 4483   6.397   3.899   3.896  2.4527  0.5056 -2.3733
   35DOPE   C38 4484   6.270   3.747   3.995  0.2320  0.4806 -0.2605
   35DOPE   H8X 4485   6.183   3.792   3.942  1.6936  3.2402 -0.4714
   35DOPE   H8Y 4486   6.289   3.788   4.096 -1.5479  0.8150 -0.0260
   35DOPE   C39 4487   6.254   3.603   4.011  0.3934 -0.0662  0.4881
   35DOPE   H9X 4488   6.248   3.556   3.911  0.0144 -0.5952  0.7603
   35DOPE  C310 4489   6.245   3.529   4.118 -0.7860 -0.0902 -0.0788
   35DOPE  H10X 4490   6.250   3.419   4.112  1.0925 -0.2139  2.2131
   35DOPE  C311 4491   6.246   3.581   4.262  0.0507 -0.1716 -0.0661
   35DOPE  H11X 4492   6.201   3.682   4.273  1.9173  1.1105 -3.0067
   35DOPE  H11Y 4493   6.172   3.522   4.320 -1.1300  0.3202 -1.0341
   35DOPE  C312 4494   6.381   3.588   4.320 -0.1583  0.2948 -0.0643
   35DOPE  H12X 4495   6.453   3.631   4.247 -0.2731 -0.8487 -0.8698
   35DOPE  H12Y 4496   6.409   3.483   4.344  0.8062  0.2942 -1.1193
   35DOPE  C313 4497   6.378   3.664   4.456 -0.8654 -0.6514  0.2150
   35DOPE  H13X 4498   6.479   3.670   4.500 -1.0357  0.7477  0.4862
   35DOPE  H13Y 4499   6.351   3.771   4.440  1.0574 -0.1131  0.4031
   35DOPE  C314 4500   6.269   3.624   4.560  0.6907 -0.2387 -0.2035
   35DOPE  H14X 4501   6.270   3.515   4.582 -0.0595 -0.7799 -2.6005
   35DOPE  H14Y 4502   6.166   3.642   4.522  0.0955  1.1573  1.9054
   35DOPE  C315 4503   6.278   3.708   4.692  0.0141  0.5922  0.2801
   35DOPE  H15X 4504   6.181   3.688   4.742 -0.4329 -0.4779 -0.9763
   35DOPE  H15Y 4505   6.281   3.815   4.662 -1.3392  0.9517  1.3308
   35DOPE  C316 4506   6.400   3.680   4.787 -0.4034 -0.3661  0.5371
   35DOPE  H16X 4507   6.396   3.762   4.861  0.5166  0.8014 -0.6781
   35DOPE  H16Y 4508   6.493   3.689   4.727  0.1113 -0.4420  1.3159
   35DOPE  C317 4509   6.395   3.538   4.844 -0.5402  0.4168 -0.2351
   35DOPE  H17X 4510   6.393   3.459   4.766 -1.6845  0.4610 -0.2645
   35DOPE  H17Y 4511   6.492   3.522   4.895 -2.5082 -2.1831  3.1054
   35DOPE  C318 4512   6.283   3.515   4.942  0.7788 -0.1594 -0.8058
   35DOPE  H18X 4513   6.280   3.407   4.967 -0.9449  0.2109  0.8991
   35DOPE  H18Y 4514   6.294   3.584   5.029  2.3559 -0.6796 -0.5647
   35DOPE  H18Z 4515   6.185   3.532   4.891  1.7191 -1.7875 -3.3824
   36DOPE     N 4516   5.688   4.524   2.562  0.3695 -0.2027  0.1897
   36DOPE   HN1 4517   5.647   4.569   2.478 -1.9933 -1.5978  0.5085
   36DOPE   HN2 4518   5.626   4.442   2.575 -1.0152  0.2904 -2.4989
   36DOPE   HN3 4519   5.669   4.590   2.639  0.6172  1.7103 -1.3149
   36DOPE   C12 4520   5.832   4.494   2.542  0.1136 -0.3132 -0.0252
   36DOPE  H12A 4521   5.869   4.573   2.474 -0.4022  0.5430  0.6652
   36DOPE  H12B 4522   5.834   4.395   2.491 -0.2903 -0.5761  0.4567
   36DOPE   C11 4523   5.902   4.489   2.675 -0.2352  0.2359 -0.3393
   36DOPE  H11A 4524   5.896   4.589   2.724 -1.7576 -0.3208  0.6613
   36DOPE  H11B 4525   6.011   4.472   2.659 -0.1062  1.2530 -0.6476
   36DOPE     P 4526   5.900   4.366   2.908  0.1315  0.3342  0.5569
   36DOPE   O13 4527   6.038   4.328   2.878 -0.4509 -0.2938  0.1606
   36DOPE   O14 4528   5.806   4.264   2.971 -0.3672  0.5790  0.3760
   36DOPE   O11 4529   5.905   4.499   2.987  0.2996  0.0258 -0.1839
   36DOPE   O12 4530   5.834   4.401   2.768 -0.6482 -0.4120  0.1812
   36DOPE    C1 4531   5.790   4.578   3.020 -0.3377 -0.5477  0.5630
   36DOPE    HA 4532   5.694   4.549   2.972  0.4685 -0.8820 -0.9266
   36DOPE    HB 4533   5.820   4.673   2.971  1.3308 -0.4705  1.6382
   36DOPE    C2 4534   5.766   4.605   3.176 -0.3081  0.7615  0.5255
   36DOPE    HS 4535   5.702   4.694   3.199 -1.4492 -0.3396  1.7899
   36DOPE   O21 4536   5.891   4.627   3.252 -0.6331  0.4470 -0.4212
   36DOPE   C21 4537   5.957   4.733   3.215  0.3172  0.3404 -0.3742
   36DOPE   O22 4538   5.915   4.818   3.138 -0.0468 -0.2996  0.0285
   36DOPE   C22 4539   6.096   4.726   3.291  0.3615 -0.2413  0.1060
   36DOPE   H2R 4540   6.161   4.780   3.219  0.0472  0.8968  0.6579
   36DOPE   H2S 4541   6.133   4.621   3.282 -1.8911 -1.0078 -1.1647
   36DOPE    C3 4542   5.700   4.487   3.244  0.5656  0.2644 -0.0777
   36DOPE    HX 4543   5.760   4.393   3.237 -1.1363 -1.0797  1.8838
   36DOPE    HY 4544   5.602   4.464   3.198 -0.3115  1.5395  1.0630
   36DOPE   O31 4545   5.651   4.520   3.373 -0.2279  0.5769  0.6924
   36DOPE   C31 4546   5.735   4.503   3.470  0.3469  0.7089 -0.0863
   36DOPE   O32 4547   5.849   4.460   3.458 -0.1728 -0.5115  0.1932
   36DOPE   C32 4548   5.668   4.539   3.603  0.2435 -0.0084  0.1588
   36DOPE   H2X 4549   5.660   4.650   3.599  2.7217  0.2109 -0.4598
   36DOPE   H2Y 4550   5.571   4.486   3.614  0.2288 -0.1378 -0.5283
   36DOPE   C23 4551   6.095   4.801   3.421  0.6781 -0.0233  0.0375
   36DOPE   H3R 4552   6.021   4.884   3.416  0.3205 -0.3731 -0.6332
   36DOPE   H3S 4553   6.189   4.860   3.431  0.7122  0.0865 -0.8549
   36DOPE   C24 4554   6.057   4.716   3.542 -0.4374 -0.5764  0.3100
   36DOPE   H4R 4555   6.124   4.629   3.558  1.4710  0.4924 -1.3794
   36DOPE   H4S 4556   5.955   4.673   3.533 -0.4063 -1.2373  2.4441
   36DOPE   C25 4557   6.038   4.800   3.665 -0.7606 -0.2669  0.2040
   36DOPE   H5R 4558   6.129   4.862   3.683  0.4400 -1.7795 -0.4666
   36DOPE   H5S 4559   6.022   4.739   3.756  0.4716  0.6967  1.1133
   36DOPE   C26 4560   5.923   4.903   3.668  0.1053  0.6251  0.1766
   36DOPE   H6R 4561   5.840   4.850   3.617 -0.0351 -2.2305  3.1119
   36DOPE   H6S 4562   5.967   4.987   3.608  2.0371  0.9784  1.9791
   36DOPE   C27 4563   5.878   4.968   3.802  0.5144 -0.2510  0.2856
   36DOPE   H7R 4564   5.964   5.007   3.860 -0.6213 -1.2690  2.7884
   36DOPE   H7S 4565   5.838   4.884   3.861 -2.6102  0.7424 -0.2207
   36DOPE   C28 4566   5.762   5.078   3.798 -0.1923 -0.5065 -0.0364
   36DOPE   H8R 4567   5.764   5.116   3.903 -2.2964  2.3075 -0.8964
   36DOPE   H8S 4568   5.667   5.021   3.793 -0.6467  0.0435  1.5254
   36DOPE   C29 4569   5.788   5.193   3.708 -0.5487 -0.3507 -0.3829
   36DOPE   H9R 4570   5.821   5.283   3.762  0.0320  0.2768 -1.7156
   36DOPE  C210 4571   5.759   5.196   3.577  0.1118  0.2824  0.2075
   36DOPE  H10R 4572   5.801   5.280   3.520 -0.2896 -0.2267 -0.8641
   36DOPE  C211 4573   5.686   5.086   3.497 -0.7342 -0.4843 -0.7201
   36DOPE  H11R 4574   5.683   4.997   3.563  0.4002 -0.2789 -0.3640
   36DOPE  H11S 4575   5.741   5.044   3.410 -0.7461 -0.4394 -0.7494
   36DOPE  C212 4576   5.554   5.127   3.446 -0.3005 -0.6825  0.4353
   36DOPE  H12R 4577   5.569   5.219   3.384  2.2206 -0.6388  0.9840
   36DOPE  H12S 4578   5.471   5.154   3.514 -0.2995  0.7105 -0.0728
   36DOPE  C213 4579   5.508   5.019   3.342 -0.1568 -0.0333  0.5691
   36DOPE  H13R 4580   5.583   5.024   3.260 -0.7877 -0.0533 -0.0156
   36DOPE  H13S 4581   5.413   5.061   3.303 -0.6877 -0.6674  1.1773
   36DOPE  C214 4582   5.490   4.879   3.388 -0.2867  0.5046 -0.6232
   36DOPE  H14R 4583   5.574   4.828   3.440 -0.4951  0.0756 -0.6959
   36DOPE  H14S 4584   5.467   4.815   3.300 -1.7911  1.9778 -1.3311
   36DOPE  C215 4585   5.365   4.855   3.472 -0.0625 -0.2439 -0.0558
   36DOPE  H15R 4586   5.284   4.911   3.420  0.6346  0.6950 -0.1806
   36DOPE  H15S 4587   5.377   4.899   3.573 -2.3671  0.6673 -0.1380
   36DOPE  C216 4588   5.336   4.707   3.465 -0.0888 -0.2174  0.2384
   36DOPE  H16R 4589   5.417   4.648   3.514  0.0158  0.8635  1.4066
   36DOPE  H16S 4590   5.325   4.674   3.360  0.6052  0.5803 -0.0926
   36DOPE  C217 4591   5.200   4.666   3.526 -0.3453 -0.2410 -0.1301
   36DOPE  H17R 4592   5.117   4.719   3.476  2.3514  2.5767 -1.9513
   36DOPE  H17S 4593   5.213   4.702   3.631  0.2372  1.4844 -0.7548
   36DOPE  C218 4594   5.170   4.512   3.526 -0.7758 -0.1364 -0.2024
   36DOPE  H18R 4595   5.256   4.449   3.557  0.0357  0.2390 -1.6328
   36DOPE  H18S 4596   5.131   4.486   3.425 -1.0595  0.7721 -0.3354
   36DOPE  H18T 4597   5.087   4.485   3.595 -1.2665 -2.8668 -1.6904
   36DOPE   C33 4598   5.751   4.517   3.734  0.7050 -0.4388 -0.1352
   36DOPE   H3X 4599   5.851   4.561   3.718 -0.6595  2.4430 -1.4894
   36DOPE   H3Y 4600   5.747   4.406   3.744  1.3893 -0.5353 -0.8234
   36DOPE   C34 4601   5.708   4.605   3.854  0.4544  0.3552 -0.0305
   36DOPE   H4X 4602   5.731   4.549   3.947  0.4445  1.5921  0.7361
   36DOPE   H4Y 4603   5.766   4.700   3.850  0.4583  0.3622  0.1768
   36DOPE   C35 4604   5.562   4.650   3.873  0.3010  0.1162  0.1727
   36DOPE   H5X 4605   5.536   4.702   3.778 -0.4935 -0.4732  0.0524
   36DOPE   H5Y 4606   5.556   4.724   3.955 -0.1858 -0.9168  1.0885
   36DOPE   C36 4607   5.471   4.533   3.897 -0.0316 -0.4246  0.2453
   36DOPE   H6X 4608   5.515   4.467   3.975 -0.5759 -0.4395  0.5491
   36DOPE   H6Y 4609   5.462   4.468   3.807 -0.9869 -1.5617  1.1236
   36DOPE   C37 4610   5.328   4.578   3.928  0.3064 -0.0905  0.0953
   36DOPE   H7X 4611   5.339   4.649   4.013  2.0534 -0.0511 -0.1349
   36DOPE   H7Y 4612   5.301   4.641   3.841  1.0718  1.8491  1.2077
   36DOPE   C38 4613   5.236   4.462   3.957 -0.1262  0.5372  0.1054
   36DOPE   H8X 4614   5.234   4.392   3.871 -0.4012 -0.4743  0.9153
   36DOPE   H8Y 4615   5.133   4.499   3.975 -0.0409  0.6073  0.4449
   36DOPE   C39 4616   5.291   4.396   4.087  0.2180 -0.4364 -0.2175
   36DOPE   H9X 4617   5.356   4.309   4.073  2.4931  0.8944  1.3773
   36DOPE  C310 4618   5.255   4.440   4.212 -0.0688 -0.2656 -0.2487
   36DOPE  H10X 4619   5.280   4.377   4.298 -1.4993 -0.8520 -0.2371
   36DOPE  C311 4620   5.160   4.552   4.252  0.0060 -0.1590  0.0465
   36DOPE  H11X 4621   5.131   4.611   4.162 -0.6452 -1.8743 -0.9106
   36DOPE  H11Y 4622   5.065   4.513   4.296 -0.0076 -0.4968 -0.2786
   36DOPE  C312 4623   5.209   4.654   4.362 -0.0989 -0.4841  0.7511
   36DOPE  H12X 4624   5.140   4.741   4.361 -2.3286 -2.1529 -1.4997
   36DOPE  H12Y 4625   5.305   4.694   4.321  0.7203 -1.9016  1.2118
   36DOPE  C313 4626   5.209   4.610   4.509 -0.5271 -0.1207 -0.1210
   36DOPE  H13X 4627   5.109   4.614   4.559 -0.3908  1.0774  0.0770
   36DOPE  H13Y 4628   5.254   4.509   4.521  0.7062  0.5388  1.1773
   36DOPE  C314 4629   5.306   4.693   4.603  0.2783  0.1060  0.7348
   36DOPE  H14X 4630   5.412   4.689   4.569  0.1512  0.0459  0.3385
   36DOPE  H14Y 4631   5.298   4.650   4.705 -0.7176 -0.5058  0.4217
   36DOPE  C315 4632   5.272   4.844   4.611 -0.4163  0.7646  0.2083
   36DOPE  H15X 4633   5.161   4.851   4.606 -0.3928  2.1481  1.0209
   36DOPE  H15Y 4634   5.314   4.895   4.522 -1.3823  1.2693  0.0290
   36DOPE  C316 4635   5.330   4.906   4.739 -0.0417  0.7338 -0.3897
   36DOPE  H16X 4636   5.280   4.864   4.829  1.5786  1.3506  0.8537
   36DOPE  H16Y 4637   5.300   5.013   4.731 -2.3938  0.0162 -2.2166
   36DOPE  C317 4638   5.484   4.894   4.739  0.4381  0.3336 -0.4945
   36DOPE  H17X 4639   5.517   4.789   4.729 -2.2314 -0.6362 -0.0512
   36DOPE  H17Y 4640   5.522   4.943   4.647  0.9767 -1.8629 -1.5002
   36DOPE  C318 4641   5.546   4.965   4.859 -0.0288  0.2508  0.3763
   36DOPE  H18X 4642   5.656   4.954   4.844 -0.5732 -1.9289 -3.3331
   36DOPE  H18Y 4643   5.525   5.073   4.866  1.0930  0.5542 -0.6223
   36DOPE  H18Z 4644   5.521   4.907   4.951  0.9882 -1.1268 -0.1682
   37DOPE     N 4645   1.854   3.527   3.226 -0.3949 -0.0954 -0.9661
   37DOPE   HN1 4646   1.904   3.464   3.160 -1.4774 -1.4005 -0.5974
   37DOPE   HN2 4647   1.796   3.603   3.185  1.1622  1.7781  0.1398
   37DOPE   HN3 4648   1.920   3.572   3.292 -0.2182 -0.8627 -0.6068
   37DOPE   C12 4649   1.762   3.445   3.310  0.3381 -0.1896  0.2352
   37DOPE  H12A 4650   1.726   3.356   3.253  1.3916 -0.0317 -0.7285
   37DOPE  H12B 4651   1.673   3.507   3.331 -0.4935 -1.5359  0.8211
   37DOPE   C11 4652   1.817   3.403   3.447 -0.5917 -0.0112 -0.5008
   37DOPE  H11A 4653   1.736   3.339   3.490 -0.3395 -0.7469 -1.1013
   37DOPE  H11B 4654   1.840   3.488   3.515  1.7005 -1.6833  0.9499
   37DOPE     P 4655   1.958   3.182   3.414  0.1361  0.0773  0.4099
   37DOPE   O13 4656   2.060   3.171   3.311 -0.7117  0.2426  0.5140
   37DOPE   O14 4657   1.827   3.121   3.380 -0.0974 -0.5516  0.1923
   37DOPE   O11 4658   2.017   3.124   3.543 -0.0433  0.4550 -0.4177
   37DOPE   O12 4659   1.943   3.338   3.438  0.3849 -0.1026  0.3127
   37DOPE    C1 4660   1.957   3.165   3.667  0.1818 -0.4081 -0.0089
   37DOPE    HA 4661   1.856   3.212   3.665  0.0540 -0.5796  1.3381
   37DOPE    HB 4662   2.016   3.246   3.715 -0.5135  1.5316 -2.2674
   37DOPE    C2 4663   1.943   3.049   3.772  0.1192  0.9798  0.0762
   37DOPE    HS 4664   1.893   3.088   3.862 -0.3602 -2.7085  1.5863
   37DOPE   O21 4665   2.074   3.007   3.807  0.4524  0.1356 -0.8079
   37DOPE   C21 4666   2.139   2.900   3.752 -0.2065  0.6247 -0.4154
   37DOPE   O22 4667   2.095   2.828   3.665  0.3937 -0.6640  0.3115
   37DOPE   C22 4668   2.281   2.870   3.819  0.6722 -0.7117  0.4953
   37DOPE   H2R 4669   2.336   2.966   3.829  1.1538 -0.8705 -0.4459
   37DOPE   H2S 4670   2.329   2.809   3.740  0.1228  1.4617 -1.6618
   37DOPE    C3 4671   1.850   2.934   3.724  0.8644 -0.2809  0.0320
   37DOPE    HX 4672   1.866   2.846   3.790 -0.8588  1.0572  2.3858
   37DOPE    HY 4673   1.876   2.908   3.619 -0.3273 -2.6003  0.2509
   37DOPE   O31 4674   1.710   2.976   3.712 -0.1836 -0.5565  0.5385
   37DOPE   C31 4675   1.642   2.981   3.822 -0.6274  0.2044  0.0551
   37DOPE   O32 4676   1.678   2.935   3.930  0.3606  0.1379 -0.4014
   37DOPE   C32 4677   1.516   3.063   3.802 -0.1401 -0.2573  0.1050
   37DOPE   H2X 4678   1.497   3.064   3.692  0.7783 -0.7911 -0.0683
   37DOPE   H2Y 4679   1.433   3.008   3.851  0.3805 -0.1017  1.1940
   37DOPE   C23 4680   2.277   2.800   3.955  0.3517 -0.3240 -0.0143
   37DOPE   H3R 4681   2.209   2.844   4.031 -1.2746 -0.6347 -1.2327
   37DOPE   H3S 4682   2.378   2.803   4.002 -0.0142 -2.7474  1.1312
   37DOPE   C24 4683   2.236   2.655   3.940 -0.0224 -0.5796 -0.0238
   37DOPE   H4R 4684   2.316   2.607   3.880  0.2822 -0.1955  0.0731
   37DOPE   H4S 4685   2.140   2.630   3.891  0.3272  1.3145 -1.8159
   37DOPE   C25 4686   2.238   2.578   4.074 -1.0159  0.1694  0.0683
   37DOPE   H5R 4687   2.163   2.622   4.143 -1.5038  1.8064 -1.4096
   37DOPE   H5S 4688   2.340   2.596   4.114 -0.9318  1.2927 -0.5901
   37DOPE   C26 4689   2.224   2.429   4.064  0.2007 -0.3291  0.4677
   37DOPE   H6R 4690   2.306   2.392   3.998 -1.9324 -0.2180 -2.4296
   37DOPE   H6S 4691   2.129   2.404   4.013  1.0342 -0.5488 -1.0567
   37DOPE   C27 4692   2.235   2.364   4.201  0.0090 -0.0298 -0.0047
   37DOPE   H7R 4693   2.155   2.395   4.272  1.0491 -0.8455  1.5676
   37DOPE   H7S 4694   2.326   2.408   4.248 -0.3728 -0.7707  1.4696
   37DOPE   C28 4695   2.252   2.206   4.201  0.1014 -0.2787  0.3485
   37DOPE   H8R 4696   2.266   2.165   4.304 -0.8628 -0.9454  0.2296
   37DOPE   H8S 4697   2.337   2.179   4.135  1.5390  0.8677  1.6560
   37DOPE   C29 4698   2.123   2.154   4.147 -0.7780 -0.5761  0.4386
   37DOPE   H9R 4699   2.121   2.168   4.038  0.6419 -0.6597  0.3788
   37DOPE  C210 4700   2.012   2.115   4.206  0.6589  0.7663  0.4975
   37DOPE  H10R 4701   1.930   2.085   4.138 -0.1597  2.1537  0.8463
   37DOPE  C211 4702   1.990   2.114   4.348  0.5768 -0.2185  0.6786
   37DOPE  H11R 4703   1.883   2.126   4.374  0.0027 -1.0180 -1.1463
   37DOPE  H11S 4704   2.052   2.191   4.398  0.4861 -0.0778  0.5753
   37DOPE  C212 4705   2.030   1.980   4.413  0.0792 -0.0835 -0.5134
   37DOPE  H12R 4706   2.140   1.963   4.420  0.0526 -0.2155 -0.4183
   37DOPE  H12S 4707   1.980   1.892   4.368  0.5288  1.0152 -3.4295
   37DOPE  C213 4708   1.979   1.981   4.560 -0.1235  0.1673 -0.3588
   37DOPE  H13R 4709   1.868   1.975   4.556 -0.0173 -1.9017 -1.8134
   37DOPE  H13S 4710   2.008   2.078   4.607  0.9287  0.1955 -1.0373
   37DOPE  C214 4711   2.030   1.867   4.637  0.7975  0.3042  0.3243
   37DOPE  H14R 4712   2.141   1.869   4.636  0.7863  1.2644 -0.1662
   37DOPE  H14S 4713   2.012   1.766   4.593 -0.4693  0.0389  1.3767
   37DOPE  C215 4714   2.002   1.847   4.789  1.4304  0.8771 -0.2107
   37DOPE  H15R 4715   1.914   1.904   4.827 -1.0571 -2.0141 -1.2318
   37DOPE  H15S 4716   2.095   1.876   4.843  1.2677 -1.8060  1.7411
   37DOPE  C216 4717   1.986   1.704   4.830  0.2959  0.6185 -0.5368
   37DOPE  H16R 4718   2.078   1.645   4.814 -1.0674 -1.4286 -1.1943
   37DOPE  H16S 4719   1.904   1.659   4.771 -0.8801 -0.6163  1.8664
   37DOPE  C217 4720   1.943   1.699   4.976 -0.3899 -0.3492 -0.3557
   37DOPE  H17R 4721   1.850   1.754   5.002  0.6607  0.3830  2.1532
   37DOPE  H17S 4722   2.028   1.744   5.030 -0.9490  0.6594 -0.2815
   37DOPE  C218 4723   1.935   1.556   5.033 -0.1873 -0.4812 -0.4574
   37DOPE  H18R 4724   1.895   1.482   4.961 -1.1023  1.2306 -1.7816
   37DOPE  H18S 4725   1.891   1.553   5.135  1.1802  0.0019  0.1736
   37DOPE  H18T 4726   2.044   1.539   5.047  0.1807  2.9617  2.8067
   37DOPE   C33 4727   1.522   3.202   3.867 -0.2586  0.0666  0.1214
   37DOPE   H3X 4728   1.580   3.192   3.961  0.4855  1.0582 -0.2143
   37DOPE   H3Y 4729   1.424   3.239   3.903  0.8897  3.2455  0.2887
   37DOPE   C34 4730   1.562   3.313   3.765  0.2687  0.2839  0.1792
   37DOPE   H4X 4731   1.658   3.278   3.721 -0.8096 -0.9854 -1.3037
   37DOPE   H4Y 4732   1.484   3.305   3.686 -0.5488  0.5579  0.9357
   37DOPE   C35 4733   1.569   3.454   3.812 -0.2734 -0.4589  0.2192
   37DOPE   H5X 4734   1.473   3.504   3.838  0.3258  0.8054  0.1191
   37DOPE   H5Y 4735   1.599   3.523   3.730 -1.2426  1.3383  1.3085
   37DOPE   C36 4736   1.658   3.485   3.936 -0.3314  0.4474  0.0548
   37DOPE   H6X 4737   1.628   3.422   4.022  1.1345 -1.2726 -0.6252
   37DOPE   H6Y 4738   1.634   3.588   3.970 -1.4010  0.4158 -0.5797
   37DOPE   C37 4739   1.806   3.452   3.911  1.1013 -0.1155 -0.0329
   37DOPE   H7X 4740   1.794   3.346   3.880  1.0825  0.2716 -1.4300
   37DOPE   H7Y 4741   1.855   3.513   3.832  1.7962  1.0267  1.2229
   37DOPE   C38 4742   1.887   3.474   4.041 -0.0207  0.4114  0.4177
   37DOPE   H8X 4743   1.994   3.456   4.020  0.2518  1.3262  0.9831
   37DOPE   H8Y 4744   1.852   3.394   4.111  0.7019  0.1354  0.4736
   37DOPE   C39 4745   1.877   3.614   4.108  0.2155  1.0022  0.7316
   37DOPE   H9X 4746   1.775   3.643   4.138 -1.1868 -0.1108 -2.4536
   37DOPE  C310 4747   1.980   3.697   4.133  0.4653 -0.7028  1.0272
   37DOPE  H10X 4748   1.952   3.797   4.169 -0.3555  0.0101 -1.4321
   37DOPE  C311 4749   2.125   3.664   4.101 -0.7577  0.1878  0.3216
   37DOPE  H11X 4750   2.148   3.580   4.032  0.1275  0.5314  0.1966
   37DOPE  H11Y 4751   2.164   3.744   4.035 -1.0351  1.5171  1.7308
   37DOPE  C312 4752   2.207   3.644   4.233  0.0830 -0.0571 -0.1194
   37DOPE  H12X 4753   2.304   3.598   4.206  0.3198  1.9095 -3.0579
   37DOPE  H12Y 4754   2.156   3.577   4.305  0.2998 -3.7884 -3.1068
   37DOPE  C313 4755   2.251   3.769   4.302 -0.2634 -0.4265 -0.0627
   37DOPE  H13X 4756   2.327   3.828   4.246 -0.9846  1.6861  1.0613
   37DOPE  H13Y 4757   2.174   3.842   4.333 -1.1116 -0.7308 -1.3874
   37DOPE  C314 4758   2.324   3.737   4.433  0.4882 -0.2400  0.0609
   37DOPE  H14X 4759   2.391   3.655   4.401  2.1431  1.6821 -1.7428
   37DOPE  H14Y 4760   2.249   3.702   4.508  1.0700  0.4519  0.9961
   37DOPE  C315 4761   2.397   3.861   4.484  0.4595 -0.3604  0.0908
   37DOPE  H15X 4762   2.320   3.941   4.495 -1.1071 -1.6060 -1.2292
   37DOPE  H15Y 4763   2.464   3.902   4.405  0.8429 -0.5603  0.3090
   37DOPE  C316 4764   2.477   3.837   4.607 -0.0764 -0.4975 -0.1116
   37DOPE  H16X 4765   2.402   3.818   4.687 -0.2548  2.5576  0.5893
   37DOPE  H16Y 4766   2.525   3.936   4.624  1.5962 -0.7553 -2.8189
   37DOPE  C317 4767   2.593   3.730   4.590 -0.1456  0.4374  1.0528
   37DOPE  H17X 4768   2.590   3.669   4.683 -1.5573  0.8054  1.2725
   37DOPE  H17Y 4769   2.559   3.663   4.508  1.2990  0.0659  0.7273
   37DOPE  C318 4770   2.735   3.772   4.564 -0.4787 -1.0246 -0.2672
   37DOPE  H18X 4771   2.812   3.693   4.577  1.0907  0.3844 -0.7025
   37DOPE  H18Y 4772   2.752   3.809   4.461  0.8523 -1.9262 -0.3906
   37DOPE  H18Z 4773   2.773   3.855   4.628  0.9839 -0.8046 -1.3579
   38DOPE     N 4774   5.424   6.305   2.666  0.4667 -0.2546 -0.1244
   38DOPE   HN1 4775   5.362   6.240   2.614 -0.6243  1.4235 -1.0472
   38DOPE   HN2 4776   5.446   6.393   2.614 -1.1738 -0.0992 -0.6162
   38DOPE   HN3 4777   5.510   6.255   2.696 -0.0814 -0.2096  1.6452
   38DOPE   C12 4778   5.357   6.355   2.792 -0.0337 -0.0630 -0.2617
   38DOPE  H12A 4779   5.255   6.388   2.763 -1.1829 -1.5203  1.8255
   38DOPE  H12B 4780   5.416   6.442   2.828 -0.5783  0.6095 -0.9716
   38DOPE   C11 4781   5.344   6.239   2.898  0.7853  0.2888  0.4896
   38DOPE  H11A 4782   5.292   6.290   2.982  1.0631  0.2667  0.6760
   38DOPE  H11B 4783   5.450   6.211   2.916  1.1832 -0.1573 -2.2141
   38DOPE     P 4784   5.294   5.987   2.848  0.4331  0.0748  0.0658
   38DOPE   O13 4785   5.433   5.957   2.814 -0.3818  0.0619 -0.4182
   38DOPE   O14 4786   5.188   5.917   2.772 -0.1329  0.5341 -0.2218
   38DOPE   O11 4787   5.288   5.940   2.995 -0.2746 -0.2170 -0.1448
   38DOPE   O12 4788   5.263   6.141   2.837 -0.0320 -0.0849 -0.3719
   38DOPE    C1 4789   5.182   5.977   3.083  0.0516  0.4395  0.1292
   38DOPE    HA 4790   5.091   5.932   3.039  0.0645  1.9045 -1.4983
   38DOPE    HB 4791   5.165   6.087   3.088 -0.1798  0.3548  2.4172
   38DOPE    C2 4792   5.210   5.912   3.224  0.2266  0.2010  0.1679
   38DOPE    HS 4793   5.309   5.945   3.261  0.1115 -0.5536  1.1834
   38DOPE   O21 4794   5.216   5.769   3.196  0.8057 -0.0724 -0.3454
   38DOPE   C21 4795   5.299   5.706   3.275 -0.1266  0.0858 -0.4371
   38DOPE   O22 4796   5.375   5.755   3.356  0.3318 -0.1941  0.0611
   38DOPE   C22 4797   5.279   5.555   3.267  0.9600 -0.2714  0.0455
   38DOPE   H2R 4798   5.254   5.518   3.165 -0.8976 -0.6337  0.5990
   38DOPE   H2S 4799   5.194   5.515   3.327 -0.1905  1.1967 -0.5379
   38DOPE    C3 4800   5.106   5.943   3.325 -0.5464 -0.4365 -0.6469
   38DOPE    HX 4801   5.008   5.899   3.294 -1.6297  0.5465  1.1952
   38DOPE    HY 4802   5.081   6.050   3.339 -2.8225 -0.9871 -0.0211
   38DOPE   O31 4803   5.138   5.881   3.449 -0.1337  0.6190 -0.3475
   38DOPE   C31 4804   5.221   5.955   3.528  0.6129 -0.1293  0.7578
   38DOPE   O32 4805   5.254   6.069   3.507 -0.1031  0.2346 -0.2621
   38DOPE   C32 4806   5.261   5.869   3.646  0.9913  0.0926 -0.2725
   38DOPE   H2X 4807   5.260   5.762   3.613  0.7322 -0.9562  2.8243
   38DOPE   H2Y 4808   5.370   5.884   3.662  0.6776  2.8320 -0.3020
   38DOPE   C23 4809   5.404   5.475   3.312 -0.6678  0.1419  0.1806
   38DOPE   H3R 4810   5.489   5.504   3.246  0.8203 -1.5477  1.2322
   38DOPE   H3S 4811   5.396   5.368   3.283  1.6932  0.2630 -1.1713
   38DOPE   C24 4812   5.455   5.475   3.458  0.3014 -0.2053 -0.0459
   38DOPE   H4R 4813   5.484   5.577   3.493  2.0001 -0.7734  0.2968
   38DOPE   H4S 4814   5.553   5.423   3.463  0.9516  0.8882 -1.0630
   38DOPE   C25 4815   5.352   5.422   3.566  0.0959  0.0787 -0.4254
   38DOPE   H5R 4816   5.328   5.317   3.538  0.3440 -0.8138  2.3592
   38DOPE   H5S 4817   5.255   5.475   3.559 -1.2492 -2.3708 -1.2758
   38DOPE   C26 4818   5.407   5.423   3.710 -0.8826 -0.1963  0.6070
   38DOPE   H6R 4819   5.414   5.525   3.753 -0.5041 -0.9352  2.3686
   38DOPE   H6S 4820   5.513   5.392   3.700 -0.1815  2.2140 -0.0642
   38DOPE   C27 4821   5.336   5.333   3.815 -0.9826 -0.5144  0.1133
   38DOPE   H7R 4822   5.308   5.234   3.775 -1.1728 -0.2621 -0.3843
   38DOPE   H7S 4823   5.238   5.382   3.830  0.1027  1.9545 -0.2211
   38DOPE   C28 4824   5.417   5.308   3.950  0.3406 -0.2440  0.3068
   38DOPE   H8R 4825   5.514   5.266   3.916  0.7290 -0.0792  1.1871
   38DOPE   H8S 4826   5.363   5.229   4.006  2.5772 -1.5006  0.8019
   38DOPE   C29 4827   5.437   5.428   4.033  0.0461 -1.4494  0.3745
   38DOPE   H9R 4828   5.347   5.481   4.068  1.4503 -0.1689  2.2737
   38DOPE  C210 4829   5.549   5.494   4.058  0.4993 -0.4033 -0.5284
   38DOPE  H10R 4830   5.539   5.587   4.115 -0.2763 -2.0671  2.3020
   38DOPE  C211 4831   5.691   5.446   4.015  0.0010  0.1541  0.0892
   38DOPE  H11R 4832   5.676   5.383   3.924  0.2987 -0.2374  0.3074
   38DOPE  H11S 4833   5.743   5.380   4.088  1.5496  0.2861 -0.8530
   38DOPE  C212 4834   5.792   5.557   3.995 -0.5754 -0.0725  0.0615
   38DOPE  H12R 4835   5.882   5.513   3.948 -1.0031  0.3732 -1.2027
   38DOPE  H12S 4836   5.814   5.607   4.092 -0.5444  0.2246 -0.0965
   38DOPE  C213 4837   5.752   5.666   3.896  0.7344  0.3468  0.4794
   38DOPE  H13R 4838   5.823   5.749   3.919  2.5159 -0.8088 -0.5833
   38DOPE  H13S 4839   5.644   5.693   3.899  0.2641 -0.2345 -4.0333
   38DOPE  C214 4840   5.782   5.618   3.757  0.2390 -0.1687  0.1643
   38DOPE  H14R 4841   5.721   5.529   3.732 -1.2590  0.9975 -0.4520
   38DOPE  H14S 4842   5.891   5.595   3.750  0.1968 -0.0858 -0.9464
   38DOPE  C215 4843   5.729   5.723   3.662  0.6323 -0.1591  0.2254
   38DOPE  H15R 4844   5.622   5.731   3.689  0.7431  2.5322  0.1440
   38DOPE  H15S 4845   5.732   5.690   3.556 -0.5127  0.9269 -0.1610
   38DOPE  C216 4846   5.804   5.857   3.665  0.4745  0.7437 -0.5554
   38DOPE  H16R 4847   5.799   5.899   3.768 -1.6974 -0.4841 -0.0951
   38DOPE  H16S 4848   5.738   5.922   3.604  1.4857  0.7662 -1.6479
   38DOPE  C217 4849   5.946   5.845   3.606 -0.9112  0.1556  0.1596
   38DOPE  H17R 4850   5.937   5.827   3.497  2.9853  0.9455 -0.4680
   38DOPE  H17S 4851   6.003   5.762   3.652  0.0051  0.1636 -0.9173
   38DOPE  C218 4852   6.030   5.972   3.624 -0.2052  0.1661  0.3991
   38DOPE  H18R 4853   6.054   5.998   3.729  1.5030 -0.7550  0.2678
   38DOPE  H18S 4854   5.967   6.055   3.585 -0.1105 -0.4605 -1.1989
   38DOPE  H18T 4855   6.130   5.968   3.576  0.0255 -1.7942  0.9646
   38DOPE   C33 4856   5.172   5.901   3.772 -0.0772  0.4477  0.2359
   38DOPE   H3X 4857   5.067   5.877   3.745  0.1087  0.5241 -0.5979
   38DOPE   H3Y 4858   5.173   6.008   3.802 -1.0283  1.0044 -1.5787
   38DOPE   C34 4859   5.204   5.813   3.895  0.6992 -0.3078  0.0097
   38DOPE   H4X 4860   5.148   5.851   3.982  1.2000  2.6959 -0.8798
   38DOPE   H4Y 4861   5.174   5.708   3.872  1.3710 -0.6026  0.4409
   38DOPE   C35 4862   5.351   5.834   3.952  0.0203  0.3997 -0.0214
   38DOPE   H5X 4863   5.423   5.776   3.891 -0.9546 -0.0698 -0.7523
   38DOPE   H5Y 4864   5.357   5.808   4.059 -1.2738  0.4691  0.0844
   38DOPE   C36 4865   5.403   5.978   3.945 -0.2928 -0.4197 -0.2266
   38DOPE   H6X 4866   5.323   6.041   3.989 -0.7099 -0.8176 -0.4113
   38DOPE   H6Y 4867   5.411   6.004   3.837 -2.3665  1.2583 -0.0340
   38DOPE   C37 4868   5.546   5.987   3.996 -0.3254 -1.1375 -0.6456
   38DOPE   H7X 4869   5.560   5.927   4.089  1.0532 -2.4155 -1.6335
   38DOPE   H7Y 4870   5.607   5.936   3.920  0.4984  0.6067 -1.1989
   38DOPE   C38 4871   5.592   6.135   4.003  0.1619 -0.2946 -0.2501
   38DOPE   H8X 4872   5.520   6.200   4.057 -1.0575 -2.5792  1.0278
   38DOPE   H8Y 4873   5.568   6.166   3.899  2.8453  0.5150 -0.6825
   38DOPE   C39 4874   5.736   6.154   4.025 -0.3057  0.0716 -0.4808
   38DOPE   H9X 4875   5.788   6.058   4.037 -0.7029 -0.0555  0.3179
   38DOPE  C310 4876   5.802   6.266   4.047  0.3969  0.1339 -0.0954
   38DOPE  H10X 4877   5.908   6.258   4.075 -0.3032 -0.5179  2.7125
   38DOPE  C311 4878   5.740   6.408   4.048 -0.0992  0.1925 -0.4021
   38DOPE  H11X 4879   5.779   6.469   3.963  0.1316 -1.4978 -1.5714
   38DOPE  H11Y 4880   5.629   6.407   4.034 -0.3929 -1.9706  1.5392
   38DOPE  C312 4881   5.768   6.476   4.184 -0.1245  0.0079  0.1421
   38DOPE  H12X 4882   5.877   6.488   4.196 -0.1785 -0.2489  0.9460
   38DOPE  H12Y 4883   5.725   6.419   4.269  1.2123 -2.0670 -0.5100
   38DOPE  C313 4884   5.709   6.617   4.187  0.2490 -0.5798  0.3756
   38DOPE  H13X 4885   5.765   6.678   4.113  2.3104 -1.2512  1.2853
   38DOPE  H13Y 4886   5.606   6.600   4.149  0.0753  1.3002 -0.0565
   38DOPE  C314 4887   5.706   6.692   4.321 -0.4354 -0.9679 -0.0205
   38DOPE  H14X 4888   5.798   6.663   4.376 -0.1582  0.5853  0.3563
   38DOPE  H14Y 4889   5.626   6.648   4.384 -0.3044 -0.8564  0.2235
   38DOPE  C315 4890   5.677   6.844   4.298  0.0672 -0.3493  0.0334
   38DOPE  H15X 4891   5.583   6.841   4.239  0.8940 -0.6504 -1.3091
   38DOPE  H15Y 4892   5.754   6.902   4.243  2.0081 -1.8181  1.0744
   38DOPE  C316 4893   5.638   6.927   4.427 -0.2645  0.1795 -0.9090
   38DOPE  H16X 4894   5.727   6.941   4.492 -1.4560  0.3443  0.7877
   38DOPE  H16Y 4895   5.556   6.885   4.489 -0.1183  0.5548 -0.4541
   38DOPE  C317 4896   5.598   7.077   4.393  0.1391  0.0426 -0.3095
   38DOPE  H17X 4897   5.537   7.077   4.301 -2.2123  0.8053  1.1625
   38DOPE  H17Y 4898   5.532   7.104   4.478 -0.3506 -2.3733  0.1802
   38DOPE  C318 4899   5.715   7.170   4.382  0.6863  0.2348 -0.0285
   38DOPE  H18X 4900   5.673   7.271   4.362 -1.8086 -0.6830  0.2662
   38DOPE  H18Y 4901   5.764   7.176   4.482  3.1155 -1.4553 -1.0264
   38DOPE  H18Z 4902   5.793   7.147   4.306 -0.2614 -0.4484 -0.8148
   39DOPE     N 4903   0.844   1.829   2.881  0.1726  0.4633 -0.1378
   39DOPE   HN1 4904   0.895   1.879   2.805  0.4647 -0.9837 -0.9278
   39DOPE   HN2 4905   0.824   1.732   2.849  2.4876 -0.0065 -0.3685
   39DOPE   HN3 4906   0.757   1.885   2.893 -0.2198  0.2511 -1.8117
   39DOPE   C12 4907   0.905   1.823   3.019 -0.2883  0.8121  0.0262
   39DOPE  H12A 4908   0.965   1.911   3.051  1.5480 -0.2622 -0.3013
   39DOPE  H12B 4909   0.976   1.739   3.008 -1.9361 -0.7032  0.4787
   39DOPE   C11 4910   0.795   1.798   3.130  0.3826 -0.4098 -0.4550
   39DOPE  H11A 4911   0.844   1.803   3.230  0.9228 -1.8803 -0.6260
   39DOPE  H11B 4912   0.759   1.693   3.132  1.4440 -0.7809  0.5124
   39DOPE     P 4913   0.656   2.016   3.202  0.3178 -0.2307  0.2156
   39DOPE   O13 4914   0.568   1.983   3.317 -0.2225 -0.1193 -0.4031
   39DOPE   O14 4915   0.612   2.119   3.110  0.3503  0.1981  0.1572
   39DOPE   O11 4916   0.807   2.036   3.247 -0.0626  0.1568  0.0532
   39DOPE   O12 4917   0.680   1.891   3.111 -0.0035  0.6525  0.0289
   39DOPE    C1 4918   0.861   2.157   3.290  0.2130 -1.0145 -0.1975
   39DOPE    HA 4919   0.798   2.247   3.279  1.7091  0.3415  1.6899
   39DOPE    HB 4920   0.945   2.178   3.221  0.0590  0.0288 -0.0761
   39DOPE    C2 4921   0.904   2.153   3.441  0.0743  0.8946  0.0272
   39DOPE    HS 4922   0.991   2.083   3.441 -1.4704 -1.1340  0.8806
   39DOPE   O21 4923   0.794   2.103   3.527  0.0579  0.1186 -0.2411
   39DOPE   C21 4924   0.806   1.979   3.552  0.2055  0.2196  0.0708
   39DOPE   O22 4925   0.894   1.901   3.515 -0.2882 -0.0119 -0.1008
   39DOPE   C22 4926   0.695   1.922   3.640  0.0675 -0.8135  0.6632
   39DOPE   H2R 4927   0.690   1.811   3.643  0.6221 -0.8197  1.6400
   39DOPE   H2S 4928   0.603   1.961   3.591 -0.2629 -1.9409  0.3531
   39DOPE    C3 4929   0.958   2.282   3.484 -0.2512 -0.0452 -0.0849
   39DOPE    HX 4930   0.887   2.362   3.455 -1.9167 -1.0485  1.0510
   39DOPE    HY 4931   1.054   2.288   3.428  2.0089 -0.5101  3.4088
   39DOPE   O31 4932   0.982   2.294   3.626  0.2702 -0.5536 -0.1412
   39DOPE   C31 4933   1.104   2.263   3.674  0.2177 -0.2573  0.6549
   39DOPE   O32 4934   1.195   2.208   3.608 -0.1297  0.0128  0.2308
   39DOPE   C32 4935   1.115   2.287   3.821  0.5388 -0.4333 -0.2838
   39DOPE   H2X 4936   1.131   2.396   3.836 -0.6086 -0.5886  3.1393
   39DOPE   H2Y 4937   1.022   2.251   3.871 -0.1124  0.4827 -0.8099
   39DOPE   C23 4938   0.695   1.985   3.783 -0.1466 -0.0591 -1.4329
   39DOPE   H3R 4939   0.609   1.948   3.842  1.5934 -3.1346 -0.5720
   39DOPE   H3S 4940   0.683   2.094   3.764  3.3347  0.2355 -2.7672
   39DOPE   C24 4941   0.823   1.937   3.860 -0.3619  0.3229  0.2879
   39DOPE   H4R 4942   0.919   1.959   3.807  0.7978 -0.6087  1.8955
   39DOPE   H4S 4943   0.817   1.826   3.871 -0.1192  0.2188 -0.5727
   39DOPE   C25 4944   0.829   1.989   4.002 -0.0864  0.2922 -0.5932
   39DOPE   H5R 4945   0.824   2.100   3.991  1.0679  0.7074  2.2850
   39DOPE   H5S 4946   0.925   1.969   4.054 -0.2859 -0.6583 -0.5773
   39DOPE   C26 4947   0.725   1.944   4.093  0.6364 -0.4606 -0.4250
   39DOPE   H6R 4948   0.752   1.836   4.105  0.5750 -0.6252 -1.6643
   39DOPE   H6S 4949   0.623   1.948   4.048  0.5938  1.9958 -0.2320
   39DOPE   C27 4950   0.722   2.023   4.229  0.1285 -0.2432  0.3906
   39DOPE   H7R 4951   0.692   2.128   4.212 -1.5854 -0.7590 -0.0138
   39DOPE   H7S 4952   0.825   2.024   4.270  0.5965  0.8894 -0.7780
   39DOPE   C28 4953   0.620   1.953   4.325 -0.0035 -0.0012 -0.5350
   39DOPE   H8R 4954   0.627   1.842   4.317  1.5749 -0.0022  0.4689
   39DOPE   H8S 4955   0.521   1.984   4.286  0.1388  1.1934  0.0195
   39DOPE   C29 4956   0.618   1.997   4.469  0.5869 -0.9036  0.3500
   39DOPE   H9R 4957   0.616   2.107   4.477 -0.4034 -0.7997 -1.0672
   39DOPE  C210 4958   0.611   1.929   4.584 -0.4948 -0.4335 -0.1802
   39DOPE  H10R 4959   0.604   1.987   4.677 -1.0921 -2.4268  1.0777
   39DOPE  C211 4960   0.604   1.785   4.602  0.0940 -0.6382  0.3762
   39DOPE  H11R 4961   0.616   1.731   4.506 -1.6668  1.7408 -1.2709
   39DOPE  H11S 4962   0.500   1.757   4.629  0.3409  0.7660  3.2235
   39DOPE  C212 4963   0.689   1.725   4.716  0.5202  0.0749 -0.1172
   39DOPE  H12R 4964   0.796   1.738   4.688  0.6822  0.5408  0.6772
   39DOPE  H12S 4965   0.665   1.618   4.730  0.5928 -0.0121 -0.6290
   39DOPE  C213 4966   0.672   1.775   4.861  0.0273  0.3611 -0.4312
   39DOPE  H13R 4967   0.578   1.834   4.860 -0.4574 -0.3948 -1.7971
   39DOPE  H13S 4968   0.749   1.850   4.891  0.9623 -1.0608  0.8755
   39DOPE  C214 4969   0.636   1.668   4.963 -0.1689 -0.5210  0.4756
   39DOPE  H14R 4970   0.733   1.632   5.004 -1.5646 -1.8207  2.8332
   39DOPE  H14S 4971   0.582   1.582   4.921  1.3954 -0.6760 -1.3664
   39DOPE  C215 4972   0.570   1.720   5.093 -0.1081  0.0019  0.4311
   39DOPE  H15R 4973   0.488   1.790   5.068 -0.0560  1.0051  2.7533
   39DOPE  H15S 4974   0.648   1.768   5.156  0.5481 -0.1257 -0.2821
   39DOPE  C216 4975   0.513   1.603   5.171 -0.3689 -0.0670 -0.0671
   39DOPE  H16R 4976   0.591   1.532   5.205  0.0932 -0.0425 -1.0342
   39DOPE  H16S 4977   0.441   1.542   5.112 -1.3320 -0.6265  1.6279
   39DOPE  C217 4978   0.433   1.646   5.300 -0.4349  1.0885 -0.5153
   39DOPE  H17R 4979   0.361   1.720   5.259  0.6170  2.3676 -0.1170
   39DOPE  H17S 4980   0.508   1.691   5.368  1.3602 -2.5952  0.1558
   39DOPE  C218 4981   0.372   1.524   5.372  0.1876  0.2861 -0.3648
   39DOPE  H18R 4982   0.297   1.482   5.301  2.2799 -0.5392 -2.1933
   39DOPE  H18S 4983   0.327   1.550   5.471 -0.6655 -0.3728 -0.5677
   39DOPE  H18T 4984   0.452   1.449   5.390 -1.1647 -0.9502  0.8627
   39DOPE   C33 4985   1.229   2.215   3.896  0.1088 -0.5954  0.8864
   39DOPE   H3X 4986   1.326   2.204   3.844 -0.8151 -0.2770 -0.9622
   39DOPE   H3Y 4987   1.206   2.109   3.923 -0.6955 -0.7056 -0.1746
   39DOPE   C34 4988   1.271   2.294   4.020  0.6622 -0.0816 -0.1361
   39DOPE   H4X 4989   1.307   2.391   3.980 -0.3341  0.6405  0.6459
   39DOPE   H4Y 4990   1.183   2.302   4.088 -0.5914 -3.0092 -1.2404
   39DOPE   C35 4991   1.375   2.222   4.114  0.2836  0.5176  0.1908
   39DOPE   H5X 4992   1.480   2.215   4.078  0.5902  0.5071  1.0833
   39DOPE   H5Y 4993   1.340   2.119   4.133  0.6963  0.4729  0.7088
   39DOPE   C36 4994   1.381   2.296   4.254 -0.0565 -0.3213 -0.2532
   39DOPE   H6X 4995   1.282   2.306   4.303 -0.0991  1.0784 -0.5980
   39DOPE   H6Y 4996   1.428   2.395   4.240 -1.4445  0.5806  1.0579
   39DOPE   C37 4997   1.478   2.218   4.346  0.3277 -0.3245  0.3230
   39DOPE   H7X 4998   1.434   2.117   4.358  1.0483 -1.1223 -2.7155
   39DOPE   H7Y 4999   1.577   2.207   4.295 -0.3354 -2.0153 -0.6924
   39DOPE   C38 5000   1.499   2.287   4.475  0.0260 -0.2523 -0.2900
   39DOPE   H8X 5001   1.394   2.300   4.510 -0.6843  1.9602 -2.9619
   39DOPE   H8Y 5002   1.529   2.392   4.458 -0.8167 -0.2067 -1.6155
   39DOPE   C39 5003   1.597   2.230   4.582 -0.2277 -1.1389 -0.6874
   39DOPE   H9X 5004   1.702   2.220   4.549 -0.4678 -1.4038 -1.3959
   39DOPE  C310 5005   1.563   2.190   4.705 -0.4577 -0.3287 -0.0797
   39DOPE  H10X 5006   1.640   2.142   4.766  0.9717  1.2118 -0.6144
   39DOPE  C311 5007   1.428   2.188   4.768 -0.2299 -0.4302  0.1735
   39DOPE  H11X 5008   1.452   2.211   4.874  2.0271  0.2102 -0.4315
   39DOPE  H11Y 5009   1.372   2.277   4.733  2.0923  0.4812 -1.4402
   39DOPE  C312 5010   1.337   2.064   4.747 -0.2056 -0.2875  0.7639
   39DOPE  H12X 5011   1.256   2.097   4.817  0.7340 -2.0297  2.7874
   39DOPE  H12Y 5012   1.384   1.978   4.799 -1.2741  0.0514  2.3677
   39DOPE  C313 5013   1.295   2.047   4.601  0.1458  0.3840  0.5882
   39DOPE  H13X 5014   1.238   2.136   4.567  1.9680  0.7303 -1.8697
   39DOPE  H13Y 5015   1.391   2.041   4.546 -1.0945 -1.6721 -1.5923
   39DOPE  C314 5016   1.208   1.928   4.567 -0.1661  0.0432 -0.2189
   39DOPE  H14X 5017   1.124   1.925   4.639  0.1491 -0.6962  0.1254
   39DOPE  H14Y 5018   1.265   1.836   4.590 -0.6542  0.0754  1.1671
   39DOPE  C315 5019   1.187   1.912   4.412 -0.0327  0.6571  0.3018
   39DOPE  H15X 5020   1.282   1.895   4.357 -0.5331  1.5964 -0.8926
   39DOPE  H15Y 5021   1.143   2.006   4.372 -1.2684 -0.0177  0.0454
   39DOPE  C316 5022   1.107   1.783   4.385 -0.0149 -0.9182  0.2310
   39DOPE  H16X 5023   1.179   1.699   4.386  0.9483 -0.1087  0.6866
   39DOPE  H16Y 5024   1.077   1.794   4.278  3.3835  1.0835 -0.6729
   39DOPE  C317 5025   0.991   1.760   4.483  0.4429  0.0652 -0.4599
   39DOPE  H17X 5026   1.025   1.737   4.586  0.4826 -1.1474 -0.7266
   39DOPE  H17Y 5027   0.937   1.857   4.483  0.2162 -0.0365  1.2940
   39DOPE  C318 5028   0.904   1.641   4.430  1.1336 -0.2683  0.0096
   39DOPE  H18X 5029   0.868   1.652   4.326  0.7124  1.1014  0.2863
   39DOPE  H18Y 5030   0.951   1.540   4.428 -0.4336 -1.0546  1.2048
   39DOPE  H18Z 5031   0.815   1.612   4.490  1.0976  1.9373  1.1068
   40DOPE     N 5032   4.522   0.228   2.876  0.9271  0.0667 -0.3632
   40DOPE   HN1 5033   4.486   0.132   2.858 -0.1226  0.7244 -1.8917
   40DOPE   HN2 5034   4.450   0.296   2.846 -1.2812  0.4020  4.5782
   40DOPE   HN3 5035   4.605   0.252   2.819  0.1137 -0.5458 -1.8485
   40DOPE   C12 5036   4.529   0.238   3.027 -0.0745  0.0431  0.5013
   40DOPE  H12A 5037   4.540   0.347   3.046  0.1631  0.3952 -1.4279
   40DOPE  H12B 5038   4.620   0.176   3.045  0.6641  0.5910 -1.1136
   40DOPE   C11 5039   4.402   0.185   3.096 -0.0060 -0.2429  0.2590
   40DOPE  H11A 5040   4.416   0.191   3.206  2.7275 -1.2937  0.0585
   40DOPE  H11B 5041   4.386   0.078   3.073  1.0074 -0.5883  1.1128
   40DOPE     P 5042   4.177   0.231   2.958 -0.3546  0.3136 -0.2343
   40DOPE   O13 5043   4.232   0.131   2.868 -0.3334 -0.1958  0.5956
   40DOPE   O14 5044   4.115   0.352   2.900  0.2374 -0.1005  0.4677
   40DOPE   O11 5045   4.076   0.168   3.065 -0.4226 -0.4826  0.0517
   40DOPE   O12 5046   4.286   0.263   3.067 -0.3672 -0.2543  0.6717
   40DOPE    C1 5047   4.029   0.032   3.040 -0.4513  0.9679  0.4976
   40DOPE    HA 5048   4.069  -0.037   3.116  0.5810  1.3280  0.3036
   40DOPE    HB 5049   4.054  -0.012   2.941  0.7953 -2.7193  2.3038
   40DOPE    C2 5050   3.870   0.016   3.049  0.0514  0.1736  0.8756
   40DOPE    HS 5051   3.837   0.076   2.962  2.2834 -1.3159 -1.1294
   40DOPE   O21 5052   3.830   0.067   3.177  0.0561  0.1736  0.0258
   40DOPE   C21 5053   3.707   0.092   3.200 -0.3897 -0.1857  0.5924
   40DOPE   O22 5054   3.613   0.097   3.121 -0.6165 -0.3205  0.3900
   40DOPE   C22 5055   3.694   0.098   3.353 -0.3352 -0.4402  0.7187
   40DOPE   H2R 5056   3.745   0.195   3.374  0.2784 -0.6512  0.2220
   40DOPE   H2S 5057   3.749   0.007   3.384 -0.8425 -1.0164 -0.0425
   40DOPE    C3 5058   3.805  -0.121   3.013 -0.2911 -0.3200 -1.1489
   40DOPE    HX 5059   3.853  -0.149   2.917  1.4942 -1.9265  0.1463
   40DOPE    HY 5060   3.695  -0.117   2.998 -0.5987  0.6035  0.9992
   40DOPE   O31 5061   3.840  -0.222   3.112 -0.3822 -0.8578  0.1177
   40DOPE   C31 5062   3.747  -0.285   3.185 -0.0528  0.7736 -0.4817
   40DOPE   O32 5063   3.628  -0.278   3.170  0.0573  0.6379  0.5296
   40DOPE   C32 5064   3.820  -0.350   3.291 -0.3455  0.2284 -0.4603
   40DOPE   H2X 5065   3.833  -0.457   3.264  0.7885  0.5175 -1.1197
   40DOPE   H2Y 5066   3.922  -0.305   3.295 -0.3990  0.3426 -0.3698
   40DOPE   C23 5067   3.547   0.111   3.399  0.2770  0.2950  0.6847
   40DOPE   H3R 5068   3.490   0.028   3.352  1.3286  1.2622 -2.5547
   40DOPE   H3S 5069   3.508   0.205   3.355 -1.8624 -0.4651  0.8585
   40DOPE   C24 5070   3.520   0.100   3.547  0.5484 -0.5025  0.0512
   40DOPE   H4R 5071   3.424   0.149   3.572  0.8096  0.0360  0.0289
   40DOPE   H4S 5072   3.588   0.176   3.592 -0.7220  1.5635 -1.3477
   40DOPE   C25 5073   3.526  -0.037   3.609 -0.3573  0.2698 -0.1936
   40DOPE   H5R 5074   3.620  -0.086   3.576  1.6938  1.5266  3.2262
   40DOPE   H5S 5075   3.439  -0.090   3.565 -1.1808  0.5799  1.0052
   40DOPE   C26 5076   3.523  -0.040   3.757  0.0614  0.8621  0.1153
   40DOPE   H6R 5077   3.512  -0.146   3.791  0.7272  0.4905 -0.8205
   40DOPE   H6S 5078   3.441   0.027   3.792  2.0702  1.8120  3.5421
   40DOPE   C27 5079   3.657   0.007   3.822  0.7001 -0.2748  0.5325
   40DOPE   H7R 5080   3.662   0.118   3.823 -0.1322 -0.2316  1.3486
   40DOPE   H7S 5081   3.736  -0.039   3.759 -1.3005 -0.7828 -1.7285
   40DOPE   C28 5082   3.683  -0.046   3.962 -0.0771  0.4575  0.1022
   40DOPE   H8R 5083   3.778   0.003   3.992  1.5658 -0.1383 -3.5583
   40DOPE   H8S 5084   3.696  -0.156   3.964 -0.0258  0.4656  0.2460
   40DOPE   C29 5085   3.573   0.001   4.056  0.8199 -0.3172  0.1618
   40DOPE   H9R 5086   3.506   0.077   4.013  2.9760  2.1163  0.8995
   40DOPE  C210 5087   3.558  -0.062   4.178  0.2935 -0.5806  0.7996
   40DOPE  H10R 5088   3.484  -0.028   4.252 -1.2542 -1.0837 -0.4586
   40DOPE  C211 5089   3.645  -0.174   4.227  0.3731 -0.2776  0.0332
   40DOPE  H11R 5090   3.752  -0.169   4.199  0.7924  1.2683  1.7212
   40DOPE  H11S 5091   3.602  -0.270   4.190  1.4300 -0.9512  0.5024
   40DOPE  C212 5092   3.653  -0.199   4.380 -0.7582 -0.0677 -0.1557
   40DOPE  H12R 5093   3.572  -0.268   4.413 -0.2005 -1.2992 -1.2627
   40DOPE  H12S 5094   3.627  -0.110   4.441  0.6909 -1.9740  3.5476
   40DOPE  C213 5095   3.791  -0.247   4.410 -0.1222 -0.3824 -0.9513
   40DOPE  H13R 5096   3.867  -0.169   4.388 -0.2576  0.5744  1.5926
   40DOPE  H13S 5097   3.809  -0.348   4.369  1.6250 -1.7511  2.6927
   40DOPE  C214 5098   3.805  -0.282   4.556  0.3689  0.4723 -0.5535
   40DOPE  H14R 5099   3.712  -0.326   4.598  1.2558  0.5751  1.6274
   40DOPE  H14S 5100   3.817  -0.187   4.611  0.6867  0.8032 -1.1783
   40DOPE  C215 5101   3.928  -0.374   4.591 -0.3112  0.0195 -0.2823
   40DOPE  H15R 5102   3.895  -0.480   4.583  0.4120 -0.1344 -1.4102
   40DOPE  H15S 5103   3.951  -0.364   4.699  1.7633  0.8603 -0.7553
   40DOPE  C216 5104   4.054  -0.351   4.517  0.0203 -0.2052  0.0414
   40DOPE  H16R 5105   4.090  -0.247   4.533 -1.8166  0.4141  0.4176
   40DOPE  H16S 5106   4.031  -0.357   4.408  1.7326  1.0344 -0.4361
   40DOPE  C217 5107   4.182  -0.437   4.548  0.1136  0.5845 -0.0694
   40DOPE  H17R 5108   4.162  -0.535   4.499 -2.0377  2.0183 -2.3078
   40DOPE  H17S 5109   4.194  -0.444   4.658  0.7812  2.1412 -0.0274
   40DOPE  C218 5110   4.310  -0.373   4.496  0.1857  0.1712  0.7394
   40DOPE  H18R 5111   4.312  -0.273   4.545  0.0604  0.9897 -0.8718
   40DOPE  H18S 5112   4.310  -0.368   4.385 -0.9272 -2.1645  0.5831
   40DOPE  H18T 5113   4.395  -0.438   4.525 -2.5207 -2.4549  3.5375
   40DOPE   C33 5114   3.751  -0.341   3.432 -0.2608 -0.2513  0.1644
   40DOPE   H3X 5115   3.642  -0.363   3.435 -0.6941  1.8584  1.3978
   40DOPE   H3Y 5116   3.761  -0.240   3.478  2.0681 -0.6289  0.6050
   40DOPE   C34 5117   3.825  -0.424   3.532 -0.1973  0.9389  0.1616
   40DOPE   H4X 5118   3.809  -0.531   3.508  1.8197  0.6438  0.0147
   40DOPE   H4Y 5119   3.934  -0.409   3.519 -0.1603  0.1002 -0.5701
   40DOPE   C35 5120   3.774  -0.399   3.681 -1.0460  0.0647  0.0894
   40DOPE   H5X 5121   3.664  -0.405   3.692 -0.9991 -0.3208  0.3755
   40DOPE   H5Y 5122   3.811  -0.297   3.708  0.7118 -0.5567  0.1832
   40DOPE   C36 5123   3.828  -0.502   3.777  0.7977  1.1228 -0.3076
   40DOPE   H6X 5124   3.937  -0.510   3.761  0.7610 -1.2591  0.2804
   40DOPE   H6Y 5125   3.777  -0.594   3.741  2.0825  0.3797 -0.2735
   40DOPE   C37 5126   3.793  -0.473   3.926 -0.7285  0.4708  0.1267
   40DOPE   H7X 5127   3.810  -0.365   3.946 -1.8540  0.9390 -1.2442
   40DOPE   H7Y 5128   3.683  -0.490   3.928 -0.7476  0.5188 -0.3124
   40DOPE   C38 5129   3.870  -0.570   4.024 -0.1542  0.4429  0.1897
   40DOPE   H8X 5130   3.976  -0.542   4.006  0.2245 -1.0125  0.0458
   40DOPE   H8Y 5131   3.846  -0.672   3.986 -1.0808 -0.4422  2.9635
   40DOPE   C39 5132   3.830  -0.549   4.166 -0.1615  0.4878 -0.8693
   40DOPE   H9X 5133   3.821  -0.442   4.191 -0.1496  0.8078 -2.1476
   40DOPE  C310 5134   3.827  -0.639   4.267 -0.1543  0.5224  0.8042
   40DOPE  H10X 5135   3.817  -0.606   4.372 -3.3745  1.4565  0.3140
   40DOPE  C311 5136   3.862  -0.787   4.264 -1.0487  0.3890  0.0286
   40DOPE  H11X 5137   3.791  -0.860   4.308  1.3778 -1.4948  1.0506
   40DOPE  H11Y 5138   3.878  -0.817   4.158  0.7742 -1.5875  0.7929
   40DOPE  C312 5139   4.008  -0.799   4.320 -0.4319 -0.2259  0.4215
   40DOPE  H12X 5140   4.084  -0.727   4.283 -0.0284 -0.7514  0.2184
   40DOPE  H12Y 5141   4.050  -0.896   4.289  1.6559  0.8464 -0.2961
   40DOPE  C313 5142   4.006  -0.826   4.476 -0.6938 -0.0858 -0.0787
   40DOPE  H13X 5143   3.986  -0.728   4.524 -1.1610 -0.1480 -0.1469
   40DOPE  H13Y 5144   3.935  -0.906   4.502 -0.7145 -0.1466 -0.3230
   40DOPE  C314 5145   4.142  -0.880   4.528 -0.3776 -0.3491  0.0224
   40DOPE  H14X 5146   4.202  -0.787   4.537 -0.4619  0.0592 -2.7360
   40DOPE  H14Y 5147   4.195  -0.947   4.457  0.5139  0.4844 -0.1197
   40DOPE  C315 5148   4.151  -0.953   4.662 -0.0450  0.4016 -0.6342
   40DOPE  H15X 5149   4.255  -0.969   4.697 -1.4101 -3.0999  2.4331
   40DOPE  H15Y 5150   4.104  -1.053   4.646  1.8376 -0.6009 -0.1010
   40DOPE  C316 5151   4.076  -0.886   4.772 -0.1790  0.5298 -0.3940
   40DOPE  H16X 5152   3.975  -0.858   4.735  0.0856  1.3654 -0.5021
   40DOPE  H16Y 5153   4.130  -0.794   4.804  1.6874  0.1131 -2.1288
   40DOPE  C317 5154   4.077  -0.979   4.895 -0.0879  0.0638 -0.5515
   40DOPE  H17X 5155   4.048  -1.082   4.862  2.5714 -1.4789  1.5148
   40DOPE  H17Y 5156   4.182  -0.987   4.929 -0.9859  1.1225  2.9737
   40DOPE  C318 5157   3.986  -0.931   5.011  0.6890 -0.0999 -0.4807
   40DOPE  H18X 5158   4.027  -0.833   5.045 -0.7726  1.0958 -2.0284
   40DOPE  H18Y 5159   3.879  -0.919   4.986  0.5339 -2.0955 -0.9222
   40DOPE  H18Z 5160   3.990  -1.008   5.091  1.8857  0.1598 -0.2648
   41DOPE     N 5161   3.002   5.189   3.252  0.4717 -0.1273  0.5323
   41DOPE   HN1 5162   3.093   5.155   3.290  1.7332  1.2613 -1.0674
   41DOPE   HN2 5163   3.033   5.210   3.155  1.5466 -2.1475  0.3856
   41DOPE   HN3 5164   2.975   5.274   3.306  0.7788  0.0655  0.3849
   41DOPE   C12 5165   2.896   5.091   3.252  0.4116  0.4106  0.3269
   41DOPE  H12A 5166   2.890   5.041   3.351 -0.4943  0.4022  0.2790
   41DOPE  H12B 5167   2.926   5.023   3.169  3.2603  1.7896  0.0948
   41DOPE   C11 5168   2.759   5.156   3.222  0.9053  0.1751  0.1217
   41DOPE  H11A 5169   2.702   5.186   3.313 -1.2686  0.9288 -1.4090
   41DOPE  H11B 5170   2.703   5.074   3.173 -1.1870  0.4343  1.9414
   41DOPE     P 5171   2.629   5.323   3.059  0.6051 -0.4962 -0.3213
   41DOPE   O13 5172   2.634   5.291   2.917 -0.0949  0.0101 -0.3958
   41DOPE   O14 5173   2.591   5.465   3.079  0.0534 -0.4476 -0.2164
   41DOPE   O11 5174   2.525   5.225   3.128  0.1930  0.1232 -0.2471
   41DOPE   O12 5175   2.762   5.278   3.138  0.6216  0.1353  0.6351
   41DOPE    C1 5176   2.392   5.273   3.152 -0.2962 -0.2773 -0.7347
   41DOPE    HA 5177   2.314   5.201   3.119 -0.9272  0.6132 -1.2397
   41DOPE    HB 5178   2.373   5.359   3.085  1.2804 -0.3320 -1.2866
   41DOPE    C2 5179   2.375   5.305   3.305  0.6301 -0.1557  0.6072
   41DOPE    HS 5180   2.274   5.352   3.302 -0.3882 -1.9024  3.4725
   41DOPE   O21 5181   2.486   5.382   3.354  0.2635  0.0059 -0.4959
   41DOPE   C21 5182   2.473   5.507   3.331  0.9709 -0.6340 -0.3742
   41DOPE   O22 5183   2.367   5.558   3.286 -0.3562 -0.3359 -1.1530
   41DOPE   C22 5184   2.597   5.587   3.356 -0.3012 -0.1781  0.0878
   41DOPE   H2R 5185   2.579   5.694   3.331  1.5299 -0.4823 -3.0397
   41DOPE   H2S 5186   2.681   5.557   3.290 -0.7853  0.0740 -0.6550
   41DOPE    C3 5187   2.381   5.181   3.386  0.2395  0.8151  0.2329
   41DOPE    HX 5188   2.391   5.194   3.496 -0.7035 -1.7433  0.6780
   41DOPE    HY 5189   2.474   5.122   3.374 -1.5963 -2.1793 -0.3985
   41DOPE   O31 5190   2.266   5.104   3.364  0.1981 -0.0445  0.2469
   41DOPE   C31 5191   2.269   4.975   3.355  0.2053 -0.0669  0.1476
   41DOPE   O32 5192   2.371   4.915   3.331 -0.3048  0.3072 -0.8127
   41DOPE   C32 5193   2.136   4.903   3.366 -0.6164 -0.4632  0.2035
   41DOPE   H2X 5194   2.058   4.978   3.389 -0.1116 -0.2301  1.2296
   41DOPE   H2Y 5195   2.115   4.855   3.268  0.2942 -1.7738  0.6136
   41DOPE   C23 5196   2.632   5.576   3.504  0.5044  0.2530 -0.2288
   41DOPE   H3R 5197   2.661   5.471   3.525 -1.2942 -0.0382  1.0768
   41DOPE   H3S 5198   2.544   5.580   3.572  1.6004  0.6949  1.2325
   41DOPE   C24 5199   2.751   5.672   3.557  0.3115 -0.6986  0.1429
   41DOPE   H4R 5200   2.712   5.770   3.590 -2.2295 -1.0421 -1.5885
   41DOPE   H4S 5201   2.806   5.704   3.466 -0.9992  1.8824  0.1673
   41DOPE   C25 5202   2.846   5.608   3.666  0.0422  0.1626 -0.3567
   41DOPE   H5R 5203   2.855   5.500   3.640 -0.6832  0.2072 -0.8221
   41DOPE   H5S 5204   2.794   5.620   3.763 -1.0310 -1.1234 -0.7500
   41DOPE   C26 5205   2.978   5.677   3.668 -0.0274  0.7617 -0.2031
   41DOPE   H6R 5206   3.021   5.647   3.570 -0.3612 -0.7321  0.0751
   41DOPE   H6S 5207   3.045   5.628   3.741  0.6058  0.6771 -0.8232
   41DOPE   C27 5208   2.975   5.837   3.683 -0.0960 -0.3221 -0.1274
   41DOPE   H7R 5209   2.928   5.884   3.595 -1.4840 -0.4441  0.5294
   41DOPE   H7S 5210   3.079   5.877   3.680  0.7479 -2.3783 -0.1437
   41DOPE   C28 5211   2.897   5.881   3.811 -0.5788  0.3567  0.1873
   41DOPE   H8R 5212   2.926   5.825   3.902  0.3017  0.4904 -0.0060
   41DOPE   H8S 5213   2.791   5.854   3.793  0.0890 -2.8859  0.4766
   41DOPE   C29 5214   2.895   6.031   3.831  0.3013 -0.2749 -0.3543
   41DOPE   H9R 5215   2.805   6.087   3.803  0.3442 -1.0423 -2.2289
   41DOPE  C210 5216   2.999   6.098   3.885  0.3776  0.1747 -0.1420
   41DOPE  H10R 5217   2.992   6.208   3.887 -0.1416  0.1807 -1.5275
   41DOPE  C211 5218   3.133   6.037   3.932  0.1395  0.1227 -0.4651
   41DOPE  H11R 5219   3.213   6.108   3.903  1.2855 -1.4796 -1.4078
   41DOPE  H11S 5220   3.149   5.939   3.882 -2.9095 -0.1671 -1.0703
   41DOPE  C212 5221   3.142   6.045   4.084  0.0742  0.0204 -1.2392
   41DOPE  H12R 5222   3.128   6.148   4.123 -0.8433 -1.2767  2.2741
   41DOPE  H12S 5223   3.244   6.005   4.102 -1.1179 -2.5089  0.5037
   41DOPE  C213 5224   3.038   5.951   4.150 -0.1255  0.5538 -0.0922
   41DOPE  H13R 5225   3.059   5.845   4.121  0.8689  0.8722 -0.5913
   41DOPE  H13S 5226   2.937   5.985   4.120  0.1069  0.7949 -0.6095
   41DOPE  C214 5227   3.029   5.957   4.304 -0.0736 -0.9020  0.4786
   41DOPE  H14R 5228   2.940   5.907   4.349 -1.3150  1.1923  0.4652
   41DOPE  H14S 5229   3.014   6.063   4.333 -0.2406 -0.6181 -0.6098
   41DOPE  C215 5230   3.154   5.909   4.376  0.0914 -0.5177  0.7749
   41DOPE  H15R 5231   3.234   5.945   4.307 -2.1995  0.7082 -1.4388
   41DOPE  H15S 5232   3.166   5.802   4.403 -1.5055 -0.6460  1.0489
   41DOPE  C216 5233   3.177   5.977   4.510  0.4444 -0.1332  0.1044
   41DOPE  H16R 5234   3.166   6.079   4.467 -0.9045 -0.7906 -1.2121
   41DOPE  H16S 5235   3.276   5.959   4.556 -0.2671  1.1100  2.2733
   41DOPE  C217 5236   3.063   5.958   4.611 -0.3894 -0.3637  0.1375
   41DOPE  H17R 5237   2.967   5.971   4.556  0.3178  1.7731 -0.7295
   41DOPE  H17S 5238   3.060   6.041   4.685  0.7966 -0.0321 -0.1633
   41DOPE  C218 5239   3.062   5.828   4.689  0.0740  0.2561  0.1733
   41DOPE  H18R 5240   3.042   5.739   4.625 -2.8606  0.8301  0.1219
   41DOPE  H18S 5241   2.972   5.833   4.755  0.6561 -1.1283  1.1313
   41DOPE  H18T 5242   3.150   5.812   4.754  0.5782  1.0755 -0.2955
   41DOPE   C33 5243   2.136   4.786   3.468  0.4449  0.7863 -0.3224
   41DOPE   H3X 5244   2.202   4.701   3.440  1.5152  0.9978  1.3745
   41DOPE   H3Y 5245   2.040   4.731   3.475  1.2790 -0.6494  0.3363
   41DOPE   C34 5246   2.168   4.843   3.608 -0.0491 -0.2658 -0.4983
   41DOPE   H4X 5247   2.277   4.859   3.619  0.0743 -1.8047  0.8971
   41DOPE   H4Y 5248   2.111   4.938   3.615 -0.6611 -0.7196  1.7194
   41DOPE   C35 5249   2.133   4.738   3.710  0.2117 -0.5611  0.2126
   41DOPE   H5X 5250   2.199   4.648   3.706 -0.1138 -0.9008  1.7324
   41DOPE   H5Y 5251   2.032   4.698   3.686  0.2656 -1.4716  1.4008
   41DOPE   C36 5252   2.142   4.787   3.852 -0.0040  0.0325 -0.3969
   41DOPE   H6X 5253   2.249   4.816   3.862  0.1481 -0.9104  0.9057
   41DOPE   H6Y 5254   2.139   4.709   3.931  3.7455 -0.6827 -0.8079
   41DOPE   C37 5255   2.040   4.895   3.890 -0.1841  0.5669 -0.4894
   41DOPE   H7X 5256   2.046   4.990   3.831 -1.5303  1.6806  1.0530
   41DOPE   H7Y 5257   1.941   4.850   3.866  0.5463  0.3888 -3.6468
   41DOPE   C38 5258   2.051   4.931   4.039  0.4405  0.7986  0.2983
   41DOPE   H8X 5259   2.047   4.836   4.097  3.6176  1.3614  1.6503
   41DOPE   H8Y 5260   1.964   4.999   4.056  0.5712  1.3091 -0.9619
   41DOPE   C39 5261   2.184   4.999   4.066 -0.6451  0.0406 -0.0231
   41DOPE   H9X 5262   2.270   4.936   4.039 -1.7369 -0.9486 -1.2919
   41DOPE  C310 5263   2.199   5.117   4.128 -0.2370 -0.2723 -0.2987
   41DOPE  H10X 5264   2.297   5.166   4.144  0.2712 -0.6295 -2.1260
   41DOPE  C311 5265   2.084   5.204   4.177  0.3155 -0.5636 -0.4705
   41DOPE  H11X 5266   2.014   5.199   4.091  2.1869 -2.4167 -2.0130
   41DOPE  H11Y 5267   2.037   5.151   4.262 -1.2560  1.2318 -0.1323
   41DOPE  C312 5268   2.109   5.350   4.226  0.9072  1.5364  0.2474
   41DOPE  H12X 5269   2.013   5.404   4.242  1.5050  2.5392  0.4926
   41DOPE  H12Y 5270   2.161   5.398   4.141  0.1824  2.6278  0.4078
   41DOPE  C313 5271   2.193   5.360   4.353 -0.4122  0.3542  0.0623
   41DOPE  H13X 5272   2.146   5.322   4.446 -0.9681 -0.6411 -0.5998
   41DOPE  H13Y 5273   2.284   5.296   4.344 -1.3203 -0.8006 -1.3674
   41DOPE  C314 5274   2.244   5.504   4.364 -0.0273  0.4162  0.4701
   41DOPE  H14X 5275   2.152   5.562   4.387  0.5372  1.0543  1.1786
   41DOPE  H14Y 5276   2.298   5.529   4.271  0.3429  1.8342  1.0407
   41DOPE  C315 5277   2.339   5.513   4.492 -0.2350  0.1851  0.7176
   41DOPE  H15X 5278   2.418   5.591   4.485  1.3148 -1.2751  1.1784
   41DOPE  H15Y 5279   2.412   5.430   4.494  0.0658  0.4399  2.4341
   41DOPE  C316 5280   2.252   5.508   4.625 -0.1217  0.4742  0.0014
   41DOPE  H16X 5281   2.214   5.405   4.641 -0.1642  0.8225  2.5453
   41DOPE  H16Y 5282   2.165   5.572   4.601 -0.5363  0.4255  1.3117
   41DOPE  C317 5283   2.339   5.557   4.744 -0.3633 -0.5115  0.2005
   41DOPE  H17X 5284   2.274   5.553   4.834  3.1599  0.5818  3.0414
   41DOPE  H17Y 5285   2.428   5.491   4.748  0.8524  1.1196  2.2136
   41DOPE  C318 5286   2.392   5.704   4.738 -0.0313  0.2189 -0.1508
   41DOPE  H18X 5287   2.445   5.727   4.832 -0.3314 -1.4301  0.4563
   41DOPE  H18Y 5288   2.459   5.717   4.650  0.7006 -1.3130  0.1486
   41DOPE  H18Z 5289   2.307   5.776   4.738  1.0221  1.4938  0.0412
   42DOPE     N 5290   1.223   3.717   2.686  0.2241 -0.1359 -0.4150
   42DOPE   HN1 5291   1.239   3.623   2.646  1.1350 -0.4695  0.6529
   42DOPE   HN2 5292   1.204   3.793   2.618 -0.3679 -0.0812 -0.1931
   42DOPE   HN3 5293   1.311   3.745   2.734  0.0054  2.2786 -1.2949
   42DOPE   C12 5294   1.108   3.689   2.782  0.0368 -0.2742 -0.3048
   42DOPE  H12A 5295   1.134   3.606   2.852 -2.6038 -0.9723 -0.0424
   42DOPE  H12B 5296   1.024   3.652   2.719  0.4656  0.5337 -1.3721
   42DOPE   C11 5297   1.077   3.812   2.866  0.1759 -0.5495  0.3701
   42DOPE  H11A 5298   0.989   3.789   2.931  0.1162 -1.9311 -0.1618
   42DOPE  H11B 5299   1.046   3.900   2.806 -1.0106 -1.8875 -1.0686
   42DOPE     P 5300   1.230   3.765   3.088 -0.0104  0.1241  0.0333
   42DOPE   O13 5301   1.367   3.716   3.065 -0.1600 -0.2223 -0.1075
   42DOPE   O14 5302   1.136   3.660   3.130 -0.2277 -0.3049  0.0512
   42DOPE   O11 5303   1.231   3.881   3.190  0.6813 -0.2541  0.5611
   42DOPE   O12 5304   1.183   3.842   2.951 -0.7068 -0.1781  0.2555
   42DOPE    C1 5305   1.117   3.970   3.195 -0.1159  0.1887  0.2816
   42DOPE    HA 5306   1.022   3.914   3.203  1.9569 -3.4804  1.6711
   42DOPE    HB 5307   1.111   4.025   3.098  1.6419  2.1292  1.1873
   42DOPE    C2 5308   1.127   4.066   3.320  0.0839 -0.3399 -0.8368
   42DOPE    HS 5309   1.232   4.102   3.327  0.3794 -1.4232  1.6269
   42DOPE   O21 5310   1.109   3.992   3.445 -0.3656  0.1008 -0.2660
   42DOPE   C21 5311   0.996   3.937   3.469  1.0289  0.1550  0.2766
   42DOPE   O22 5312   0.897   3.927   3.396 -0.5855  0.3772  0.4365
   42DOPE   C22 5313   0.998   3.907   3.619 -0.0477  0.7384  0.0641
   42DOPE   H2R 5314   0.978   4.004   3.669  0.9771  1.5722 -1.0693
   42DOPE   H2S 5315   1.097   3.865   3.647 -0.1341  0.8005  0.4648
   42DOPE    C3 5316   1.029   4.184   3.292  0.7058 -0.1500  0.9748
   42DOPE    HX 5317   0.925   4.144   3.291  0.8945 -0.8683 -2.8698
   42DOPE    HY 5318   1.040   4.220   3.188  1.3796 -0.0565  1.0741
   42DOPE   O31 5319   1.050   4.291   3.387  0.8433 -0.0165 -0.9059
   42DOPE   C31 5320   1.152   4.370   3.365 -0.3432  0.1785  0.4587
   42DOPE   O32 5321   1.229   4.362   3.273 -0.4300  0.6888 -0.1871
   42DOPE   C32 5322   1.176   4.455   3.503  0.5363  0.2384  0.1680
   42DOPE   H2X 5323   1.132   4.554   3.481 -3.5811 -0.7330  2.7932
   42DOPE   H2Y 5324   1.107   4.416   3.581 -0.1686 -1.1173 -1.0921
   42DOPE   C23 5325   0.911   3.795   3.660  0.9840  0.3832 -0.2642
   42DOPE   H3R 5326   0.917   3.712   3.586 -3.5074  1.3237 -1.9980
   42DOPE   H3S 5327   0.804   3.824   3.654  1.2582  1.4284 -0.1953
   42DOPE   C24 5328   0.949   3.726   3.789 -0.9220  0.3222 -1.1747
   42DOPE   H4R 5329   1.060   3.724   3.786 -0.7767  0.0633  1.8419
   42DOPE   H4S 5330   0.914   3.620   3.793  0.2433 -0.0413  0.0582
   42DOPE   C25 5331   0.919   3.815   3.911  0.2506  0.1255 -0.4126
   42DOPE   H5R 5332   0.810   3.803   3.929 -0.0283  0.2068 -1.9252
   42DOPE   H5S 5333   0.940   3.922   3.886  2.7278  0.1436  1.4373
   42DOPE   C26 5334   0.990   3.780   4.034 -1.0343  0.0378 -1.1441
   42DOPE   H6R 5335   1.094   3.804   4.003 -0.3757 -1.7702 -0.5158
   42DOPE   H6S 5336   0.983   3.673   4.066  4.9977  0.4042  3.0679
   42DOPE   C27 5337   0.940   3.860   4.153  0.1065  0.3752 -0.2314
   42DOPE   H7R 5338   0.830   3.872   4.164  0.2834  3.6796 -0.8867
   42DOPE   H7S 5339   0.982   3.963   4.142  2.9677 -0.8376 -1.7197
   42DOPE   C28 5340   0.993   3.825   4.297  0.6388  1.0667  0.0594
   42DOPE   H8R 5341   0.976   3.901   4.377 -0.2189 -0.1030  1.0383
   42DOPE   H8S 5342   1.103   3.810   4.296  0.4372 -0.5903 -0.5393
   42DOPE   C29 5343   0.929   3.695   4.348  0.1326  0.3308 -0.5690
   42DOPE   H9R 5344   0.840   3.656   4.296 -0.7998 -0.6994  1.6896
   42DOPE  C210 5345   0.978   3.635   4.461  0.2408  0.8334  0.1540
   42DOPE  H10R 5346   0.924   3.542   4.484 -2.8696  2.2142 -0.9951
   42DOPE  C211 5347   1.093   3.682   4.548 -0.4750 -0.0700 -0.0190
   42DOPE  H11R 5348   1.054   3.745   4.630  4.4806  1.9216  1.2080
   42DOPE  H11S 5349   1.158   3.748   4.486  0.1411  0.3518  1.0522
   42DOPE  C212 5350   1.169   3.559   4.594  0.4434  0.2580  0.4232
   42DOPE  H12R 5351   1.221   3.500   4.515 -0.2055  0.1007  0.1091
   42DOPE  H12S 5352   1.097   3.491   4.645  0.1116  0.2630 -0.0304
   42DOPE  C213 5353   1.279   3.590   4.695 -0.9186 -0.4037  0.6240
   42DOPE  H13R 5354   1.233   3.664   4.764 -1.0852  3.1346 -2.9162
   42DOPE  H13S 5355   1.360   3.643   4.641 -0.8152 -0.0158  1.1488
   42DOPE  C214 5356   1.329   3.461   4.765 -0.6242  0.4142  0.0142
   42DOPE  H14R 5357   1.342   3.380   4.690  0.2150  0.6651 -0.1256
   42DOPE  H14S 5358   1.244   3.413   4.819  0.5851 -0.4871  1.1808
   42DOPE  C215 5359   1.455   3.490   4.844 -0.5201 -0.0423 -0.0559
   42DOPE  H15R 5360   1.496   3.586   4.806 -0.5798  0.7803  1.8328
   42DOPE  H15S 5361   1.527   3.408   4.825  1.0491  1.3796 -0.5455
   42DOPE  C216 5362   1.418   3.501   5.003  0.0334 -0.2571  1.3202
   42DOPE  H16R 5363   1.344   3.583   5.016  0.4472  1.3762 -4.3022
   42DOPE  H16S 5364   1.512   3.520   5.058 -0.0682  0.9449  1.1031
   42DOPE  C217 5365   1.365   3.369   5.061  1.0913  0.5091  0.0510
   42DOPE  H17R 5366   1.436   3.287   5.038  1.0511  0.1285  1.2425
   42DOPE  H17S 5367   1.267   3.334   5.021  1.5099 -0.5963 -0.0371
   42DOPE  C218 5368   1.351   3.367   5.220 -0.1156 -0.6043  0.2133
   42DOPE  H18R 5369   1.313   3.271   5.264 -2.1080  0.3268  0.6567
   42DOPE  H18S 5370   1.276   3.445   5.243  3.6460  2.9001  1.7578
   42DOPE  H18T 5371   1.447   3.396   5.266  1.6834 -0.5091 -3.2966
   42DOPE   C33 5372   1.324   4.477   3.533  0.6092  0.9311  0.1766
   42DOPE   H3X 5373   1.326   4.549   3.618 -0.0231  1.3348 -0.1384
   42DOPE   H3Y 5374   1.377   4.518   3.445  2.1429 -0.0011  0.6276
   42DOPE   C34 5375   1.405   4.353   3.570  0.6725  0.4074  0.5173
   42DOPE   H4X 5376   1.433   4.284   3.487 -0.6904  0.1886  0.2272
   42DOPE   H4Y 5377   1.499   4.393   3.615  0.0148  2.2856  0.2991
   42DOPE   C35 5378   1.332   4.263   3.684 -0.2043  0.1618  0.4165
   42DOPE   H5X 5379   1.237   4.224   3.643 -0.0127 -0.7489  0.8221
   42DOPE   H5Y 5380   1.291   4.324   3.767 -0.6751 -0.7340  0.8608
   42DOPE   C36 5381   1.427   4.164   3.754  0.1711  0.2946 -0.4626
   42DOPE   H6X 5382   1.516   4.223   3.784 -1.9044  2.7215  1.3483
   42DOPE   H6Y 5383   1.469   4.086   3.686 -1.0034  0.8780 -1.9230
   42DOPE   C37 5384   1.367   4.120   3.881  0.3050  0.5959  0.0552
   42DOPE   H7X 5385   1.447   4.077   3.944 -2.6841 -2.4284  2.1640
   42DOPE   H7Y 5386   1.328   4.204   3.941 -1.6171 -0.8463  0.9280
   42DOPE   C38 5387   1.263   4.009   3.870  0.1896  0.2125 -0.2919
   42DOPE   H8X 5388   1.192   4.028   3.787  1.7686 -1.2809 -2.0663
   42DOPE   H8Y 5389   1.212   4.018   3.969  0.7482  0.8365 -0.0460
   42DOPE   C39 5390   1.325   3.875   3.837 -0.2356 -0.3943  0.0698
   42DOPE   H9X 5391   1.312   3.853   3.730  0.6484 -1.6413  0.2016
   42DOPE  C310 5392   1.386   3.784   3.918 -0.0734  0.6259 -0.2201
   42DOPE  H10X 5393   1.406   3.684   3.877  1.5627  0.1143  1.6328
   42DOPE  C311 5394   1.409   3.791   4.064  0.0767 -0.4859 -0.1285
   42DOPE  H11X 5395   1.515   3.785   4.096  0.3322 -0.0910 -0.8598
   42DOPE  H11Y 5396   1.383   3.888   4.113  1.4502  0.8833 -1.9664
   42DOPE  C312 5397   1.330   3.682   4.130  0.4782 -0.1238 -0.7493
   42DOPE  H12X 5398   1.353   3.582   4.088  0.4556 -1.4233  2.1167
   42DOPE  H12Y 5399   1.220   3.695   4.120  0.5865  1.1119 -0.4835
   42DOPE  C313 5400   1.348   3.673   4.285  0.2965 -0.2590 -0.0377
   42DOPE  H13X 5401   1.340   3.770   4.339 -0.2730 -0.2237 -0.1795
   42DOPE  H13Y 5402   1.249   3.631   4.312 -0.7954  1.3533 -1.3188
   42DOPE  C314 5403   1.468   3.596   4.339 -0.5905 -0.9961 -0.5072
   42DOPE  H14X 5404   1.478   3.622   4.446  1.7338  1.2495 -1.1816
   42DOPE  H14Y 5405   1.566   3.628   4.299 -1.1647  1.0193 -0.4110
   42DOPE  C315 5406   1.447   3.447   4.322 -0.2604  0.5593  0.1256
   42DOPE  H15X 5407   1.402   3.424   4.223 -0.1804 -1.2483  0.4872
   42DOPE  H15Y 5408   1.380   3.407   4.400 -0.9159 -0.1979 -0.7982
   42DOPE  C316 5409   1.575   3.360   4.324 -0.2959 -0.4739 -0.3997
   42DOPE  H16X 5410   1.613   3.349   4.428  2.8869  0.6871 -1.2912
   42DOPE  H16Y 5411   1.652   3.411   4.261  0.3586  0.6713  1.2586
   42DOPE  C317 5412   1.559   3.219   4.277 -0.5936  0.0097  0.0060
   42DOPE  H17X 5413   1.476   3.170   4.333 -0.0600  0.1574  0.9575
   42DOPE  H17Y 5414   1.519   3.238   4.176  2.0361  0.8325 -0.9576
   42DOPE  C318 5415   1.692   3.135   4.267 -0.4699 -0.5503  0.4641
   42DOPE  H18X 5416   1.760   3.179   4.191  0.4487 -1.9742  0.4148
   42DOPE  H18Y 5417   1.753   3.133   4.360  0.1432  1.3417  0.1575
   42DOPE  H18Z 5418   1.665   3.029   4.246 -0.7733 -0.0209 -2.1992
   43DOPE     N 5419   2.091   2.817   3.316 -0.3949 -0.5206 -0.4503
   43DOPE   HN1 5420   2.161   2.759   3.365  0.5533 -0.9232 -2.1982
   43DOPE   HN2 5421   2.107   2.794   3.216 -0.9074 -1.2024 -0.3815
   43DOPE   HN3 5422   2.127   2.915   3.322 -0.5948 -0.4337 -0.6295
   43DOPE   C12 5423   1.951   2.794   3.354 -0.2617  0.7096 -0.2493
   43DOPE  H12A 5424   1.884   2.811   3.267  0.2662  0.1687 -0.7715
   43DOPE  H12B 5425   1.924   2.868   3.432 -0.7309  1.3851 -1.0263
   43DOPE   C11 5426   1.920   2.650   3.417  0.5360  0.0047 -0.1661
   43DOPE  H11A 5427   1.818   2.651   3.462 -0.0246 -1.1961 -1.3591
   43DOPE  H11B 5428   1.992   2.643   3.502  0.3980 -0.3609 -0.0817
   43DOPE     P 5429   1.839   2.462   3.243 -0.3885 -0.2611 -0.2366
   43DOPE   O13 5430   1.908   2.400   3.131 -1.0166  0.2580  0.2526
   43DOPE   O14 5431   1.726   2.558   3.212 -0.8284 -0.2397 -0.4615
   43DOPE   O11 5432   1.786   2.355   3.341 -0.1490 -0.3662 -0.3264
   43DOPE   O12 5433   1.947   2.543   3.330 -0.1223 -0.2811  0.3636
   43DOPE    C1 5434   1.646   2.332   3.368 -0.2761  0.1958  0.2341
   43DOPE    HA 5435   1.641   2.226   3.400 -0.6611  1.0272  3.2812
   43DOPE    HB 5436   1.587   2.342   3.274  0.5298 -1.1136 -0.4343
   43DOPE    C2 5437   1.590   2.424   3.479 -0.0880 -0.0852 -0.2438
   43DOPE    HS 5438   1.615   2.524   3.438  0.4690 -0.7860 -1.6869
   43DOPE   O21 5439   1.654   2.391   3.605 -0.2214 -0.8733  0.3933
   43DOPE   C21 5440   1.676   2.489   3.690  0.4207 -0.6354 -0.3485
   43DOPE   O22 5441   1.673   2.608   3.658 -0.4505  0.5029 -0.1175
   43DOPE   C22 5442   1.684   2.431   3.829 -0.0974  0.1180 -0.4293
   43DOPE   H2R 5443   1.748   2.341   3.818 -1.3162 -1.1021  1.7580
   43DOPE   H2S 5444   1.578   2.411   3.854  0.1908  0.4853  1.1946
   43DOPE    C3 5445   1.432   2.415   3.494  0.0759 -0.2677  0.0443
   43DOPE    HX 5446   1.432   2.304   3.507  2.2987 -0.2795  0.3598
   43DOPE    HY 5447   1.384   2.426   3.394  0.0708  0.1726  0.0929
   43DOPE   O31 5448   1.371   2.476   3.611 -0.2032  0.0029 -0.0872
   43DOPE   C31 5449   1.292   2.571   3.590  0.3263 -0.0679 -0.9352
   43DOPE   O32 5450   1.242   2.587   3.476  0.1435  0.5076 -0.0029
   43DOPE   C32 5451   1.250   2.649   3.713 -0.3920 -0.5048  0.1080
   43DOPE   H2X 5452   1.255   2.755   3.683  0.7076 -0.5225  0.2017
   43DOPE   H2Y 5453   1.146   2.626   3.746 -0.9051 -0.9160 -1.6600
   43DOPE   C23 5454   1.748   2.529   3.923  0.0347  0.2562  0.2536
   43DOPE   H3R 5455   1.681   2.615   3.943  1.0671  2.1073 -3.3872
   43DOPE   H3S 5456   1.841   2.568   3.875  0.0693  1.4187  1.2207
   43DOPE   C24 5457   1.774   2.450   4.050 -0.0560 -0.1254 -0.2388
   43DOPE   H4R 5458   1.833   2.360   4.022 -0.0665 -0.3229  0.3597
   43DOPE   H4S 5459   1.669   2.431   4.083 -0.3020  2.9221  1.0166
   43DOPE   C25 5460   1.846   2.534   4.152 -0.2529  0.3219 -0.5722
   43DOPE   H5R 5461   1.781   2.623   4.164 -0.3963  0.2610 -0.8701
   43DOPE   H5S 5462   1.943   2.567   4.110 -0.5290  0.1771 -1.3514
   43DOPE   C26 5463   1.870   2.462   4.290  0.6124 -0.0322 -0.0273
   43DOPE   H6R 5464   1.933   2.373   4.269  0.2418 -1.2741  3.5386
   43DOPE   H6S 5465   1.773   2.424   4.329  1.4490 -3.7361 -1.1416
   43DOPE   C27 5466   1.926   2.535   4.407  0.7456  0.8600 -0.7898
   43DOPE   H7R 5467   2.025   2.578   4.382  1.4734  0.6656  1.4833
   43DOPE   H7S 5468   1.943   2.463   4.491 -2.3514  0.3360 -0.4973
   43DOPE   C28 5469   1.823   2.645   4.452  0.5176 -0.5335  0.0688
   43DOPE   H8R 5470   1.720   2.605   4.454 -0.4472  1.8201  0.4824
   43DOPE   H8S 5471   1.830   2.716   4.367  2.5779 -0.4160  0.2756
   43DOPE   C29 5472   1.870   2.712   4.580 -0.4991  0.6181  0.2110
   43DOPE   H9R 5473   1.974   2.750   4.577 -0.1130 -0.3512  0.8119
   43DOPE  C210 5474   1.803   2.741   4.698 -0.0084 -0.5084 -0.2866
   43DOPE  H10R 5475   1.858   2.782   4.784 -0.7800  0.6383 -0.3094
   43DOPE  C211 5476   1.658   2.698   4.708 -0.1106  0.3095  0.7362
   43DOPE  H11R 5477   1.614   2.690   4.606 -0.3587  1.7744  0.7069
   43DOPE  H11S 5478   1.599   2.779   4.756  0.7507 -0.0836  2.5677
   43DOPE  C212 5479   1.642   2.580   4.808  0.5026 -0.1299 -0.5956
   43DOPE  H12R 5480   1.712   2.495   4.792 -0.6269 -1.7102  2.2358
   43DOPE  H12S 5481   1.538   2.545   4.788 -0.6021  2.9328 -0.7743
   43DOPE  C213 5482   1.655   2.620   4.959 -0.3083 -0.1461  0.9425
   43DOPE  H13R 5483   1.587   2.706   4.974  0.6655  0.4614  2.0039
   43DOPE  H13S 5484   1.758   2.659   4.968 -1.0236  1.3452  3.8798
   43DOPE  C214 5485   1.637   2.515   5.064 -0.2495  0.0076 -0.6391
   43DOPE  H14R 5486   1.658   2.554   5.166 -1.0473  0.0084 -0.4691
   43DOPE  H14S 5487   1.693   2.421   5.044  0.4499  0.4145 -0.6244
   43DOPE  C215 5488   1.491   2.478   5.073  0.8246  0.4515 -0.3849
   43DOPE  H15R 5489   1.458   2.412   4.990  0.8505  0.6326 -0.5411
   43DOPE  H15S 5490   1.426   2.569   5.079  0.5468  0.2970 -0.9504
   43DOPE  C216 5491   1.470   2.384   5.191  0.0567  1.1079 -0.1359
   43DOPE  H16R 5492   1.485   2.427   5.292  1.9496  0.8528 -0.2776
   43DOPE  H16S 5493   1.537   2.296   5.188 -0.4927  0.7008 -1.3019
   43DOPE  C217 5494   1.327   2.321   5.198  0.2075 -0.1278 -0.2767
   43DOPE  H17R 5495   1.322   2.276   5.300 -0.6286 -0.8026 -0.6087
   43DOPE  H17S 5496   1.315   2.242   5.122 -2.2776 -0.1893  0.1036
   43DOPE  C218 5497   1.220   2.419   5.188  0.6134 -0.4280 -0.0423
   43DOPE  H18R 5498   1.228   2.474   5.092 -1.0873  2.1243  1.1523
   43DOPE  H18S 5499   1.240   2.507   5.254 -0.2698 -0.8265  0.7829
   43DOPE  H18T 5500   1.118   2.375   5.189 -0.1125  1.1712  0.9895
   43DOPE   C33 5501   1.353   2.634   3.830 -0.1562 -0.2879  0.4503
   43DOPE   H3X 5502   1.449   2.678   3.795  0.3980 -0.8583  1.1926
   43DOPE   H3Y 5503   1.373   2.528   3.856 -0.7666 -0.1286  1.6540
   43DOPE   C34 5504   1.313   2.713   3.955  0.3263  0.3534  0.4329
   43DOPE   H4X 5505   1.276   2.814   3.929  0.8726  0.6469  0.7863
   43DOPE   H4Y 5506   1.223   2.656   3.986  1.0393 -1.9430 -1.4182
   43DOPE   C35 5507   1.430   2.697   4.061 -0.0780 -0.0791 -0.1039
   43DOPE   H5X 5508   1.500   2.779   4.035 -0.1432  0.6697  1.9635
   43DOPE   H5Y 5509   1.466   2.593   4.074  1.2446  0.4036  0.2269
   43DOPE   C36 5510   1.369   2.730   4.201 -0.0828 -0.4427  0.2642
   43DOPE   H6X 5511   1.287   2.669   4.243  0.1206 -0.1692  1.0700
   43DOPE   H6Y 5512   1.329   2.834   4.192 -0.4271 -0.6763 -1.1308
   43DOPE   C37 5513   1.479   2.734   4.310  0.1423  0.7305  0.9450
   43DOPE   H7X 5514   1.498   2.634   4.353  2.7843  1.3516  1.4182
   43DOPE   H7Y 5515   1.570   2.766   4.254 -0.1753  0.6513  0.3779
   43DOPE   C38 5516   1.463   2.855   4.402 -0.1148  0.1347 -0.4282
   43DOPE   H8X 5517   1.473   2.955   4.356 -1.6004 -0.2663 -1.6823
   43DOPE   H8Y 5518   1.552   2.850   4.469  0.5828  1.2102 -1.2560
   43DOPE   C39 5519   1.325   2.830   4.468  0.3760 -0.2855  0.6766
   43DOPE   H9X 5520   1.302   2.725   4.490  0.3675 -0.2736  0.7267
   43DOPE  C310 5521   1.219   2.912   4.471 -0.1768  0.1325 -0.0568
   43DOPE  H10X 5522   1.119   2.881   4.503 -0.7024  2.4453  0.7215
   43DOPE  C311 5523   1.214   3.043   4.409 -0.0218  0.0011 -0.1415
   43DOPE  H11X 5524   1.286   3.116   4.453  1.4151 -0.7851 -1.0905
   43DOPE  H11Y 5525   1.226   3.039   4.299 -0.0404 -1.5000 -0.0981
   43DOPE  C312 5526   1.075   3.114   4.432  0.0809  0.9550  0.3175
   43DOPE  H12X 5527   1.073   3.122   4.542  1.2955  0.2147  0.4135
   43DOPE  H12Y 5528   0.996   3.044   4.399  1.5015 -0.9062  0.6775
   43DOPE  C313 5529   1.070   3.249   4.358 -0.8323 -0.2983  0.1864
   43DOPE  H13X 5530   0.977   3.301   4.391 -0.1569  1.3049 -0.3339
   43DOPE  H13Y 5531   1.157   3.306   4.396  1.1178 -1.6736 -1.9473
   43DOPE  C314 5532   1.061   3.244   4.207  0.2885  0.2588  0.4344
   43DOPE  H14X 5533   0.955   3.219   4.186  0.5134 -0.0041 -0.4431
   43DOPE  H14Y 5534   1.124   3.172   4.150 -1.0583  0.1069 -0.9227
   43DOPE  C315 5535   1.078   3.387   4.149 -0.5126  0.2828 -0.2512
   43DOPE  H15X 5536   1.164   3.437   4.198 -0.9099  2.0737 -1.2682
   43DOPE  H15Y 5537   0.994   3.446   4.190 -1.2720  0.8433 -2.4681
   43DOPE  C316 5538   1.072   3.412   3.992  0.5459  0.0002  0.2019
   43DOPE  H16X 5539   1.064   3.523   3.981 -2.3652  0.0286  1.6537
   43DOPE  H16Y 5540   0.982   3.363   3.951 -1.6438  3.1854  0.7961
   43DOPE  C317 5541   1.185   3.352   3.909 -0.2999 -0.3377  0.1532
   43DOPE  H17X 5542   1.277   3.382   3.964 -0.4776 -0.2936  0.4299
   43DOPE  H17Y 5543   1.175   3.241   3.903  1.5031 -0.4432 -2.5266
   43DOPE  C318 5544   1.178   3.430   3.775 -0.1328 -0.8413  0.6095
   43DOPE  H18X 5545   1.269   3.413   3.714  1.1880 -0.9710  2.5073
   43DOPE  H18Y 5546   1.083   3.406   3.723 -1.4309  0.9252  2.0152
   43DOPE  H18Z 5547   1.174   3.539   3.797 -1.7712 -0.6825 -0.3672
   44DOPE     N 5548   4.826   1.334   3.168  0.6202 -0.0391  0.8673
   44DOPE   HN1 5549   4.911   1.343   3.110  0.1311  0.6638  0.2370
   44DOPE   HN2 5550   4.847   1.379   3.260 -2.2105  0.9887  1.1164
   44DOPE   HN3 5551   4.809   1.233   3.186  2.4873 -0.3069  1.2806
   44DOPE   C12 5552   4.695   1.383   3.109 -0.4587  0.5424  0.3817
   44DOPE  H12A 5553   4.710   1.386   2.999  4.6385 -0.4311  0.8287
   44DOPE  H12B 5554   4.668   1.479   3.160  0.4732 -0.3324  2.6094
   44DOPE   C11 5555   4.581   1.283   3.138 -0.3256  0.2277 -0.0014
   44DOPE  H11A 5556   4.587   1.195   3.069 -1.0480 -0.7575  1.1423
   44DOPE  H11B 5557   4.481   1.328   3.121 -0.8774 -1.1148 -0.4547
   44DOPE     P 5558   4.530   1.281   3.386  0.2871  0.4213 -0.3101
   44DOPE   O13 5559   4.537   1.184   3.498 -0.4098  0.1371 -0.1755
   44DOPE   O14 5560   4.389   1.321   3.356 -0.2297  0.2734 -0.1740
   44DOPE   O11 5561   4.628   1.406   3.401  0.1428 -0.5720  0.5020
   44DOPE   O12 5562   4.588   1.217   3.261  0.0343  0.1023 -0.5408
   44DOPE    C1 5563   4.674   1.447   3.528 -0.2196  0.3518 -0.3451
   44DOPE    HA 5564   4.781   1.477   3.532 -0.2466  0.4609 -0.4748
   44DOPE    HB 5565   4.678   1.365   3.604  0.1590  0.7069  0.0267
   44DOPE    C2 5566   4.599   1.560   3.597 -0.2873  0.4094 -0.1050
   44DOPE    HS 5567   4.661   1.590   3.684 -1.5148 -1.3387  1.4398
   44DOPE   O21 5568   4.469   1.519   3.645  0.0029  0.4480  0.1128
   44DOPE   C21 5569   4.455   1.447   3.749 -0.1923 -0.0197  0.0688
   44DOPE   O22 5570   4.549   1.406   3.820  0.0624  0.0916  0.1141
   44DOPE   C22 5571   4.308   1.405   3.752 -0.3790 -0.4423 -0.3303
   44DOPE   H2R 5572   4.310   1.325   3.674  3.1070  0.2726 -1.1477
   44DOPE   H2S 5573   4.234   1.483   3.725 -2.1222 -0.4213  3.7246
   44DOPE    C3 5574   4.568   1.681   3.503  0.0097  0.1804  0.4279
   44DOPE    HX 5575   4.486   1.642   3.440 -0.8397 -1.1504  2.2688
   44DOPE    HY 5576   4.652   1.704   3.434  0.3037 -0.6548  0.4971
   44DOPE   O31 5577   4.530   1.795   3.582  0.2880 -0.5160 -0.1001
   44DOPE   C31 5578   4.448   1.881   3.510  0.2555  0.0773  0.3422
   44DOPE   O32 5579   4.432   1.871   3.384 -0.9946 -0.2579 -0.6561
   44DOPE   C32 5580   4.374   1.987   3.592 -0.7393  0.3074  0.4334
   44DOPE   H2X 5581   4.439   2.077   3.596 -0.0827 -0.1904  3.1422
   44DOPE   H2Y 5582   4.276   2.005   3.543 -0.8169 -0.8075  0.1449
   44DOPE   C23 5583   4.271   1.340   3.891 -0.1386  0.3261  0.2385
   44DOPE   H3R 5584   4.345   1.261   3.914  1.2289  1.2040 -0.9552
   44DOPE   H3S 5585   4.172   1.291   3.877  0.5059 -0.4418 -2.1621
   44DOPE   C24 5586   4.262   1.438   3.998 -0.0730 -0.0321 -0.6805
   44DOPE   H4R 5587   4.354   1.499   3.992 -0.7560  0.9553 -1.4752
   44DOPE   H4S 5588   4.266   1.385   4.095 -0.3975 -2.0451 -1.7195
   44DOPE   C25 5589   4.136   1.522   3.990 -0.2893  0.4728 -0.3092
   44DOPE   H5R 5590   4.049   1.453   3.988  0.8866 -1.0801 -2.7728
   44DOPE   H5S 5591   4.130   1.589   3.901 -0.7346  0.0985 -0.5621
   44DOPE   C26 5592   4.119   1.603   4.120  0.4998 -0.0059  0.5260
   44DOPE   H6R 5593   4.111   1.531   4.204  0.3301 -0.5985  0.0078
   44DOPE   H6S 5594   4.017   1.647   4.113  0.8541  0.8060  0.2966
   44DOPE   C27 5595   4.236   1.709   4.139  0.0089  0.0513 -0.6115
   44DOPE   H7R 5596   4.245   1.767   4.045  1.2092 -1.9906 -1.8228
   44DOPE   H7S 5597   4.335   1.665   4.160  0.5464  0.9319 -1.2541
   44DOPE   C28 5598   4.216   1.815   4.255  0.1077 -0.4196 -0.0108
   44DOPE   H8R 5599   4.131   1.880   4.223  0.2262 -1.1008 -1.8658
   44DOPE   H8S 5600   4.301   1.885   4.240 -0.2572 -0.5388 -3.5516
   44DOPE   C29 5601   4.209   1.767   4.403 -0.8007  0.6095 -0.4795
   44DOPE   H9R 5602   4.304   1.724   4.437 -0.7869  1.7710  1.0575
   44DOPE  C210 5603   4.109   1.778   4.485  0.5033 -0.7721 -0.9825
   44DOPE  H10R 5604   4.119   1.732   4.584  0.6929 -1.6252 -1.3919
   44DOPE  C211 5605   3.976   1.839   4.462  0.1410 -0.6387 -0.5809
   44DOPE  H11R 5606   3.907   1.755   4.439 -0.6722 -0.9580  2.6473
   44DOPE  H11S 5607   3.981   1.917   4.382  2.9774  1.1245  1.1187
   44DOPE  C212 5608   3.917   1.909   4.590 -0.3146  0.3381 -0.2842
   44DOPE  H12R 5609   3.838   1.973   4.547 -1.0025 -1.0424 -1.1379
   44DOPE  H12S 5610   3.987   1.988   4.625 -0.3235  0.3197 -0.2243
   44DOPE  C213 5611   3.870   1.814   4.698  0.4793 -0.0519 -0.4907
   44DOPE  H13R 5612   3.952   1.752   4.739 -1.0990 -1.8970  0.0351
   44DOPE  H13S 5613   3.805   1.736   4.651 -0.7132 -0.6321  1.9573
   44DOPE  C214 5614   3.790   1.872   4.813  0.5277 -1.0438 -0.2886
   44DOPE  H14R 5615   3.741   1.792   4.872  1.2354 -0.5247  1.0502
   44DOPE  H14S 5616   3.714   1.937   4.763  1.3485 -0.1021 -0.3634
   44DOPE  C215 5617   3.868   1.956   4.916  0.8329  0.1369  0.2652
   44DOPE  H15R 5618   3.887   2.054   4.867 -0.9418 -0.1680 -1.1344
   44DOPE  H15S 5619   3.965   1.907   4.936  0.4831 -1.1489 -1.0065
   44DOPE  C216 5620   3.791   1.984   5.046 -0.2999  0.4536 -0.4644
   44DOPE  H16R 5621   3.862   2.017   5.125 -1.2922  0.4249  0.4517
   44DOPE  H16S 5622   3.747   1.889   5.083  0.6491 -0.4664 -1.6344
   44DOPE  C217 5623   3.674   2.080   5.038 -0.2820 -0.1267 -0.2093
   44DOPE  H17R 5624   3.599   2.060   4.959 -1.7914  0.7811  0.9383
   44DOPE  H17S 5625   3.720   2.174   5.002 -1.0678  0.9378  1.4356
   44DOPE  C218 5626   3.604   2.103   5.167  0.3029 -0.0367 -0.1478
   44DOPE  H18R 5627   3.551   2.200   5.158 -1.5963 -0.8795  1.3122
   44DOPE  H18S 5628   3.665   2.116   5.259 -1.3715 -0.2231  1.0400
   44DOPE  H18T 5629   3.527   2.026   5.190 -0.1715  0.4902  0.0563
   44DOPE   C33 5630   4.350   1.962   3.748  0.3929 -0.4351  0.0868
   44DOPE   H3X 5631   4.434   1.982   3.818 -0.8190 -0.1620  1.5104
   44DOPE   H3Y 5632   4.321   1.856   3.758 -1.7784  0.2099  1.0663
   44DOPE   C34 5633   4.227   2.039   3.794 -0.4758 -0.3704 -0.1765
   44DOPE   H4X 5634   4.246   2.065   3.900  0.7814 -1.1588 -0.1744
   44DOPE   H4Y 5635   4.225   2.136   3.740  2.1510 -0.5182 -0.6821
   44DOPE   C35 5636   4.090   1.965   3.788 -0.2574 -0.2504 -0.5399
   44DOPE   H5X 5637   4.097   1.856   3.808 -1.4739 -0.7272 -2.5077
   44DOPE   H5Y 5638   4.036   1.984   3.693  0.7836  2.1185 -0.7184
   44DOPE   C36 5639   4.000   2.019   3.902  0.0724 -0.0733 -0.5178
   44DOPE   H6X 5640   3.993   2.129   3.888 -0.9941  0.1755  1.5647
   44DOPE   H6Y 5641   4.052   2.005   3.999 -1.0811 -1.5494 -0.0818
   44DOPE   C37 5642   3.867   1.944   3.917 -0.3092 -0.8014  0.5898
   44DOPE   H7X 5643   3.787   1.982   3.850  0.1726 -2.0329 -0.7135
   44DOPE   H7Y 5644   3.885   1.847   3.867  0.1709  0.3571 -1.6106
   44DOPE   C38 5645   3.819   1.913   4.064  0.1928 -1.0927 -0.4715
   44DOPE   H8X 5646   3.894   1.845   4.110  1.0163 -0.4846 -0.8890
   44DOPE   H8Y 5647   3.719   1.866   4.059  0.3934 -1.5966  0.2299
   44DOPE   C39 5648   3.803   2.044   4.139  0.2016  0.0270  0.1953
   44DOPE   H9X 5649   3.879   2.124   4.130 -0.7754  0.8481 -1.0139
   44DOPE  C310 5650   3.706   2.074   4.228  0.1495  0.2515 -0.1165
   44DOPE  H10X 5651   3.703   2.176   4.271  0.1089 -0.5261  1.8078
   44DOPE  C311 5652   3.596   1.986   4.266 -1.0312 -0.1918 -0.1969
   44DOPE  H11X 5653   3.545   1.952   4.173 -0.6155  0.7434 -0.7749
   44DOPE  H11Y 5654   3.627   1.895   4.322  1.9664  0.6247 -0.3417
   44DOPE  C312 5655   3.494   2.064   4.353 -0.1028 -0.7352  0.1637
   44DOPE  H12X 5656   3.404   1.998   4.356 -0.3729 -0.4045 -0.5237
   44DOPE  H12Y 5657   3.469   2.160   4.304  2.4565  0.1572  0.4831
   44DOPE  C313 5658   3.557   2.103   4.488  0.9066  0.7501  0.1989
   44DOPE  H13X 5659   3.626   2.026   4.530  0.7492  1.3023  1.5327
   44DOPE  H13Y 5660   3.625   2.185   4.456 -1.2528  2.0253 -1.3783
   44DOPE  C314 5661   3.462   2.154   4.598 -0.8477 -0.6393 -0.4684
   44DOPE  H14X 5662   3.416   2.075   4.662  2.8810 -1.4056  1.5713
   44DOPE  H14Y 5663   3.383   2.212   4.546 -0.0268 -0.5114 -1.6317
   44DOPE  C315 5664   3.542   2.254   4.681 -0.1019  0.1101  0.2504
   44DOPE  H15X 5665   3.558   2.342   4.615  0.3700  1.2566  1.8266
   44DOPE  H15Y 5666   3.639   2.206   4.705  1.0085  2.0112 -0.1638
   44DOPE  C316 5667   3.473   2.299   4.807  0.3764 -0.1314 -0.2838
   44DOPE  H16X 5668   3.454   2.210   4.870  1.0344 -1.7968 -2.3137
   44DOPE  H16Y 5669   3.372   2.334   4.778  0.5849  1.0350  0.3293
   44DOPE  C317 5670   3.539   2.423   4.876 -0.1622 -0.4581 -0.4247
   44DOPE  H17X 5671   3.639   2.397   4.917 -0.4242 -1.2192 -0.2509
   44DOPE  H17Y 5672   3.539   2.493   4.790 -2.9481  0.2998  0.0769
   44DOPE  C318 5673   3.436   2.482   4.984  0.2364 -0.0405 -0.2381
   44DOPE  H18X 5674   3.467   2.583   5.020 -1.7344  0.3666  0.4345
   44DOPE  H18Y 5675   3.339   2.501   4.932  0.4562 -0.5881 -0.8576
   44DOPE  H18Z 5676   3.426   2.415   5.072  0.3177  1.2260  0.7784
   45DOPE     N 5677   3.485   2.622   2.977 -0.8832 -0.2571 -0.4391
   45DOPE   HN1 5678   3.389   2.610   2.938 -1.0345 -3.9908  0.7147
   45DOPE   HN2 5679   3.518   2.720   2.975  2.2345 -1.2009 -2.1709
   45DOPE   HN3 5680   3.545   2.577   2.905 -0.7931 -1.3567  0.2996
   45DOPE   C12 5681   3.492   2.555   3.110 -0.6607  0.4866 -0.0664
   45DOPE  H12A 5682   3.391   2.513   3.130  0.1643 -1.9157 -0.5582
   45DOPE  H12B 5683   3.498   2.631   3.192 -0.8465 -0.9818  1.3688
   45DOPE   C11 5684   3.601   2.446   3.123 -0.4860 -0.0920 -0.3417
   45DOPE  H11A 5685   3.582   2.360   3.055 -0.5610 -0.5570  0.2513
   45DOPE  H11B 5686   3.590   2.400   3.224 -1.4630  0.8579 -0.0027
   45DOPE     P 5687   3.834   2.554   3.215  0.1847 -0.3228 -0.3068
   45DOPE   O13 5688   3.804   2.695   3.245 -0.4146  0.5979  0.2223
   45DOPE   O14 5689   3.969   2.526   3.173 -0.2975  0.0589  0.1049
   45DOPE   O11 5690   3.813   2.466   3.344  0.5002  0.3433  0.2186
   45DOPE   O12 5691   3.737   2.494   3.103  0.8123  1.2779  0.1169
   45DOPE    C1 5692   3.843   2.329   3.339 -0.5008  0.0273  0.0381
   45DOPE    HA 5693   3.874   2.285   3.242 -0.4219 -0.7873  0.4259
   45DOPE    HB 5694   3.744   2.283   3.356 -0.8178  0.6674 -0.0333
   45DOPE    C2 5695   3.949   2.296   3.454 -0.5599 -0.2703 -0.4310
   45DOPE    HS 5696   3.987   2.192   3.444  1.6019  0.3782  0.5270
   45DOPE   O21 5697   3.883   2.317   3.584  0.9992 -0.3997  0.3380
   45DOPE   C21 5698   3.811   2.212   3.620  0.9266 -0.6922 -0.1587
   45DOPE   O22 5699   3.817   2.095   3.572  0.4571 -0.2661 -0.2610
   45DOPE   C22 5700   3.724   2.251   3.731  0.0436  0.2741 -0.4357
   45DOPE   H2R 5701   3.778   2.280   3.823  1.6152  0.2099 -1.3065
   45DOPE   H2S 5702   3.655   2.168   3.758  1.1419 -0.7464 -0.7297
   45DOPE    C3 5703   4.074   2.389   3.449 -0.1601  0.1206 -0.0295
   45DOPE    HX 5704   4.029   2.491   3.453 -0.3758  0.0178  0.2676
   45DOPE    HY 5705   4.121   2.361   3.353 -0.1695 -0.2554  0.0758
   45DOPE   O31 5706   4.177   2.368   3.558 -0.5297  0.3538 -0.1677
   45DOPE   C31 5707   4.246   2.469   3.600  0.3428 -0.0042 -0.3131
   45DOPE   O32 5708   4.234   2.585   3.560  0.6236  0.1812 -0.2503
   45DOPE   C32 5709   4.350   2.416   3.704  0.0979 -0.7886  1.0270
   45DOPE   H2X 5710   4.347   2.306   3.688 -1.0103 -0.6090 -0.1223
   45DOPE   H2Y 5711   4.442   2.463   3.666 -0.9957  0.8109  0.2322
   45DOPE   C23 5712   3.639   2.370   3.689 -0.0816  0.3592  0.1890
   45DOPE   H3R 5713   3.533   2.353   3.717  0.0675 -0.8200  0.1013
   45DOPE   H3S 5714   3.620   2.382   3.580 -0.7206  2.0342  0.4486
   45DOPE   C24 5715   3.709   2.492   3.751  0.3032 -0.5642  0.1204
   45DOPE   H4R 5716   3.805   2.507   3.698 -0.3357 -0.5459 -1.0749
   45DOPE   H4S 5717   3.727   2.473   3.859 -0.3150  0.5082  0.4190
   45DOPE   C25 5718   3.619   2.610   3.754 -0.2700 -0.6289  0.6998
   45DOPE   H5R 5719   3.517   2.592   3.792 -0.7393  2.8853  1.4662
   45DOPE   H5S 5720   3.623   2.667   3.658  2.6287 -1.1811  0.3783
   45DOPE   C26 5721   3.681   2.707   3.861  0.4373 -0.1181  0.6998
   45DOPE   H6R 5722   3.785   2.732   3.829  0.2852 -1.8183 -1.3791
   45DOPE   H6S 5723   3.675   2.656   3.959 -1.2768 -2.7341 -0.6522
   45DOPE   C27 5724   3.600   2.841   3.868 -0.1122  0.0682  0.1702
   45DOPE   H7R 5725   3.501   2.826   3.914  0.5985  0.5394  1.9218
   45DOPE   H7S 5726   3.589   2.866   3.760 -0.6318  2.0661  0.6516
   45DOPE   C28 5727   3.686   2.950   3.932 -0.1420  0.6765 -0.2337
   45DOPE   H8R 5728   3.758   2.983   3.854 -0.9021 -0.4051 -1.4279
   45DOPE   H8S 5729   3.741   2.899   4.015  0.4468 -0.1346 -1.0967
   45DOPE   C29 5730   3.605   3.074   3.964  0.5311  0.0064  0.3141
   45DOPE   H9R 5731   3.608   3.147   3.882 -0.7874 -0.1538  0.0971
   45DOPE  C210 5732   3.530   3.094   4.071  0.0422 -0.5822  0.4833
   45DOPE  H10R 5733   3.475   3.189   4.071  1.6950  0.4034 -0.7135
   45DOPE  C211 5734   3.521   2.992   4.183  0.4236  0.8214 -0.3815
   45DOPE  H11R 5735   3.595   3.017   4.261  3.1467 -0.2584 -2.4572
   45DOPE  H11S 5736   3.541   2.890   4.144 -0.3550  1.0288 -1.3762
   45DOPE  C212 5737   3.386   2.980   4.240 -0.2908  0.6343 -0.7881
   45DOPE  H12R 5738   3.392   2.907   4.323 -1.9670 -0.3103 -1.4628
   45DOPE  H12S 5739   3.326   2.927   4.163 -0.7752  0.0012  0.0198
   45DOPE  C213 5740   3.308   3.103   4.276  0.0226 -0.7267 -0.8423
   45DOPE  H13R 5741   3.291   3.171   4.190 -2.2045  2.0945  1.5724
   45DOPE  H13S 5742   3.352   3.147   4.369 -0.1454 -0.0538 -1.0744
   45DOPE  C214 5743   3.165   3.060   4.317  0.1906 -0.1464  0.9713
   45DOPE  H14R 5744   3.166   2.964   4.373 -0.1815 -1.3039 -0.9287
   45DOPE  H14S 5745   3.103   3.054   4.226  1.7015  0.5953 -0.1551
   45DOPE  C215 5746   3.094   3.169   4.409  0.6049  0.0755 -0.0158
   45DOPE  H15R 5747   3.002   3.124   4.452  2.1701 -0.3632  3.1806
   45DOPE  H15S 5748   3.074   3.257   4.345  1.5362 -0.5985 -1.2943
   45DOPE  C216 5749   3.162   3.229   4.536 -0.0430 -0.3610  0.3177
   45DOPE  H16R 5750   3.258   3.277   4.508 -0.0015  0.3821  1.6468
   45DOPE  H16S 5751   3.186   3.146   4.605 -1.2517 -1.9959 -1.1373
   45DOPE  C217 5752   3.073   3.340   4.591 -0.2332 -0.2290 -0.3244
   45DOPE  H17R 5753   2.974   3.298   4.619 -1.2373  0.4425 -2.6073
   45DOPE  H17S 5754   3.059   3.424   4.520  0.1994 -1.3921 -1.8240
   45DOPE  C218 5755   3.137   3.404   4.713 -0.5882  0.1982 -0.3086
   45DOPE  H18R 5756   3.165   3.322   4.784  1.6379 -0.6902 -2.0631
   45DOPE  H18S 5757   3.070   3.481   4.757 -2.9300 -2.5440  1.2645
   45DOPE  H18T 5758   3.234   3.448   4.680 -0.3228  0.0918  0.3025
   45DOPE   C33 5759   4.319   2.468   3.844 -0.3337 -0.0312 -0.4002
   45DOPE   H3X 5760   4.300   2.577   3.851 -2.2878 -0.3420 -0.3423
   45DOPE   H3Y 5761   4.411   2.445   3.901 -0.9372 -0.9106  0.2354
   45DOPE   C34 5762   4.221   2.386   3.924 -0.2977 -0.5765 -0.0664
   45DOPE   H4X 5763   4.132   2.363   3.862 -0.6135  1.8944 -0.6583
   45DOPE   H4Y 5764   4.261   2.287   3.953 -0.1776 -0.3088  0.6973
   45DOPE   C35 5765   4.163   2.467   4.050  1.4209  0.2898 -0.3116
   45DOPE   H5X 5766   4.106   2.557   4.017  2.7649  1.5039  0.5105
   45DOPE   H5Y 5767   4.248   2.499   4.115  1.3252  1.2452 -0.6399
   45DOPE   C36 5768   4.065   2.381   4.132  0.4185 -0.1741 -0.3582
   45DOPE   H6X 5769   4.120   2.302   4.187 -0.6079 -0.1978  0.6575
   45DOPE   H6Y 5770   3.995   2.336   4.058 -2.6139  0.0139  2.1893
   45DOPE   C37 5771   3.977   2.459   4.223 -0.6688  0.1735  0.3900
   45DOPE   H7X 5772   4.036   2.500   4.307  1.2335 -0.5034 -0.5692
   45DOPE   H7Y 5773   3.926   2.543   4.170 -2.6131 -2.4780 -2.2544
   45DOPE   C38 5774   3.865   2.380   4.275 -0.3670 -0.4397 -0.1069
   45DOPE   H8X 5775   3.898   2.284   4.319 -1.5998 -1.1112 -0.5914
   45DOPE   H8Y 5776   3.795   2.349   4.195  0.4779 -0.0270 -1.0159
   45DOPE   C39 5777   3.796   2.463   4.382  0.2825  0.1936 -0.2234
   45DOPE   H9X 5778   3.858   2.493   4.468 -0.7323  4.0864 -0.6518
   45DOPE  C310 5779   3.672   2.518   4.369  0.1491 -0.1910  0.1808
   45DOPE  H10X 5780   3.633   2.580   4.451 -1.2606 -2.6788  1.5296
   45DOPE  C311 5781   3.579   2.511   4.247 -0.8337 -0.1590 -0.0168
   45DOPE  H11X 5782   3.625   2.585   4.177  1.1491 -0.2781  1.0798
   45DOPE  H11Y 5783   3.581   2.410   4.202 -1.3484  0.4978 -1.6005
   45DOPE  C312 5784   3.436   2.570   4.271 -0.2856  0.8774 -1.0827
   45DOPE  H12X 5785   3.451   2.667   4.324 -0.5345  0.9921 -1.2246
   45DOPE  H12Y 5786   3.376   2.512   4.344  0.8290  0.5784 -0.3727
   45DOPE  C313 5787   3.350   2.590   4.142  0.4072 -0.1791 -0.7137
   45DOPE  H13X 5788   3.389   2.670   4.077 -1.4268  1.9105  0.6001
   45DOPE  H13Y 5789   3.368   2.499   4.082  0.8436 -1.1247  0.7891
   45DOPE  C314 5790   3.200   2.615   4.151 -0.3094 -0.2582 -0.1160
   45DOPE  H14X 5791   3.188   2.707   4.212  3.9658  0.2051  0.3008
   45DOPE  H14Y 5792   3.149   2.525   4.192  0.9505 -1.8777 -1.9166
   45DOPE  C315 5793   3.137   2.644   4.012  0.2135  0.0084  0.5219
   45DOPE  H15X 5794   3.029   2.621   4.016 -0.5178  2.6862 -1.3114
   45DOPE  H15Y 5795   3.182   2.572   3.941 -0.1858 -0.3066  0.5864
   45DOPE  C316 5796   3.160   2.787   3.962 -0.5035  0.2530 -0.6531
   45DOPE  H16X 5797   3.270   2.800   3.950 -0.3327 -0.1762  0.4033
   45DOPE  H16Y 5798   3.116   2.862   4.032  2.7058  1.2843  0.4217
   45DOPE  C317 5799   3.120   2.811   3.816  0.3273 -0.2670 -0.3574
   45DOPE  H17X 5800   3.154   2.728   3.751 -0.9639 -1.3331  0.2842
   45DOPE  H17Y 5801   3.009   2.805   3.816  0.3800 -1.3855 -0.8602
   45DOPE  C318 5802   3.164   2.949   3.765 -0.3525 -0.0715 -0.6397
   45DOPE  H18X 5803   3.129   3.031   3.832  1.7058 -0.9810  1.6764
   45DOPE  H18Y 5804   3.275   2.959   3.763 -0.5461  3.6798 -2.5871
   45DOPE  H18Z 5805   3.127   2.957   3.660 -0.2980  1.3595 -0.5780
   46DOPE     N 5806   3.467   0.511   2.821 -0.1985  0.4819 -0.3621
   46DOPE   HN1 5807   3.513   0.456   2.896 -0.9048  1.6906  1.0159
   46DOPE   HN2 5808   3.394   0.449   2.781  0.2069 -0.6869  0.6574
   46DOPE   HN3 5809   3.548   0.525   2.757 -0.5063 -0.7196 -1.0394
   46DOPE   C12 5810   3.404   0.642   2.873 -0.5469 -0.4944  0.3965
   46DOPE  H12A 5811   3.327   0.620   2.950  0.6218 -0.9380  1.4765
   46DOPE  H12B 5812   3.367   0.707   2.791  1.7565 -0.1332 -0.4533
   46DOPE   C11 5813   3.511   0.728   2.941 -0.4268  0.2454 -0.4441
   46DOPE  H11A 5814   3.528   0.674   3.036  0.3753  0.0741 -0.6804
   46DOPE  H11B 5815   3.464   0.822   2.975 -0.5995 -0.7619  2.2899
   46DOPE     P 5816   3.658   0.875   2.777  0.1293  0.1843 -0.3396
   46DOPE   O13 5817   3.530   0.902   2.714  0.3745  0.3264  0.2029
   46DOPE   O14 5818   3.768   0.846   2.681 -0.1628 -0.2854  0.0418
   46DOPE   O11 5819   3.693   0.994   2.876 -0.0469 -0.0447  0.1253
   46DOPE   O12 5820   3.634   0.744   2.866  0.7826 -0.0798  0.1306
   46DOPE    C1 5821   3.821   0.990   2.946 -0.0677  0.1810  0.0249
   46DOPE    HA 5822   3.843   1.094   2.980  0.1501  0.5047 -1.0646
   46DOPE    HB 5823   3.904   0.956   2.881  1.1589  2.3574  0.3405
   46DOPE    C2 5824   3.824   0.903   3.070 -0.2307  0.5580  0.0924
   46DOPE    HS 5825   3.809   0.796   3.043  0.9037 -0.9847  4.6323
   46DOPE   O21 5826   3.727   0.943   3.162  1.0044 -0.0270  0.1665
   46DOPE   C21 5827   3.673   0.845   3.227  0.4591  0.6205 -0.4458
   46DOPE   O22 5828   3.677   0.727   3.203 -0.1551 -0.5072  0.2811
   46DOPE   C22 5829   3.574   0.900   3.338 -0.3127  0.4382  0.0693
   46DOPE   H2R 5830   3.494   0.823   3.333 -2.2075  2.0646  2.7630
   46DOPE   H2S 5831   3.528   0.995   3.303  0.5099  1.3754  1.4524
   46DOPE    C3 5832   3.967   0.899   3.136  0.0803  0.8598  0.1921
   46DOPE    HX 5833   4.006   1.002   3.144  1.5666  0.5488 -2.0662
   46DOPE    HY 5834   4.034   0.848   3.063  1.5134  0.7120  1.5666
   46DOPE   O31 5835   3.974   0.828   3.258  0.0159 -0.3318 -0.1564
   46DOPE   C31 5836   4.019   0.702   3.255  0.3354 -0.3683 -0.0996
   46DOPE   O32 5837   4.046   0.638   3.154  0.3022 -0.4660 -0.1325
   46DOPE   C32 5838   4.038   0.652   3.399 -0.5003  0.3908  0.3741
   46DOPE   H2X 5839   4.082   0.550   3.393 -2.1426 -0.2743 -1.3374
   46DOPE   H2Y 5840   4.103   0.725   3.452  3.6439  0.0174 -3.5527
   46DOPE   C23 5841   3.618   0.925   3.484 -1.1042  0.2033 -0.1858
   46DOPE   H3R 5842   3.611   1.032   3.513  2.7247  0.2953  0.9346
   46DOPE   H3S 5843   3.727   0.906   3.485 -0.8638  1.5322  0.0216
   46DOPE   C24 5844   3.546   0.837   3.584 -0.1458 -0.0510  0.4633
   46DOPE   H4R 5845   3.575   0.731   3.565  0.5928 -0.5114  3.7028
   46DOPE   H4S 5846   3.438   0.848   3.563  0.1621  0.3801 -1.1073
   46DOPE   C25 5847   3.585   0.873   3.729 -0.2325 -0.2914  0.5963
   46DOPE   H5R 5848   3.539   0.971   3.755 -2.7933 -1.1955 -0.1782
   46DOPE   H5S 5849   3.696   0.879   3.737 -0.1846  1.4748 -0.7395
   46DOPE   C26 5850   3.542   0.767   3.832 -0.4957  0.7656  0.0251
   46DOPE   H6R 5851   3.578   0.670   3.793 -1.3078  0.0115  1.1167
   46DOPE   H6S 5852   3.432   0.769   3.845 -1.0028  4.5965 -3.0253
   46DOPE   C27 5853   3.608   0.791   3.970  0.6285 -0.1216 -0.3126
   46DOPE   H7R 5854   3.568   0.880   4.023  2.8343  0.0030  1.2979
   46DOPE   H7S 5855   3.715   0.812   3.950  0.4571  3.0719  1.4307
   46DOPE   C28 5856   3.595   0.672   4.070  0.8528  0.2726 -0.0893
   46DOPE   H8R 5857   3.486   0.658   4.085  0.8489 -0.6798 -0.9462
   46DOPE   H8S 5858   3.643   0.725   4.156  1.4531  0.7520 -0.7126
   46DOPE   C29 5859   3.663   0.539   4.034 -0.7192 -0.4700  0.2420
   46DOPE   H9R 5860   3.771   0.538   4.011 -0.2747 -0.6058  2.1767
   46DOPE  C210 5861   3.602   0.419   4.043  0.4629  0.0893 -0.0855
   46DOPE  H10R 5862   3.648   0.329   4.001 -1.6163 -2.5807  2.8659
   46DOPE  C211 5863   3.456   0.376   4.087  0.2068 -1.1509  0.9890
   46DOPE  H11R 5864   3.398   0.466   4.119  0.2820 -0.4407 -0.7959
   46DOPE  H11S 5865   3.457   0.306   4.174  1.2263 -1.7560  0.5139
   46DOPE  C212 5866   3.364   0.308   3.976  0.1082 -0.3841 -0.0540
   46DOPE  H12R 5867   3.275   0.284   4.038  0.8849  0.6429  1.4920
   46DOPE  H12S 5868   3.408   0.225   3.917 -0.1301  0.0283 -0.8336
   46DOPE  C213 5869   3.310   0.413   3.870 -0.0519 -0.1744 -0.6170
   46DOPE  H13R 5870   3.305   0.515   3.912 -0.5242 -0.6298  0.4609
   46DOPE  H13S 5871   3.200   0.400   3.860 -0.4353  0.3077  2.3017
   46DOPE  C214 5872   3.383   0.396   3.733  0.6621  0.6650  0.1783
   46DOPE  H14R 5873   3.338   0.302   3.693 -1.1036  1.8774 -0.7886
   46DOPE  H14S 5874   3.493   0.384   3.744  0.3630 -0.4126  2.4099
   46DOPE  C215 5875   3.343   0.501   3.629  0.2058 -0.7055 -0.6207
   46DOPE  H15R 5876   3.381   0.597   3.671 -0.6229 -1.1546  1.2556
   46DOPE  H15S 5877   3.234   0.519   3.637  0.6783  2.0327  1.1317
   46DOPE  C216 5878   3.390   0.473   3.486  0.2486  0.5571 -0.2136
   46DOPE  H16R 5879   3.359   0.370   3.459 -0.1928  0.4214  0.7710
   46DOPE  H16S 5880   3.500   0.482   3.473  0.7004 -3.3758 -0.1684
   46DOPE  C217 5881   3.310   0.561   3.394  0.6945 -0.2281 -0.0538
   46DOPE  H17R 5882   3.323   0.669   3.415 -0.9812 -0.1665  0.8819
   46DOPE  H17S 5883   3.204   0.558   3.426  0.7173  1.9418  0.3377
   46DOPE  C218 5884   3.307   0.528   3.244 -0.1932  0.4309 -0.2868
   46DOPE  H18R 5885   3.318   0.419   3.230  2.2374  0.7806 -1.4911
   46DOPE  H18S 5886   3.394   0.567   3.188 -0.5098 -0.6073 -1.5405
   46DOPE  H18T 5887   3.214   0.572   3.202  1.2036  2.2608 -1.6107
   46DOPE   C33 5888   3.901   0.639   3.468  0.7279  0.6562  0.2417
   46DOPE   H3X 5889   3.850   0.556   3.416 -0.9613 -0.2038  3.0351
   46DOPE   H3Y 5890   3.844   0.733   3.481 -1.2079 -0.4982  0.4098
   46DOPE   C34 5891   3.912   0.577   3.606 -0.4083  0.7413  0.1545
   46DOPE   H4X 5892   3.991   0.634   3.659 -1.5120  2.1573  0.3209
   46DOPE   H4Y 5893   3.833   0.597   3.682  1.0695 -1.6347  2.5063
   46DOPE   C35 5894   3.940   0.427   3.607  0.5407 -0.0311  0.5107
   46DOPE   H5X 5895   4.044   0.406   3.574  0.4233  1.2958 -0.8194
   46DOPE   H5Y 5896   3.880   0.383   3.525  2.6754 -1.0045 -0.5979
   46DOPE   C36 5897   3.904   0.353   3.729  0.4595  0.3937 -0.3980
   46DOPE   H6X 5898   3.907   0.244   3.709  2.2234  0.3701 -0.2359
   46DOPE   H6Y 5899   3.797   0.361   3.759 -0.0808 -0.8536 -1.9248
   46DOPE   C37 5900   3.995   0.388   3.842  0.5017 -0.3419 -0.3047
   46DOPE   H7X 5901   4.104   0.399   3.821  1.6388 -3.1808  3.1747
   46DOPE   H7Y 5902   3.947   0.482   3.876  2.1305  0.0623  0.9839
   46DOPE   C38 5903   3.978   0.286   3.956  0.2985 -0.5328  0.5613
   46DOPE   H8X 5904   4.038   0.199   3.922 -0.2175 -1.0444  0.9531
   46DOPE   H8Y 5905   3.875   0.246   3.964  0.5672 -1.3373  0.1293
   46DOPE   C39 5906   4.021   0.342   4.091  0.3558  0.0024 -0.0829
   46DOPE   H9X 5907   4.107   0.410   4.084  0.6390 -0.3807 -0.3663
   46DOPE  C310 5908   3.964   0.302   4.207  0.2999 -0.1070  0.1584
   46DOPE  H10X 5909   3.989   0.353   4.301 -1.7438  0.3033  0.5157
   46DOPE  C311 5910   3.854   0.206   4.238  0.5184 -0.6771  0.7589
   46DOPE  H11X 5911   3.754   0.252   4.219  0.8316 -0.2001  0.2351
   46DOPE  H11Y 5912   3.846   0.115   4.176 -2.4810  0.3139 -0.5250
   46DOPE  C312 5913   3.855   0.151   4.378 -0.2689 -0.1709 -0.0842
   46DOPE  H12X 5914   3.791   0.060   4.386 -0.5761 -0.0617 -1.0890
   46DOPE  H12Y 5915   3.806   0.229   4.440 -1.2045  0.5584 -1.6790
   46DOPE  C313 5916   4.001   0.122   4.438  0.1124  0.6724  0.2645
   46DOPE  H13X 5917   4.050   0.049   4.368 -1.7116 -0.1318 -0.2275
   46DOPE  H13Y 5918   4.068   0.210   4.441  0.2606  0.5559  0.4200
   46DOPE  C314 5919   4.003   0.057   4.578 -0.6633 -0.1599 -0.3833
   46DOPE  H14X 5920   3.958  -0.044   4.585  0.7856 -0.8473 -0.5978
   46DOPE  H14Y 5921   3.947   0.130   4.641  1.4796  2.0119 -0.8428
   46DOPE  C315 5922   4.150   0.063   4.632 -0.2011 -0.5176 -0.1986
   46DOPE  H15X 5923   4.179   0.170   4.643 -2.0692 -0.0681  0.8475
   46DOPE  H15Y 5924   4.215   0.018   4.554 -0.8507  1.7847 -2.2127
   46DOPE  C316 5925   4.173  -0.019   4.755  0.3690 -0.1119  0.4678
   46DOPE  H16X 5926   4.282  -0.036   4.771  0.2938 -0.5302  0.5705
   46DOPE  H16Y 5927   4.132  -0.122   4.747  1.0110 -0.4429  1.2049
   46DOPE  C317 5928   4.108   0.036   4.888 -0.4578  0.7497  0.1731
   46DOPE  H17X 5929   4.125   0.145   4.880  1.0232  0.5059 -0.3537
   46DOPE  H17Y 5930   4.000   0.014   4.880 -0.1844 -0.6223 -0.1468
   46DOPE  C318 5931   4.163  -0.021   5.024 -0.0670 -0.1907 -0.4952
   46DOPE  H18X 5932   4.274  -0.016   5.020  0.1129 -0.4921  2.1266
   46DOPE  H18Y 5933   4.129   0.038   5.111 -3.2729 -1.9681 -0.3886
   46DOPE  H18Z 5934   4.129  -0.125   5.045 -1.2683  0.4768  1.0064
   47DOPE     N 5935   0.517   4.218   3.486 -0.0229 -0.5207  0.1222
   47DOPE   HN1 5936   0.484   4.141   3.423  0.9441 -2.3467  1.7348
   47DOPE   HN2 5937   0.532   4.185   3.583  1.1482  1.6196  0.7152
   47DOPE   HN3 5938   0.453   4.299   3.500 -0.5614 -1.2098  1.8445
   47DOPE   C12 5939   0.652   4.256   3.428 -0.5979 -1.3183  1.0326
   47DOPE  H12A 5940   0.724   4.172   3.444 -0.0027 -1.3092 -1.1905
   47DOPE  H12B 5941   0.680   4.345   3.488  0.4079  0.2240 -1.5345
   47DOPE   C11 5942   0.647   4.281   3.276  0.2655 -0.1333 -0.3039
   47DOPE  H11A 5943   0.647   4.180   3.230  2.3126 -1.5021  2.3765
   47DOPE  H11B 5944   0.750   4.303   3.240  0.5590 -1.9692 -0.6513
   47DOPE     P 5945   0.542   4.399   3.077  0.3067 -0.2545 -0.1060
   47DOPE   O13 5946   0.433   4.504   3.057 -0.4265  0.4405  0.2076
   47DOPE   O14 5947   0.526   4.265   3.017  0.7572  0.3271  0.3532
   47DOPE   O11 5948   0.677   4.462   3.042  0.0134 -0.0566 -0.4800
   47DOPE   O12 5949   0.547   4.371   3.230  0.1046 -0.3354  0.0138
   47DOPE    C1 5950   0.717   4.600   3.061 -0.7545  0.0736  0.3716
   47DOPE    HA 5951   0.630   4.663   3.034 -1.2576 -0.3487  0.9728
   47DOPE    HB 5952   0.801   4.608   2.989  0.3075 -0.4926  1.5060
   47DOPE    C2 5953   0.761   4.637   3.205 -0.1294 -0.5800  0.2012
   47DOPE    HS 5954   0.823   4.552   3.240 -2.4376 -2.2612  0.4271
   47DOPE   O21 5955   0.646   4.656   3.282  0.5897  0.0964 -0.4961
   47DOPE   C21 5956   0.651   4.633   3.407  0.0431 -0.5093  0.4019
   47DOPE   O22 5957   0.740   4.571   3.462 -0.5643 -0.2012  0.4422
   47DOPE   C22 5958   0.532   4.705   3.472  0.4923 -0.3459 -0.0737
   47DOPE   H2R 5959   0.441   4.641   3.472 -1.5510  2.3422  0.6576
   47DOPE   H2S 5960   0.501   4.792   3.410 -0.1594 -1.4293 -1.3253
   47DOPE    C3 5961   0.839   4.771   3.202 -0.2673  0.5222 -0.3771
   47DOPE    HX 5962   0.788   4.839   3.130 -0.6060  0.8747  0.1935
   47DOPE    HY 5963   0.937   4.743   3.158  0.6549 -1.3059  2.6056
   47DOPE   O31 5964   0.843   4.827   3.337  0.5924  0.7854  0.0136
   47DOPE   C31 5965   0.958   4.822   3.404 -0.2838  0.3323 -0.9119
   47DOPE   O32 5966   1.060   4.772   3.366  0.6046 -0.1353 -0.1428
   47DOPE   C32 5967   0.941   4.885   3.539 -0.4501  0.1750 -0.4496
   47DOPE   H2X 5968   0.859   4.960   3.535 -1.3815 -0.8149 -0.4274
   47DOPE   H2Y 5969   0.897   4.806   3.603  1.6266 -1.3771 -0.8356
   47DOPE   C23 5970   0.551   4.757   3.618 -0.8369  0.0162 -0.0075
   47DOPE   H3R 5971   0.630   4.834   3.635 -0.8420 -0.0145  0.1598
   47DOPE   H3S 5972   0.575   4.667   3.679 -0.9693 -0.8208 -1.1674
   47DOPE   C24 5973   0.422   4.812   3.670  0.3015 -0.1191 -0.5339
   47DOPE   H4R 5974   0.340   4.738   3.681 -0.9466  1.2732 -0.2940
   47DOPE   H4S 5975   0.382   4.901   3.618  0.8765  0.5035  0.0734
   47DOPE   C25 5976   0.444   4.850   3.816 -1.0221 -0.0068 -1.3146
   47DOPE   H5R 5977   0.540   4.905   3.823 -1.9052  1.5942 -1.2022
   47DOPE   H5S 5978   0.455   4.756   3.874 -3.6582 -0.0947 -0.8079
   47DOPE   C26 5979   0.336   4.942   3.865  0.1470 -0.3146  0.1414
   47DOPE   H6R 5980   0.235   4.898   3.849 -0.8044  1.9008 -0.3362
   47DOPE   H6S 5981   0.343   5.040   3.813  3.2415 -0.3325  0.3015
   47DOPE   C27 5982   0.325   4.972   4.016  0.1354 -0.0530  0.0302
   47DOPE   H7R 5983   0.430   4.988   4.050 -0.4797 -0.2964  2.2135
   47DOPE   H7S 5984   0.285   4.879   4.061  0.3834 -2.0372 -3.4744
   47DOPE   C28 5985   0.236   5.094   4.045  0.1425 -0.2418 -0.0072
   47DOPE   H8R 5986   0.133   5.061   4.020 -0.3301  0.6324  0.7208
   47DOPE   H8S 5987   0.273   5.178   3.982  1.5351 -1.2529 -0.5796
   47DOPE   C29 5988   0.237   5.113   4.195  0.2033  0.6736  0.1811
   47DOPE   H9R 5989   0.338   5.116   4.240  0.6578  0.8592 -0.8352
   47DOPE  C210 5990   0.134   5.132   4.271 -0.4581  0.9423  0.0126
   47DOPE  H10R 5991   0.157   5.154   4.376  0.8960  2.1516 -0.5005
   47DOPE  C211 5992  -0.008   5.138   4.217  0.1708 -0.5714 -0.1981
   47DOPE  H11R 5993  -0.043   5.045   4.168  0.2252 -0.6265 -0.1317
   47DOPE  H11S 5994  -0.011   5.222   4.145  0.7798 -0.3071  0.0834
   47DOPE  C212 5995  -0.110   5.170   4.326  0.2380  0.1334  0.1395
   47DOPE  H12R 5996  -0.120   5.082   4.393 -1.1112  0.9312  1.0350
   47DOPE  H12S 5997  -0.209   5.169   4.275  1.0886 -0.3490 -1.6113
   47DOPE  C213 5998  -0.099   5.301   4.407 -0.0495  0.2562  0.1925
   47DOPE  H13R 5999  -0.096   5.392   4.344  0.8868  0.2781  0.2558
   47DOPE  H13S 6000  -0.003   5.301   4.464 -0.3555  1.5929  0.7279
   47DOPE  C214 6001  -0.208   5.336   4.506 -0.5127 -0.0486  0.0852
   47DOPE  H14R 6002  -0.230   5.247   4.569 -0.6384  0.6174  0.9963
   47DOPE  H14S 6003  -0.304   5.360   4.456 -0.0327  0.2105 -0.7259
   47DOPE  C215 6004  -0.171   5.458   4.599  0.3916  1.0031  0.2611
   47DOPE  H15R 6005  -0.154   5.547   4.535  0.0868  1.3448  0.6446
   47DOPE  H15S 6006  -0.078   5.434   4.655 -1.2838  0.8115  3.1756
   47DOPE  C216 6007  -0.275   5.476   4.709 -0.1356 -0.4662 -0.0123
   47DOPE  H16R 6008  -0.269   5.376   4.757 -0.2984  0.6615  2.5130
   47DOPE  H16S 6009  -0.378   5.486   4.667 -0.1123  1.8046  0.3545
   47DOPE  C217 6010  -0.249   5.577   4.822 -0.2167  0.1233  1.1894
   47DOPE  H17R 6011  -0.224   5.678   4.785  0.8688 -0.3058  0.7318
   47DOPE  H17S 6012  -0.168   5.537   4.886 -1.1107 -1.0528  1.6280
   47DOPE  C218 6013  -0.373   5.581   4.917 -0.3131 -0.4628  0.1637
   47DOPE  H18R 6014  -0.469   5.620   4.877  0.3925  1.0293 -0.1697
   47DOPE  H18S 6015  -0.337   5.650   4.996  1.6171 -0.7880 -0.3930
   47DOPE  H18T 6016  -0.394   5.482   4.964 -2.7949 -0.4472 -0.7666
   47DOPE   C33 6017   1.067   4.945   3.604  0.0849 -0.6150 -0.1111
   47DOPE   H3X 6018   1.117   5.005   3.525 -0.4552 -2.3336 -1.8424
   47DOPE   H3Y 6019   1.125   4.854   3.631  0.0354 -0.7288 -0.3796
   47DOPE   C34 6020   1.037   5.041   3.718  0.3424  0.3459  0.4391
   47DOPE   H4X 6021   0.969   5.119   3.677 -0.1844 -0.4357 -0.2161
   47DOPE   H4Y 6022   0.988   4.969   3.787  0.4930 -1.9134 -1.6643
   47DOPE   C35 6023   1.160   5.117   3.768 -1.2089  0.3120 -0.1775
   47DOPE   H5X 6024   1.203   5.190   3.697 -0.2606 -0.8634 -0.8394
   47DOPE   H5Y 6025   1.239   5.047   3.800 -1.5324 -0.1667 -0.4035
   47DOPE   C36 6026   1.124   5.191   3.894  0.1451  0.2632 -0.1375
   47DOPE   H6X 6027   1.066   5.115   3.950 -1.5690  0.3998 -1.6002
   47DOPE   H6Y 6028   1.062   5.279   3.863  1.0480  1.5720  1.5912
   47DOPE   C37 6029   1.240   5.238   3.985  0.7180 -0.1858  0.1084
   47DOPE   H7X 6030   1.290   5.141   4.005  0.5154 -0.5006 -0.8412
   47DOPE   H7Y 6031   1.312   5.295   3.923  1.2230  0.2619  1.0835
   47DOPE   C38 6032   1.198   5.315   4.110 -0.1777  0.4894 -0.0230
   47DOPE   H8X 6033   1.292   5.326   4.168  1.6186 -0.5073 -2.5396
   47DOPE   H8Y 6034   1.133   5.239   4.159  0.7865  0.8002  1.8105
   47DOPE   C39 6035   1.127   5.440   4.066 -0.3866  0.0949 -0.3555
   47DOPE   H9X 6036   1.027   5.419   4.027 -0.2165 -2.5096  0.4424
   47DOPE  C310 6037   1.171   5.565   4.079  0.8879  0.1245  0.0442
   47DOPE  H10X 6038   1.103   5.646   4.049  1.2817  1.0359  1.5089
   47DOPE  C311 6039   1.296   5.619   4.136  0.3533 -0.7637 -0.4417
   47DOPE  H11X 6040   1.355   5.546   4.197 -1.3815 -1.5040  0.4236
   47DOPE  H11Y 6041   1.357   5.655   4.051  1.1309  0.3889  0.5691
   47DOPE  C312 6042   1.262   5.746   4.222  0.3055  0.3507  0.5612
   47DOPE  H12X 6043   1.167   5.731   4.278  0.0925 -0.5137 -0.0178
   47DOPE  H12Y 6044   1.252   5.832   4.152  1.9976 -0.5276 -0.8200
   47DOPE  C313 6045   1.373   5.779   4.329 -0.3492  0.1284 -0.2114
   47DOPE  H13X 6046   1.469   5.803   4.278 -0.7355  1.2059 -0.4477
   47DOPE  H13Y 6047   1.334   5.867   4.384  0.2903  0.6843 -0.6362
   47DOPE  C314 6048   1.375   5.671   4.440 -0.0747 -0.0769 -0.0067
   47DOPE  H14X 6049   1.439   5.708   4.524 -1.5520  0.5585  0.8792
   47DOPE  H14Y 6050   1.422   5.577   4.405  0.4381  0.4819 -0.8692
   47DOPE  C315 6051   1.239   5.640   4.499  0.0320 -0.1051  0.8862
   47DOPE  H15X 6052   1.177   5.581   4.428 -1.2904  0.4934  1.5111
   47DOPE  H15Y 6053   1.188   5.739   4.497  1.9707  0.9331 -0.1180
   47DOPE  C316 6054   1.244   5.593   4.643  0.7425  0.1532 -0.2120
   47DOPE  H16X 6055   1.146   5.598   4.696  0.7230  1.0273 -0.3180
   47DOPE  H16Y 6056   1.318   5.653   4.699  1.5208 -1.6483  0.7927
   47DOPE  C317 6057   1.285   5.438   4.642 -0.6510 -0.3481 -0.2040
   47DOPE  H17X 6058   1.373   5.425   4.576 -0.0112 -1.9370  0.9116
   47DOPE  H17Y 6059   1.319   5.404   4.742 -1.8764 -2.3558 -0.4231
   47DOPE  C318 6060   1.174   5.350   4.592 -0.6228 -0.5671  0.3653
   47DOPE  H18X 6061   1.079   5.368   4.648 -0.3632  0.6424  0.4327
   47DOPE  H18Y 6062   1.150   5.365   4.484 -1.7647  0.1376  0.7054
   47DOPE  H18Z 6063   1.207   5.244   4.595  1.3508  0.0330  1.2199
   48DOPE     N 6064   6.184   0.794   2.906 -0.0204  0.4524  0.7985
   48DOPE   HN1 6065   6.142   0.709   2.864  0.0050  0.9948 -0.3864
   48DOPE   HN2 6066   6.190   0.865   2.830 -2.8026  0.7301  0.7243
   48DOPE   HN3 6067   6.285   0.775   2.918  0.0423 -1.2442 -1.6498
   48DOPE   C12 6068   6.124   0.866   3.022  0.3703 -0.2040 -0.4160
   48DOPE  H12A 6069   6.112   0.795   3.108  0.5541  0.9099  0.5573
   48DOPE  H12B 6070   6.026   0.908   2.989 -0.5882  0.0989  2.4974
   48DOPE   C11 6071   6.216   0.968   3.089 -0.3256  0.0876 -0.1545
   48DOPE  H11A 6072   6.318   0.926   3.083 -0.7030 -1.0340  0.8264
   48DOPE  H11B 6073   6.183   0.965   3.195  0.3950 -1.2940  0.0514
   48DOPE     P 6074   6.257   1.218   3.096 -0.4322  0.4134 -0.5114
   48DOPE   O13 6075   6.157   1.329   3.101 -1.0534  0.3356  0.2147
   48DOPE   O14 6076   6.387   1.242   3.031  0.5552  0.0286  0.2920
   48DOPE   O11 6077   6.288   1.163   3.252 -0.3806 -0.1660 -0.0996
   48DOPE   O12 6078   6.197   1.090   3.022 -0.2972 -0.0770  0.1045
   48DOPE    C1 6079   6.248   1.254   3.356 -0.0343 -0.0387  0.4520
   48DOPE    HA 6080   6.240   1.189   3.446  1.0711 -0.8737 -0.0232
   48DOPE    HB 6081   6.157   1.313   3.331 -0.1374 -0.7434 -0.9028
   48DOPE    C2 6082   6.364   1.352   3.395  1.1683 -0.5139 -0.1435
   48DOPE    HS 6083   6.380   1.422   3.310  0.5567 -0.4186 -0.1861
   48DOPE   O21 6084   6.483   1.273   3.410 -0.5732  0.3199  0.2956
   48DOPE   C21 6085   6.589   1.348   3.430  0.0154  0.1566  0.2683
   48DOPE   O22 6086   6.599   1.466   3.422 -1.1522  0.6832  0.0607
   48DOPE   C22 6087   6.705   1.256   3.445 -0.0859  0.6844  0.0443
   48DOPE   H2R 6088   6.792   1.320   3.417 -0.5431  1.1684 -0.2833
   48DOPE   H2S 6089   6.685   1.161   3.391 -2.4372 -0.2805  2.4248
   48DOPE    C3 6090   6.325   1.417   3.533 -0.4089  0.1335  0.4580
   48DOPE    HX 6091   6.231   1.476   3.526 -0.1256  0.7828  1.7378
   48DOPE    HY 6092   6.405   1.487   3.566  0.0297 -0.6001  0.9963
   48DOPE   O31 6093   6.312   1.311   3.632 -0.0073 -0.0772 -0.1043
   48DOPE   C31 6094   6.299   1.352   3.759 -0.3354 -0.1287  0.1357
   48DOPE   O32 6095   6.286   1.468   3.800 -0.1249 -0.0875 -0.5087
   48DOPE   C32 6096   6.324   1.229   3.846  0.5097  0.5541 -0.5500
   48DOPE   H2X 6097   6.223   1.194   3.875  0.0073  1.5417 -1.0873
   48DOPE   H2Y 6098   6.386   1.153   3.793  0.7231  0.0752  0.3667
   48DOPE   C23 6099   6.715   1.214   3.592 -0.0994  0.2158  0.0601
   48DOPE   H3R 6100   6.634   1.144   3.621  2.0653 -1.1408  3.3800
   48DOPE   H3S 6101   6.701   1.302   3.659 -1.6025  2.0322 -2.4458
   48DOPE   C24 6102   6.861   1.171   3.615  0.3772 -0.7822  1.0840
   48DOPE   H4R 6103   6.935   1.252   3.602 -2.8053  2.1969  0.0913
   48DOPE   H4S 6104   6.882   1.095   3.536  0.5974 -0.1466  0.5300
   48DOPE   C25 6105   6.879   1.099   3.749  0.2554  0.4656  0.0509
   48DOPE   H5R 6106   6.812   1.011   3.739 -3.4797  3.0852  0.2951
   48DOPE   H5S 6107   6.860   1.163   3.837  1.2302  0.5378  0.2273
   48DOPE   C26 6108   7.029   1.054   3.766  0.4200  0.3930 -0.1384
   48DOPE   H6R 6109   7.075   1.154   3.779  0.3511  0.2447  1.4105
   48DOPE   H6S 6110   7.078   0.996   3.684 -0.7515  1.1527 -1.4160
   48DOPE   C27 6111   7.048   0.976   3.890 -0.8254 -0.0957 -0.1700
   48DOPE   H7R 6112   6.995   0.882   3.867 -3.8420  0.7029  2.7134
   48DOPE   H7S 6113   7.012   1.022   3.985  2.8572  0.8687  0.9196
   48DOPE   C28 6114   7.201   0.943   3.904  0.2218 -0.6774  0.1079
   48DOPE   H8R 6115   7.236   0.927   3.800  2.0007 -0.3710  0.6384
   48DOPE   H8S 6116   7.213   0.843   3.952 -0.8558  0.3591  2.7312
   48DOPE   C29 6117   7.264   1.058   3.982  0.5394  0.7067  0.1251
   48DOPE   H9R 6118   7.266   1.160   3.940  4.3326  0.0329 -1.7670
   48DOPE  C210 6119   7.331   1.030   4.092  0.3954 -0.1875  0.0907
   48DOPE  H10R 6120   7.372   1.118   4.144  2.4191 -1.6758  1.1619
   48DOPE  C211 6121   7.360   0.903   4.160 -0.1594  0.6254  0.0467
   48DOPE  H11R 6122   7.414   0.831   4.095 -1.8115  0.1639 -0.8617
   48DOPE  H11S 6123   7.270   0.841   4.178  0.5058 -1.0645 -1.9841
   48DOPE  C212 6124   7.437   0.918   4.286 -0.1097 -0.6056  1.0307
   48DOPE  H12R 6125   7.366   0.964   4.357  0.3899  1.7210  0.0913
   48DOPE  H12S 6126   7.519   0.987   4.258 -0.2932 -1.0345 -0.6966
   48DOPE  C213 6127   7.494   0.789   4.347  0.2362  0.3321  0.2439
   48DOPE  H13R 6128   7.560   0.741   4.271  0.4889  2.7883 -1.1912
   48DOPE  H13S 6129   7.417   0.710   4.364  1.9222 -1.4731 -0.1021
   48DOPE  C214 6130   7.567   0.817   4.474 -0.1944  0.5835  0.0481
   48DOPE  H14R 6131   7.506   0.884   4.539 -1.7036  0.2784 -0.9889
   48DOPE  H14S 6132   7.668   0.861   4.458 -0.5751  1.1322 -0.9238
   48DOPE  C215 6133   7.595   0.696   4.569 -0.1206 -1.0506  0.1532
   48DOPE  H15R 6134   7.635   0.749   4.658  0.1828  1.0397 -1.1522
   48DOPE  H15S 6135   7.679   0.640   4.523  0.7921  0.2225  0.2324
   48DOPE  C216 6136   7.480   0.603   4.605  0.0531  0.3596 -0.0870
   48DOPE  H16R 6137   7.456   0.548   4.512  0.3973  1.7068 -0.9995
   48DOPE  H16S 6138   7.392   0.662   4.636 -0.7857 -0.5128 -0.7692
   48DOPE  C217 6139   7.510   0.505   4.710  0.5112 -0.0509 -0.4027
   48DOPE  H17R 6140   7.535   0.555   4.806 -0.1151 -1.9742  0.8057
   48DOPE  H17S 6141   7.603   0.453   4.677  2.3377  3.0495 -0.5253
   48DOPE  C218 6142   7.408   0.395   4.733 -0.6960  0.2025  0.1831
   48DOPE  H18R 6143   7.401   0.327   4.645  1.2932  0.7902 -0.5022
   48DOPE  H18S 6144   7.306   0.427   4.761 -1.5780 -2.4501  0.2871
   48DOPE  H18T 6145   7.445   0.330   4.816 -0.0948 -1.6169 -1.4189
   48DOPE   C33 6146   6.398   1.257   3.984  0.1238 -0.0372 -0.0106
   48DOPE   H3X 6147   6.338   1.323   4.050  1.1084  0.7804  0.0830
   48DOPE   H3Y 6148   6.500   1.299   3.967  0.6741 -1.0152  0.8073
   48DOPE   C34 6149   6.415   1.115   4.050  0.8983  0.4832  0.0198
   48DOPE   H4X 6150   6.321   1.057   4.057  0.7747  0.6543 -0.2346
   48DOPE   H4Y 6151   6.492   1.059   3.992  0.4549 -0.5479  0.4002
   48DOPE   C35 6152   6.459   1.141   4.199  0.1160  0.1896  0.7283
   48DOPE   H5X 6153   6.381   1.198   4.254  0.2069 -2.0749  3.4310
   48DOPE   H5Y 6154   6.554   1.198   4.212 -0.3075  1.3714 -0.9375
   48DOPE   C36 6155   6.486   1.007   4.270  0.2872  1.1545  0.0047
   48DOPE   H6X 6156   6.561   0.947   4.215 -0.5487 -0.8350  0.9452
   48DOPE   H6Y 6157   6.394   0.946   4.281  1.2938 -0.4287 -0.1206
   48DOPE   C37 6158   6.540   1.022   4.419  0.2711  0.5376 -0.6302
   48DOPE   H7X 6159   6.581   0.926   4.456  0.3128  1.1172  0.8856
   48DOPE   H7Y 6160   6.622   1.097   4.419  2.1629 -1.4106  1.1240
   48DOPE   C38 6161   6.422   1.062   4.522 -0.0062 -0.0078 -0.0794
   48DOPE   H8X 6162   6.365   1.150   4.483  0.1657  0.1183 -0.0470
   48DOPE   H8Y 6163   6.474   1.098   4.613 -0.0627 -0.4607  0.1326
   48DOPE   C39 6164   6.321   0.954   4.548 -0.5403 -0.0192 -0.2270
   48DOPE   H9X 6165   6.318   0.876   4.471  1.0111 -0.8054  0.4723
   48DOPE  C310 6166   6.236   0.934   4.651 -0.3717  0.9196  0.0255
   48DOPE  H10X 6167   6.164   0.852   4.636  0.9333 -0.0564 -1.1410
   48DOPE  C311 6168   6.218   1.029   4.766 -0.7076 -0.6185 -0.6723
   48DOPE  H11X 6169   6.234   1.134   4.732  1.2683 -1.1893 -1.6890
   48DOPE  H11Y 6170   6.118   1.023   4.814 -0.0229  2.2968  1.4309
   48DOPE  C312 6171   6.322   0.998   4.881  0.2822  0.4817  0.4331
   48DOPE  H12X 6172   6.305   1.064   4.968 -0.5730  1.0361 -0.1416
   48DOPE  H12Y 6173   6.424   1.023   4.844  0.5347 -1.3907 -0.2702
   48DOPE  C313 6174   6.325   0.861   4.938 -0.0805  0.7372  0.2511
   48DOPE  H13X 6175   6.224   0.831   4.974  0.1500 -0.6713 -0.2099
   48DOPE  H13Y 6176   6.348   0.785   4.860 -1.0855  1.4626 -0.7830
   48DOPE  C314 6177   6.428   0.846   5.052  0.3685 -0.0391  0.4228
   48DOPE  H14X 6178   6.428   0.936   5.117 -2.5206 -0.1233  0.6636
   48DOPE  H14Y 6179   6.526   0.832   5.000 -0.4041  0.1039 -1.1435
   48DOPE  C315 6180   6.399   0.723   5.140 -0.6431  0.1097 -0.0948
   48DOPE  H15X 6181   6.387   0.643   5.065 -0.7440  0.0635 -0.0297
   48DOPE  H15Y 6182   6.306   0.748   5.196 -0.5450  0.8732 -0.2595
   48DOPE  C316 6183   6.502   0.694   5.245 -0.3680 -0.1473  0.5669
   48DOPE  H16X 6184   6.592   0.665   5.187  0.4737 -1.0214  2.2602
   48DOPE  H16Y 6185   6.467   0.602   5.298 -0.7171 -0.0488  0.5094
   48DOPE  C317 6186   6.546   0.803   5.344  0.7905  0.4402  0.3479
   48DOPE  H17X 6187   6.596   0.886   5.289 -0.0205  0.7900  0.1313
   48DOPE  H17Y 6188   6.449   0.851   5.370  1.5904  2.9231 -0.9450
   48DOPE  C318 6189   6.640   0.756   5.455 -0.6719  0.2795 -0.2570
   48DOPE  H18X 6190   6.618   0.661   5.507  0.6951 -0.1815 -0.4743
   48DOPE  H18Y 6191   6.739   0.726   5.416 -0.6082  0.6961 -0.4258
   48DOPE  H18Z 6192   6.663   0.832   5.534  0.8843 -0.3695 -0.0528
   49DOPE     N 6193   1.923   4.870   2.520 -0.2361 -0.9666 -0.3439
   49DOPE   HN1 6194   1.895   4.875   2.420  1.7113  1.0626 -0.8593
   49DOPE   HN2 6195   1.990   4.794   2.543 -0.2213 -0.5170  1.2210
   49DOPE   HN3 6196   1.834   4.863   2.575  1.2177  0.8295  2.4892
   49DOPE   C12 6197   1.986   5.004   2.557 -0.0504  0.1876  0.0134
   49DOPE  H12A 6198   1.913   5.081   2.527 -0.8846 -1.1553 -1.5550
   49DOPE  H12B 6199   2.076   5.010   2.492 -0.6227 -1.7643 -1.0357
   49DOPE   C11 6200   2.010   5.026   2.705  0.4514  0.0382 -0.2828
   49DOPE  H11A 6201   1.911   5.028   2.756  1.1743  2.2245  1.1778
   49DOPE  H11B 6202   2.051   5.128   2.720  1.1647 -0.2056 -0.5233
   49DOPE     P 6203   2.166   4.942   2.896 -0.2803 -0.0326  0.0805
   49DOPE   O13 6204   2.288   5.023   2.873  0.2936  0.2846 -0.4288
   49DOPE   O14 6205   2.184   4.802   2.949  0.8477 -0.3749 -0.2721
   49DOPE   O11 6206   2.057   5.021   2.984 -0.2655 -0.3274 -0.2530
   49DOPE   O12 6207   2.088   4.924   2.759  0.0356 -0.0057  1.0797
   49DOPE    C1 6208   1.938   4.954   3.004 -0.1382  0.1165 -0.2955
   49DOPE    HA 6209   1.952   4.877   3.083  1.8681 -1.2275 -1.8567
   49DOPE    HB 6210   1.897   4.919   2.907  2.0560  1.4453 -1.7787
   49DOPE    C2 6211   1.839   5.060   3.059  1.4229 -0.4730 -0.8072
   49DOPE    HS 6212   1.834   5.151   2.996  0.6470  0.2403  0.2583
   49DOPE   O21 6213   1.881   5.105   3.194 -0.5358 -0.3823  0.5287
   49DOPE   C21 6214   1.820   5.214   3.233  0.6547  0.3890 -0.2711
   49DOPE   O22 6215   1.735   5.275   3.173 -0.6020  0.3738  0.0354
   49DOPE   C22 6216   1.858   5.261   3.377 -0.0302 -0.3796  0.6765
   49DOPE   H2R 6217   1.870   5.174   3.445 -2.2999  0.0663  1.7388
   49DOPE   H2S 6218   1.764   5.304   3.419  0.9838  1.7923  0.8618
   49DOPE    C3 6219   1.690   4.995   3.052 -0.4201 -0.9150  0.2518
   49DOPE    HX 6220   1.671   4.970   2.945  0.4255 -0.7103  0.0475
   49DOPE    HY 6221   1.612   5.066   3.085  2.1563  0.6859  3.4475
   49DOPE   O31 6222   1.684   4.869   3.121 -0.1272  0.0225  0.5796
   49DOPE   C31 6223   1.657   4.889   3.248 -0.2199  0.0438  0.3252
   49DOPE   O32 6224   1.642   4.996   3.298  0.1157  0.1528  0.1511
   49DOPE   C32 6225   1.668   4.750   3.316 -0.1951  0.3528 -0.9287
   49DOPE   H2X 6226   1.625   4.668   3.256  1.4232 -3.2240  2.3647
   49DOPE   H2Y 6227   1.775   4.721   3.325 -0.7283 -1.6912 -0.6523
   49DOPE   C23 6228   1.976   5.359   3.379  0.5265 -0.4246  0.2391
   49DOPE   H3R 6229   1.953   5.450   3.320  0.4341  0.1731  1.1744
   49DOPE   H3S 6230   2.065   5.314   3.332  0.9477  1.8512 -1.3070
   49DOPE   C24 6231   2.016   5.392   3.525 -0.2077 -0.0994 -0.1593
   49DOPE   H4R 6232   1.947   5.440   3.597 -1.2954  0.0501 -1.2759
   49DOPE   H4S 6233   2.102   5.459   3.501 -1.7063  1.8407 -0.3140
   49DOPE   C25 6234   2.086   5.282   3.606  0.3935  0.2757  0.1929
   49DOPE   H5R 6235   2.118   5.209   3.528 -0.4667  0.9658 -0.8501
   49DOPE   H5S 6236   2.015   5.228   3.671  1.6376  0.9050  2.1556
   49DOPE   C26 6237   2.201   5.319   3.700 -0.6156  0.0398  0.0420
   49DOPE   H6R 6238   2.162   5.381   3.783  0.9698  0.5596  0.4310
   49DOPE   H6S 6239   2.265   5.387   3.640 -0.8997  0.5625  0.3327
   49DOPE   C27 6240   2.274   5.203   3.759 -0.1065 -0.1302  0.1163
   49DOPE   H7R 6241   2.317   5.127   3.690  0.3048 -1.4524  1.7484
   49DOPE   H7S 6242   2.194   5.137   3.800  0.5199 -0.1843  1.2926
   49DOPE   C28 6243   2.393   5.215   3.856  0.0955  0.0566 -0.0379
   49DOPE   H8R 6244   2.421   5.111   3.885  4.4293  0.8513 -0.5731
   49DOPE   H8S 6245   2.369   5.274   3.947  1.0910  1.9038 -0.9221
   49DOPE   C29 6246   2.515   5.283   3.804  0.6187  0.3925  0.0670
   49DOPE   H9R 6247   2.536   5.261   3.698  1.3497  0.5198  0.1819
   49DOPE  C210 6248   2.596   5.369   3.862  0.7121 -0.0862 -0.0357
   49DOPE  H10R 6249   2.669   5.422   3.798 -0.6903  1.2913 -0.5692
   49DOPE  C211 6250   2.591   5.428   3.998 -0.0921 -0.3002  0.0058
   49DOPE  H11R 6251   2.694   5.437   4.037  0.6277  0.7948 -2.0146
   49DOPE  H11S 6252   2.530   5.357   4.059 -0.3383 -1.2356 -1.2818
   49DOPE  C212 6253   2.523   5.572   3.996  0.1281  0.0796 -0.0535
   49DOPE  H12R 6254   2.415   5.556   3.977 -0.4478  2.0792  1.2000
   49DOPE  H12S 6255   2.570   5.624   3.909  0.8239  0.3232  0.4602
   49DOPE  C213 6256   2.540   5.653   4.125 -0.4302 -0.4836  0.1341
   49DOPE  H13R 6257   2.646   5.668   4.156 -0.7490 -0.0874  1.0747
   49DOPE  H13S 6258   2.493   5.592   4.205  0.7001 -1.2675  0.2204
   49DOPE  C214 6259   2.459   5.782   4.133 -0.6699 -0.0350  0.6395
   49DOPE  H14R 6260   2.361   5.764   4.084  0.4375 -0.0290 -1.7328
   49DOPE  H14S 6261   2.508   5.866   4.078 -3.1230  2.4400  1.9722
   49DOPE  C215 6262   2.449   5.839   4.271 -0.5927 -0.1691  0.0047
   49DOPE  H15R 6263   2.549   5.838   4.320 -1.2563 -1.9962  1.4124
   49DOPE  H15S 6264   2.402   5.767   4.341 -0.1269 -0.0341  0.4606
   49DOPE  C216 6265   2.382   5.974   4.304  0.0478  1.3019  0.0280
   49DOPE  H16R 6266   2.274   5.949   4.297  0.2215  0.7539 -0.8075
   49DOPE  H16S 6267   2.417   6.052   4.233  2.4820  0.3917  0.1432
   49DOPE  C217 6268   2.392   6.025   4.447 -0.7003  0.5021 -0.2372
   49DOPE  H17R 6269   2.502   6.033   4.460 -0.8022  0.8054  0.4646
   49DOPE  H17S 6270   2.352   5.951   4.520 -0.7659  0.2188 -0.5537
   49DOPE  C218 6271   2.328   6.156   4.465 -0.2483  0.3119 -0.4088
   49DOPE  H18R 6272   2.239   6.166   4.399  0.8048 -0.1481 -1.9408
   49DOPE  H18S 6273   2.390   6.240   4.428  0.1717  0.4290  0.5328
   49DOPE  H18T 6274   2.290   6.176   4.568 -2.7651  0.7155 -1.3368
   49DOPE   C33 6275   1.591   4.746   3.444  0.6618 -0.3775 -0.2140
   49DOPE   H3X 6276   1.542   4.648   3.464 -0.7035 -0.0790 -1.8310
   49DOPE   H3Y 6277   1.504   4.815   3.443  1.4472  0.6386 -1.1354
   49DOPE   C34 6278   1.681   4.783   3.556 -0.1203 -0.8790 -0.6709
   49DOPE   H4X 6279   1.743   4.699   3.593  1.4340 -0.2345 -1.7340
   49DOPE   H4Y 6280   1.748   4.858   3.510 -1.3782  1.3808  0.9583
   49DOPE   C35 6281   1.605   4.866   3.663  0.1281 -0.2399  1.3110
   49DOPE   H5X 6282   1.557   4.950   3.609  0.6537 -1.2250 -0.7510
   49DOPE   H5Y 6283   1.685   4.904   3.731  1.1678 -0.6894  0.3607
   49DOPE   C36 6284   1.502   4.789   3.748  0.0760 -0.3634  0.4216
   49DOPE   H6X 6285   1.531   4.683   3.755  1.2104 -0.0976 -0.0367
   49DOPE   H6Y 6286   1.402   4.787   3.699 -0.1450 -1.5225  0.9009
   49DOPE   C37 6287   1.460   4.845   3.886  0.2609 -0.3582  0.1769
   49DOPE   H7X 6288   1.542   4.821   3.957  1.9054 -2.2076 -2.2041
   49DOPE   H7Y 6289   1.440   4.953   3.873 -2.6056 -0.8078  0.1212
   49DOPE   C38 6290   1.328   4.791   3.936  0.1798 -0.0751 -0.0954
   49DOPE   H8X 6291   1.243   4.802   3.865 -0.3821 -0.7680  0.4533
   49DOPE   H8Y 6292   1.304   4.838   4.033 -3.0182 -1.7602  0.0801
   49DOPE   C39 6293   1.354   4.645   3.958 -0.1224  0.4782 -0.3920
   49DOPE   H9X 6294   1.371   4.584   3.868 -3.0098 -0.7637 -0.1895
   49DOPE  C310 6295   1.344   4.583   4.082  0.4228  0.2182 -0.2233
   49DOPE  H10X 6296   1.377   4.478   4.084 -0.2663 -0.0420 -1.3259
   49DOPE  C311 6297   1.309   4.637   4.223  0.4171 -0.1080  0.3687
   49DOPE  H11X 6298   1.242   4.725   4.210  1.0049  0.3977  0.7188
   49DOPE  H11Y 6299   1.249   4.560   4.276  1.2701 -0.5803  0.6599
   49DOPE  C312 6300   1.429   4.664   4.325  0.5840  0.1482  0.2237
   49DOPE  H12X 6301   1.494   4.575   4.339  1.4962  1.0920  2.6187
   49DOPE  H12Y 6302   1.388   4.696   4.424 -2.7602  1.9313 -1.5572
   49DOPE  C313 6303   1.518   4.776   4.261 -0.4717  0.5410 -0.3687
   49DOPE  H13X 6304   1.550   4.744   4.159  0.4179 -2.6865  0.8089
   49DOPE  H13Y 6305   1.461   4.870   4.247 -0.1686  0.7653 -0.1042
   49DOPE  C314 6306   1.645   4.799   4.344 -0.2739  0.0593 -0.5375
   49DOPE  H14X 6307   1.728   4.844   4.286  0.6742  2.0701  2.1657
   49DOPE  H14Y 6308   1.667   4.698   4.385 -2.7290 -0.4141 -0.2198
   49DOPE  C315 6309   1.625   4.870   4.489 -0.4588  0.7392  0.1211
   49DOPE  H15X 6310   1.725   4.869   4.536 -1.7938  0.6615  3.1613
   49DOPE  H15Y 6311   1.553   4.813   4.551 -0.3385  0.9808  0.4811
   49DOPE  C316 6312   1.571   5.007   4.478 -0.2328 -0.1240  0.0131
   49DOPE  H16X 6313   1.477   5.015   4.419 -0.4522  1.2232  0.5147
   49DOPE  H16Y 6314   1.647   5.070   4.428 -0.5102  0.9057  0.8670
   49DOPE  C317 6315   1.544   5.073   4.619  0.6983  0.2271 -0.1978
   49DOPE  H17X 6316   1.618   5.030   4.690 -0.7189  1.0791  1.9083
   49DOPE  H17Y 6317   1.545   5.184   4.614 -2.8201  0.3849 -0.1996
   49DOPE  C318 6318   1.411   5.039   4.683  0.2228 -0.3002  0.6501
   49DOPE  H18X 6319   1.411   5.080   4.787  0.1594 -0.0434  0.5501
   49DOPE  H18Y 6320   1.322   5.077   4.628  0.7688 -0.3185 -0.2523
   49DOPE  H18Z 6321   1.392   4.930   4.694 -2.2862 -0.0644 -0.5893
   50DOPE     N 6322   7.157   4.410   2.879 -0.1531  0.0662  1.1293
   50DOPE   HN1 6323   7.107   4.425   2.970 -1.6048  2.0347  0.0951
   50DOPE   HN2 6324   7.149   4.308   2.865 -0.0748  0.2510 -0.3887
   50DOPE   HN3 6325   7.257   4.434   2.893  0.0536  0.8566 -1.3196
   50DOPE   C12 6326   7.109   4.500   2.769  0.2386 -0.5141 -1.0838
   50DOPE  H12A 6327   6.998   4.496   2.770  0.0936  1.3270  2.2073
   50DOPE  H12B 6328   7.154   4.465   2.674  0.1583 -2.3103 -0.5014
   50DOPE   C11 6329   7.153   4.653   2.791  1.6310 -0.2507  0.2227
   50DOPE  H11A 6330   7.090   4.721   2.730 -2.1867  0.4202  4.3779
   50DOPE  H11B 6331   7.261   4.661   2.765  1.5470  1.9923  0.4255
   50DOPE     P 6332   7.012   4.749   2.985 -0.0426  0.1701 -0.1162
   50DOPE   O13 6333   6.914   4.633   2.980 -0.0258  0.3580  0.4766
   50DOPE   O14 6334   6.985   4.885   2.925  0.7102 -0.1782  0.1377
   50DOPE   O11 6335   7.059   4.770   3.137  0.3260 -0.2174 -0.3374
   50DOPE   O12 6336   7.144   4.695   2.926  0.1610 -0.3248  0.1204
   50DOPE    C1 6337   7.110   4.658   3.207  0.4648 -0.1935  0.4475
   50DOPE    HA 6338   7.175   4.587   3.151 -0.6567 -1.5707  0.8246
   50DOPE    HB 6339   7.031   4.588   3.241 -2.6239  1.9895 -1.6037
   50DOPE    C2 6340   7.185   4.695   3.340  0.0181  1.0363  0.5600
   50DOPE    HS 6341   7.174   4.609   3.409  0.3983  0.9695  0.5400
   50DOPE   O21 6342   7.139   4.818   3.398 -0.0707 -0.3342  0.4272
   50DOPE   C21 6343   7.020   4.809   3.456  0.9888 -0.2368  0.7779
   50DOPE   O22 6344   6.955   4.707   3.468 -0.2103  0.5810 -0.4179
   50DOPE   C22 6345   6.967   4.945   3.488 -0.3599 -1.0210  0.2830
   50DOPE   H2R 6346   6.953   4.992   3.388  0.1245 -0.4062  0.4966
   50DOPE   H2S 6347   7.040   5.010   3.542  0.5348 -1.0614 -0.8527
   50DOPE    C3 6348   7.339   4.712   3.315  0.3526 -0.1959 -0.6827
   50DOPE    HX 6349   7.340   4.796   3.243  0.3580  0.0575 -0.3897
   50DOPE    HY 6350   7.381   4.623   3.264 -0.2403 -0.4964 -0.6590
   50DOPE   O31 6351   7.409   4.762   3.438  0.0803  0.3611 -0.5509
   50DOPE   C31 6352   7.450   4.653   3.511 -0.3024  0.4576 -0.0629
   50DOPE   O32 6353   7.441   4.538   3.460 -0.4174  0.7923  0.6153
   50DOPE   C32 6354   7.498   4.696   3.650 -0.1119 -0.0057  0.3678
   50DOPE   H2X 6355   7.598   4.742   3.636 -0.9136  1.6707 -0.0856
   50DOPE   H2Y 6356   7.428   4.774   3.685 -0.8031 -0.6066  0.3458
   50DOPE   C23 6357   6.838   4.939   3.571 -0.3763  0.1712 -0.2116
   50DOPE   H3R 6358   6.756   4.874   3.532  0.5745 -0.7039 -0.8197
   50DOPE   H3S 6359   6.794   5.041   3.572  1.5016  1.0701 -1.5404
   50DOPE   C24 6360   6.868   4.899   3.718 -0.4522  0.0392 -0.0835
   50DOPE   H4R 6361   6.957   4.932   3.775 -0.8377  0.0874  0.5062
   50DOPE   H4S 6362   6.884   4.790   3.705 -2.4437 -0.2450 -0.4813
   50DOPE   C25 6363   6.744   4.919   3.809 -0.2992  0.5456 -0.4789
   50DOPE   H5R 6364   6.659   4.880   3.750 -1.6695 -0.1680  1.8737
   50DOPE   H5S 6365   6.724   5.027   3.826  0.3861  0.7848 -1.1404
   50DOPE   C26 6366   6.740   4.850   3.940  0.1309  0.5766 -0.0985
   50DOPE   H6R 6367   6.841   4.864   3.983  0.3339  0.5654 -0.5636
   50DOPE   H6S 6368   6.739   4.741   3.915  1.0521  0.9966 -2.1291
   50DOPE   C27 6369   6.622   4.904   4.023  0.3464  0.5623 -0.5673
   50DOPE   H7R 6370   6.533   4.906   3.956  0.3892  1.8311 -0.5980
   50DOPE   H7S 6371   6.646   5.011   4.040 -0.4874  0.3139  2.7429
   50DOPE   C28 6372   6.593   4.839   4.163 -0.2467 -0.0046  0.4221
   50DOPE   H8R 6373   6.601   4.731   4.140 -0.8391  0.0957 -0.3059
   50DOPE   H8S 6374   6.488   4.853   4.197 -0.1037  2.7248  0.0165
   50DOPE   C29 6375   6.690   4.889   4.265 -0.2795 -0.5753 -0.0604
   50DOPE   H9R 6376   6.784   4.915   4.215 -0.4901 -0.9897 -0.6754
   50DOPE  C210 6377   6.671   4.912   4.394 -0.0750 -0.1888 -0.1049
   50DOPE  H10R 6378   6.747   4.964   4.455 -0.3668  1.1913 -0.8588
   50DOPE  C211 6379   6.540   4.892   4.477  0.4282 -0.3179 -0.3816
   50DOPE  H11R 6380   6.548   4.819   4.560 -0.2002  2.4424  2.2703
   50DOPE  H11S 6381   6.458   4.847   4.417 -0.4478 -1.3323  1.4924
   50DOPE  C212 6382   6.475   5.018   4.539 -0.3414  0.1096 -0.1450
   50DOPE  H12R 6383   6.443   5.087   4.458  0.1182  1.6917  0.9736
   50DOPE  H12S 6384   6.539   5.075   4.610 -0.9310  1.3296 -0.5656
   50DOPE  C213 6385   6.357   4.974   4.627  0.2328 -0.1707  0.8166
   50DOPE  H13R 6386   6.390   4.904   4.707 -1.2976 -1.7842  0.0892
   50DOPE  H13S 6387   6.271   4.922   4.582  0.5029  0.4892 -0.5235
   50DOPE  C214 6388   6.285   5.098   4.698 -0.2295  0.5964  0.1343
   50DOPE  H14R 6389   6.254   5.172   4.622 -3.2180  0.5389  1.1614
   50DOPE  H14S 6390   6.363   5.141   4.765  1.5697 -2.8185  0.4648
   50DOPE  C215 6391   6.171   5.051   4.795 -0.0535 -0.8718  0.0466
   50DOPE  H15R 6392   6.214   5.013   4.890 -0.8139 -0.4441  0.5724
   50DOPE  H15S 6393   6.117   4.971   4.740  0.5366  0.8011 -3.2251
   50DOPE  C216 6394   6.074   5.170   4.824 -0.2032 -0.7646 -0.2461
   50DOPE  H16R 6395   6.053   5.221   4.728  0.2098  2.5640  1.2966
   50DOPE  H16S 6396   6.119   5.249   4.888  0.2734 -0.9349 -0.3708
   50DOPE  C217 6397   5.949   5.124   4.883 -0.0106  0.9876 -0.1165
   50DOPE  H17R 6398   5.924   5.024   4.841  3.9601 -0.1328 -0.2373
   50DOPE  H17S 6399   5.866   5.191   4.853  1.7583  2.3695 -2.1992
   50DOPE  C218 6400   5.946   5.118   5.036 -0.0092 -0.0749 -0.1448
   50DOPE  H18R 6401   5.845   5.093   5.076  1.4707 -0.3591  3.8388
   50DOPE  H18S 6402   5.970   5.210   5.093 -0.8860  0.6419 -0.9042
   50DOPE  H18T 6403   6.013   5.037   5.070  0.4821  1.1168  1.9476
   50DOPE   C33 6404   7.511   4.587   3.761  0.2839 -0.0732 -0.5948
   50DOPE   H3X 6405   7.578   4.504   3.732 -1.1073 -1.6864  0.6215
   50DOPE   H3Y 6406   7.410   4.543   3.772  0.3338 -0.4276 -1.4989
   50DOPE   C34 6407   7.550   4.653   3.896 -0.1584 -0.0787  0.0168
   50DOPE   H4X 6408   7.650   4.698   3.876 -0.1773  0.1234  0.3743
   50DOPE   H4Y 6409   7.482   4.739   3.913  1.5292  1.8113 -2.1456
   50DOPE   C35 6410   7.543   4.546   4.007 -0.1752  0.6003 -0.1748
   50DOPE   H5X 6411   7.595   4.454   3.973 -2.6815 -0.8771 -0.2615
   50DOPE   H5Y 6412   7.437   4.516   4.024  0.2680 -0.2874  1.1337
   50DOPE   C36 6413   7.617   4.602   4.128  0.0869 -0.1783 -0.4129
   50DOPE   H6X 6414   7.721   4.626   4.098  1.6162 -4.1125  1.1589
   50DOPE   H6Y 6415   7.627   4.530   4.212  1.4388 -3.3705 -3.0766
   50DOPE   C37 6416   7.568   4.739   4.180  0.1501 -0.7517 -0.1533
   50DOPE   H7X 6417   7.623   4.774   4.270 -0.3540 -0.7268  0.1503
   50DOPE   H7Y 6418   7.580   4.810   4.095  0.1724  0.3776  0.7695
   50DOPE   C38 6419   7.420   4.747   4.215 -0.1119  0.1306  0.0729
   50DOPE   H8X 6420   7.350   4.730   4.130 -0.3819  1.4297  0.0163
   50DOPE   H8Y 6421   7.390   4.846   4.255  0.8519  1.0537 -1.3872
   50DOPE   C39 6422   7.390   4.642   4.319  0.2584  0.1724 -0.3566
   50DOPE   H9X 6423   7.421   4.545   4.276  0.4947 -0.9025  2.0777
   50DOPE  C310 6424   7.332   4.662   4.442  0.4926  0.5821  0.6482
   50DOPE  H10X 6425   7.307   4.578   4.509  0.1472  0.8636  0.8748
   50DOPE  C311 6426   7.291   4.793   4.503  0.5816 -0.0526 -0.5086
   50DOPE  H11X 6427   7.292   4.794   4.614 -2.4163 -1.9754 -0.3732
   50DOPE  H11Y 6428   7.365   4.872   4.475  0.9540 -0.1269  0.2304
   50DOPE  C312 6429   7.150   4.838   4.461  0.5036 -0.0192  0.0904
   50DOPE  H12X 6430   7.153   4.831   4.350 -0.3717  1.4501 -0.0530
   50DOPE  H12Y 6431   7.130   4.945   4.483 -3.1864  0.0071 -2.3478
   50DOPE  C313 6432   7.032   4.762   4.510  0.3863  0.2273 -0.3074
   50DOPE  H13X 6433   6.942   4.785   4.450  0.2089 -0.2239 -0.2194
   50DOPE  H13Y 6434   7.051   4.655   4.487  0.9639  0.4238 -0.7611
   50DOPE  C314 6435   7.015   4.781   4.659 -0.7448  0.1441 -0.1048
   50DOPE  H14X 6436   7.020   4.889   4.683  1.7582  0.2956 -1.0666
   50DOPE  H14Y 6437   7.095   4.728   4.714 -0.9119  0.0472  0.0477
   50DOPE  C315 6438   6.874   4.738   4.705 -0.5036  0.3569  0.4136
   50DOPE  H15X 6439   6.852   4.640   4.656  0.1716  0.5524 -0.2977
   50DOPE  H15Y 6440   6.800   4.803   4.653  0.8623 -0.4647 -2.8543
   50DOPE  C316 6441   6.865   4.726   4.858 -0.5928  0.0149  0.2440
   50DOPE  H16X 6442   6.918   4.816   4.896 -1.4500  0.2696  0.8598
   50DOPE  H16Y 6443   6.917   4.635   4.894  0.3638  0.3751 -0.1716
   50DOPE  C317 6444   6.722   4.735   4.917 -0.8109 -0.2849  0.1349
   50DOPE  H17X 6445   6.662   4.649   4.879  0.3869 -0.8045 -0.6281
   50DOPE  H17Y 6446   6.731   4.719   5.026  0.8829  1.1614  0.2505
   50DOPE  C318 6447   6.655   4.874   4.891 -0.1673  1.3318 -0.1765
   50DOPE  H18X 6448   6.702   4.953   4.952  0.4622  0.9843 -0.2113
   50DOPE  H18Y 6449   6.659   4.907   4.785 -0.9083  1.1008 -0.2862
   50DOPE  H18Z 6450   6.547   4.871   4.917 -0.1856 -2.2035 -0.1227
   51DOPE     N 6451   1.721   5.719   2.896 -0.1943  0.4020 -0.3180
   51DOPE   HN1 6452   1.778   5.705   2.810 -1.6341 -2.1405 -0.9716
   51DOPE   HN2 6453   1.746   5.643   2.964  0.1134 -0.6155 -1.5292
   51DOPE   HN3 6454   1.622   5.700   2.870 -1.1532  0.8752  2.5859
   51DOPE   C12 6455   1.754   5.852   2.961 -0.2719  0.1327  0.1795
   51DOPE  H12A 6456   1.856   5.845   3.002 -0.2924 -1.4764  0.0208
   51DOPE  H12B 6457   1.687   5.864   3.049  1.7215 -0.4184  1.8252
   51DOPE   C11 6458   1.730   5.968   2.866 -0.2980 -0.3582  0.3574
   51DOPE  H11A 6459   1.768   5.946   2.764 -1.3513 -2.3239  0.3363
   51DOPE  H11B 6460   1.770   6.066   2.897  0.0528 -0.2141 -0.5158
   51DOPE     P 6461   1.525   6.109   2.771 -0.2795 -0.1014 -0.3612
   51DOPE   O13 6462   1.408   6.169   2.837  0.1903  0.3613  0.2761
   51DOPE   O14 6463   1.509   6.085   2.628  0.6997 -0.4589 -0.1430
   51DOPE   O11 6464   1.645   6.215   2.783  0.1202  1.1307 -0.2727
   51DOPE   O12 6465   1.584   5.985   2.858 -0.1558 -0.2622  0.5257
   51DOPE    C1 6466   1.610   6.354   2.799 -0.0748  0.9553  0.2535
   51DOPE    HA 6467   1.502   6.371   2.821 -0.4771 -1.4491  0.3798
   51DOPE    HB 6468   1.635   6.407   2.704  0.7172 -1.2558 -0.8363
   51DOPE    C2 6469   1.684   6.423   2.915 -0.0168  0.2829 -0.9704
   51DOPE    HS 6470   1.636   6.520   2.939 -0.1045 -0.0260  0.1668
   51DOPE   O21 6471   1.818   6.454   2.877 -0.6043  0.5712  0.0266
   51DOPE   C21 6472   1.827   6.563   2.798 -0.4913 -0.8092 -0.2227
   51DOPE   O22 6473   1.738   6.645   2.779  0.0566  0.2004 -0.1322
   51DOPE   C22 6474   1.957   6.561   2.719 -0.0589 -0.0616 -0.1911
   51DOPE   H2R 6475   1.923   6.559   2.614 -3.7000 -1.0356  0.8423
   51DOPE   H2S 6476   2.006   6.462   2.734  0.7468  0.3298 -0.2265
   51DOPE    C3 6477   1.680   6.345   3.051  0.2360  0.5575  0.1635
   51DOPE    HX 6478   1.732   6.409   3.126  2.8727  0.0598 -1.1105
   51DOPE    HY 6479   1.746   6.255   3.048 -1.7121 -0.9937  1.2414
   51DOPE   O31 6480   1.547   6.314   3.092  0.0031  0.4065 -0.3048
   51DOPE   C31 6481   1.534   6.205   3.163 -0.4485 -0.1995  0.2159
   51DOPE   O32 6482   1.628   6.130   3.197  0.0976 -0.0504 -0.6646
   51DOPE   C32 6483   1.393   6.186   3.219  0.4709  0.1221  0.5191
   51DOPE   H2X 6484   1.337   6.168   3.125  0.8384  1.0209  0.1167
   51DOPE   H2Y 6485   1.397   6.088   3.271  0.2272  0.1548  0.6004
   51DOPE   C23 6486   2.055   6.668   2.762 -0.9968 -0.3585 -0.9656
   51DOPE   H3R 6487   2.010   6.759   2.718 -1.1548  1.0428  1.8320
   51DOPE   H3S 6488   2.159   6.647   2.727 -0.0714  1.0227  0.7231
   51DOPE   C24 6489   2.068   6.688   2.908  0.5865  0.6601 -0.8979
   51DOPE   H4R 6490   2.107   6.597   2.959 -0.4096 -0.7354 -2.4971
   51DOPE   H4S 6491   1.970   6.717   2.952  0.5785  1.3370 -1.3480
   51DOPE   C25 6492   2.170   6.812   2.938  0.1026 -0.0482 -0.1106
   51DOPE   H5R 6493   2.104   6.901   2.947 -1.7128 -1.5180  2.4792
   51DOPE   H5S 6494   2.245   6.812   2.855  0.8837  0.9297  0.5703
   51DOPE   C26 6495   2.261   6.783   3.061 -0.7607 -0.0043 -0.2904
   51DOPE   H6R 6496   2.331   6.701   3.035  0.2698  1.3207 -1.8825
   51DOPE   H6S 6497   2.199   6.758   3.150 -0.3702 -0.6533 -0.1900
   51DOPE   C27 6498   2.339   6.917   3.096  0.0194  0.0984 -0.2524
   51DOPE   H7R 6499   2.270   7.002   3.078  0.9958  0.9498 -0.0409
   51DOPE   H7S 6500   2.423   6.929   3.025 -0.4093  0.3497 -0.7223
   51DOPE   C28 6501   2.389   6.926   3.246 -0.1498  0.1941  0.7979
   51DOPE   H8R 6502   2.460   6.842   3.251 -0.3776 -0.1385 -0.9656
   51DOPE   H8S 6503   2.291   6.914   3.298  0.3327 -1.6392  1.3262
   51DOPE   C29 6504   2.457   7.057   3.282  0.3859  0.5283  0.5213
   51DOPE   H9R 6505   2.414   7.145   3.232 -1.4848 -1.8191 -2.2700
   51DOPE  C210 6506   2.545   7.070   3.384 -0.6833  0.7446 -0.4059
   51DOPE  H10R 6507   2.587   7.171   3.396 -0.2209  0.2849  2.7149
   51DOPE  C211 6508   2.609   6.965   3.482 -0.2114 -0.6298 -0.1004
   51DOPE  H11R 6509   2.718   6.958   3.466  0.4869  0.8827  3.1689
   51DOPE  H11S 6510   2.564   6.864   3.466  0.1397 -0.8547  0.3105
   51DOPE  C212 6511   2.581   6.995   3.636 -0.0682 -1.2000  0.0219
   51DOPE  H12R 6512   2.476   7.030   3.653  0.1879 -0.1081 -0.5482
   51DOPE  H12S 6513   2.653   7.073   3.669 -1.4732 -1.2169  3.5864
   51DOPE  C213 6514   2.612   6.878   3.725  0.8948 -0.4734 -0.1169
   51DOPE  H13R 6515   2.708   6.839   3.685  1.7800 -0.6250  2.0343
   51DOPE  H13S 6516   2.540   6.796   3.700 -2.5434  2.4341 -0.5808
   51DOPE  C214 6517   2.613   6.910   3.871  0.2774  0.0908 -0.0190
   51DOPE  H14R 6518   2.507   6.880   3.884  0.0862  1.0200  0.6897
   51DOPE  H14S 6519   2.619   7.020   3.890  1.7911 -0.4744  3.5484
   51DOPE  C215 6520   2.717   6.822   3.949 -0.4743  0.8495 -0.3603
   51DOPE  H15R 6521   2.822   6.839   3.915  0.1640  1.7282  1.8556
   51DOPE  H15S 6522   2.696   6.716   3.923  2.9984 -0.3119  0.9775
   51DOPE  C216 6523   2.724   6.850   4.105 -0.2019  0.4895  0.5002
   51DOPE  H16R 6524   2.623   6.841   4.148 -0.0681 -2.2649  0.4053
   51DOPE  H16S 6525   2.761   6.955   4.112 -0.2542  1.0102 -4.0043
   51DOPE  C217 6526   2.803   6.746   4.179 -0.1113  0.7971 -0.1748
   51DOPE  H17R 6527   2.893   6.736   4.114  0.0680  0.4403  0.1256
   51DOPE  H17S 6528   2.755   6.647   4.194 -1.2047  1.4835  1.0756
   51DOPE  C218 6529   2.854   6.785   4.321  0.3010  0.1839 -0.1301
   51DOPE  H18R 6530   2.762   6.797   4.381  0.3759  0.2053 -0.0201
   51DOPE  H18S 6531   2.909   6.881   4.331 -0.7072  0.6504  1.0811
   51DOPE  H18T 6532   2.923   6.712   4.367  0.8764 -0.2610 -1.6371
   51DOPE   C33 6533   1.333   6.297   3.302  0.3451 -0.8005  0.8411
   51DOPE   H3X 6534   1.223   6.291   3.316 -0.3026  2.2583 -1.7100
   51DOPE   H3Y 6535   1.344   6.391   3.243 -0.5465  0.2307  2.2263
   51DOPE   C34 6536   1.405   6.308   3.441 -0.7381  0.0624  0.2043
   51DOPE   H4X 6537   1.340   6.356   3.517 -1.6404  3.1229 -2.2933
   51DOPE   H4Y 6538   1.420   6.201   3.467 -0.9693  0.3716  1.6862
   51DOPE   C35 6539   1.540   6.390   3.454  0.1084  0.7067  0.2808
   51DOPE   H5X 6540   1.527   6.496   3.425  1.2722  1.1384  1.2982
   51DOPE   H5Y 6541   1.620   6.344   3.392  1.3844  1.7270  1.1328
   51DOPE   C36 6542   1.588   6.400   3.602  0.1627 -0.6207  0.0194
   51DOPE   H6X 6543   1.511   6.452   3.665 -0.3503 -0.8586 -0.4050
   51DOPE   H6Y 6544   1.684   6.454   3.612  0.1524 -0.1265 -2.1475
   51DOPE   C37 6545   1.603   6.262   3.671 -0.2625 -0.4916  0.0524
   51DOPE   H7X 6546   1.501   6.218   3.662 -1.2991  1.9342 -0.9481
   51DOPE   H7Y 6547   1.676   6.203   3.611  0.1575 -0.5470  0.6117
   51DOPE   C38 6548   1.646   6.262   3.824  0.0572 -0.0203 -0.2194
   51DOPE   H8X 6549   1.587   6.347   3.865 -0.5415 -0.0438 -0.9969
   51DOPE   H8Y 6550   1.755   6.280   3.828  0.1236 -0.5479  0.5216
   51DOPE   C39 6551   1.633   6.127   3.890 -0.4272  0.6250  0.1184
   51DOPE   H9X 6552   1.705   6.048   3.863 -2.2691 -0.5921 -1.5442
   51DOPE  C310 6553   1.537   6.081   3.966 -0.3385  0.7013  0.7290
   51DOPE  H10X 6554   1.540   5.979   4.005 -1.4918  0.7053  0.8515
   51DOPE  C311 6555   1.414   6.155   4.012 -0.2955  0.4563 -0.4663
   51DOPE  H11X 6556   1.415   6.266   3.999 -3.9109  0.7996  1.1708
   51DOPE  H11Y 6557   1.323   6.121   3.958 -1.3105  0.4040  1.2318
   51DOPE  C312 6558   1.384   6.144   4.160  0.3541  0.4793 -0.7412
   51DOPE  H12X 6559   1.383   6.035   4.180  2.5886  0.0995 -2.2866
   51DOPE  H12Y 6560   1.281   6.179   4.184 -0.0405 -0.2094 -1.3721
   51DOPE  C313 6561   1.479   6.223   4.250  0.5364  0.3789  0.5534
   51DOPE  H13X 6562   1.584   6.202   4.220  1.1410  2.3483  1.1871
   51DOPE  H13Y 6563   1.464   6.332   4.238 -1.4045  0.2771  1.7089
   51DOPE  C314 6564   1.469   6.182   4.393 -0.0936 -0.0065  0.3854
   51DOPE  H14X 6565   1.503   6.079   4.413  0.0033  0.5336  3.4448
   51DOPE  H14Y 6566   1.361   6.179   4.418 -0.1568 -3.2555  0.1454
   51DOPE  C315 6567   1.531   6.283   4.492 -0.2287 -0.5203 -0.3163
   51DOPE  H15X 6568   1.615   6.332   4.439 -2.0636  1.7188 -1.3476
   51DOPE  H15Y 6569   1.571   6.228   4.580  1.3431 -0.9088 -1.2334
   51DOPE  C316 6570   1.436   6.388   4.546 -0.1084 -0.6752 -0.4398
   51DOPE  H16X 6571   1.359   6.322   4.593 -0.7097 -1.4190 -2.3628
   51DOPE  H16Y 6572   1.386   6.445   4.465 -0.1792 -1.8789 -1.2670
   51DOPE  C317 6573   1.499   6.481   4.641 -0.2341  0.0201 -0.4993
   51DOPE  H17X 6574   1.540   6.555   4.570  1.1641 -1.7998 -1.6597
   51DOPE  H17Y 6575   1.413   6.535   4.687 -1.8806 -0.4406 -2.8414
   51DOPE  C318 6576   1.604   6.438   4.746  0.2927  0.3118 -0.4287
   51DOPE  H18X 6577   1.633   6.523   4.812  0.2581  0.4970 -0.6536
   51DOPE  H18Y 6578   1.555   6.365   4.814 -1.2934  0.2768 -1.5513
   51DOPE  H18Z 6579   1.690   6.396   4.690  0.9417 -2.3954  2.3032
   52DOPE     N 6580   0.241   3.674   3.583  0.4319  0.3327 -0.1114
   52DOPE   HN1 6581   0.183   3.618   3.518 -0.9698  0.3219  1.1049
   52DOPE   HN2 6582   0.272   3.612   3.660 -0.9883 -1.7837 -1.1747
   52DOPE   HN3 6583   0.176   3.750   3.612 -2.2853 -2.0068  0.2567
   52DOPE   C12 6584   0.358   3.746   3.528  0.0157  0.0634  0.2947
   52DOPE  H12A 6585   0.334   3.851   3.499  1.3210  0.8704  1.9436
   52DOPE  H12B 6586   0.394   3.692   3.438  1.1076 -0.7143  1.1604
   52DOPE   C11 6587   0.478   3.755   3.629  0.7106 -0.1419 -0.2996
   52DOPE  H11A 6588   0.563   3.803   3.575  0.7361  0.2210  0.0555
   52DOPE  H11B 6589   0.520   3.654   3.647 -0.1887 -0.8774 -2.1193
   52DOPE     P 6590   0.448   3.971   3.769 -0.6945 -0.2008  0.0064
   52DOPE   O13 6591   0.312   4.024   3.745 -0.4489  0.6101 -0.3936
   52DOPE   O14 6592   0.559   4.032   3.688 -0.2247  0.2931  0.4817
   52DOPE   O11 6593   0.476   3.992   3.922  0.4970 -0.7763  0.4013
   52DOPE   O12 6594   0.436   3.815   3.751 -0.3601  0.2948  0.4533
   52DOPE    C1 6595   0.411   3.917   4.019  0.7136  0.0429 -0.3112
   52DOPE    HA 6596   0.470   3.901   4.111  0.5310  1.3390  0.0397
   52DOPE    HB 6597   0.386   3.813   3.989 -0.5934  0.3877 -0.4729
   52DOPE    C2 6598   0.286   3.989   4.079 -0.7594 -0.8978  0.0623
   52DOPE    HS 6599   0.228   4.026   3.992 -0.0096  0.8138  0.2586
   52DOPE   O21 6600   0.333   4.102   4.159  0.1627 -0.2237 -0.3071
   52DOPE   C21 6601   0.261   4.210   4.152 -0.9056  0.0548  0.6647
   52DOPE   O22 6602   0.148   4.222   4.107 -0.6470  0.2486 -0.2070
   52DOPE   C22 6603   0.336   4.329   4.212 -0.2347 -0.3042 -0.2618
   52DOPE   H2R 6604   0.281   4.423   4.193  0.4324  0.0479 -0.4865
   52DOPE   H2S 6605   0.434   4.331   4.159  0.4271 -0.0696  0.9285
   52DOPE    C3 6606   0.196   3.901   4.173  0.1765  0.3074 -0.6144
   52DOPE    HX 6607   0.106   3.962   4.197  0.5861  0.6147  0.2034
   52DOPE    HY 6608   0.240   3.888   4.275 -1.6108  2.5662  0.5384
   52DOPE   O31 6609   0.170   3.768   4.127 -0.2756 -0.3778 -0.1283
   52DOPE   C31 6610   0.059   3.751   4.048  0.4594  0.0904  0.1729
   52DOPE   O32 6611  -0.025   3.838   4.022 -0.8894 -1.1807  0.0217
   52DOPE   C32 6612   0.052   3.610   3.993 -0.1520  0.2524 -0.5648
   52DOPE   H2X 6613  -0.032   3.607   3.920  0.3805 -2.4269 -1.1796
   52DOPE   H2Y 6614   0.151   3.590   3.946  1.8603  2.0881  2.5499
   52DOPE   C23 6615   0.366   4.303   4.359  0.6615 -1.0374  1.1319
   52DOPE   H3R 6616   0.429   4.387   4.395  0.1663 -0.5464  0.8773
   52DOPE   H3S 6617   0.419   4.207   4.377  0.7611 -1.1797  0.0991
   52DOPE   C24 6618   0.242   4.311   4.448  1.0321 -0.2346 -0.8689
   52DOPE   H4R 6619   0.171   4.229   4.426 -0.4179  0.8784 -0.5166
   52DOPE   H4S 6620   0.186   4.406   4.435  0.3719 -0.3083  1.1848
   52DOPE   C25 6621   0.288   4.314   4.598  0.7342  0.3672  0.7388
   52DOPE   H5R 6622   0.329   4.412   4.630 -0.2176  0.5634  1.3830
   52DOPE   H5S 6623   0.368   4.237   4.605 -1.1063 -1.7504 -0.2597
   52DOPE   C26 6624   0.178   4.267   4.690 -0.7239  0.4468  0.1492
   52DOPE   H6R 6625   0.090   4.336   4.685 -1.3839 -0.2707  1.5618
   52DOPE   H6S 6626   0.210   4.283   4.795  1.7416  0.6889 -0.5825
   52DOPE   C27 6627   0.132   4.121   4.681 -0.0143  0.6046  0.4513
   52DOPE   H7R 6628   0.221   4.055   4.672 -0.6739 -0.2096 -0.3320
   52DOPE   H7S 6629   0.075   4.104   4.587  0.8825 -1.2965  0.1929
   52DOPE   C28 6630   0.054   4.073   4.801 -0.2121  0.5739  0.3031
   52DOPE   H8R 6631   0.106   4.121   4.887 -1.4200  0.5953  1.0393
   52DOPE   H8S 6632   0.062   3.964   4.815 -0.1784  0.5414  0.0432
   52DOPE   C29 6633  -0.091   4.116   4.796 -0.2766 -0.5498 -0.4301
   52DOPE   H9R 6634  -0.102   4.223   4.773 -1.0302 -1.3752 -4.5546
   52DOPE  C210 6635  -0.209   4.044   4.819 -0.1554  1.1728  0.7485
   52DOPE  H10R 6636  -0.305   4.096   4.807  0.5368  1.9246 -2.2053
   52DOPE  C211 6637  -0.215   3.896   4.855 -0.0099 -0.2371  0.5421
   52DOPE  H11R 6638  -0.225   3.909   4.965 -2.8272 -0.3454  0.3921
   52DOPE  H11S 6639  -0.124   3.845   4.818  0.1701 -0.0484  0.7192
   52DOPE  C212 6640  -0.341   3.832   4.799  0.5489  0.4753 -0.2398
   52DOPE  H12R 6641  -0.318   3.724   4.786 -1.2079  0.1337 -0.7250
   52DOPE  H12S 6642  -0.356   3.875   4.698  0.6898  1.5272  0.1742
   52DOPE  C213 6643  -0.471   3.839   4.887  0.3334  0.2213 -0.2178
   52DOPE  H13R 6644  -0.453   3.934   4.942 -3.9229  0.2141  1.5919
   52DOPE  H13S 6645  -0.473   3.752   4.956 -1.4011  0.6583  0.3335
   52DOPE  C214 6646  -0.591   3.853   4.792 -0.6107  0.5355  0.1767
   52DOPE  H14R 6647  -0.609   3.761   4.733 -0.5757  1.8211 -1.9438
   52DOPE  H14S 6648  -0.572   3.936   4.721  3.2069  0.2819  0.6802
   52DOPE  C215 6649  -0.719   3.876   4.874  0.2835 -0.4016 -0.6121
   52DOPE  H15R 6650  -0.724   3.967   4.938 -0.9620  0.0045 -1.2600
   52DOPE  H15S 6651  -0.731   3.802   4.956  1.2499 -0.1332 -0.2109
   52DOPE  C216 6652  -0.849   3.885   4.785  0.6191  0.6841  0.3276
   52DOPE  H16R 6653  -0.940   3.873   4.848  1.4994  0.5596  1.6270
   52DOPE  H16S 6654  -0.841   3.795   4.721  2.8764  0.1490  1.2622
   52DOPE  C217 6655  -0.872   4.017   4.705  0.1468 -0.1125 -0.1148
   52DOPE  H17R 6656  -0.771   4.056   4.677 -0.4100  0.9097 -0.7576
   52DOPE  H17S 6657  -0.916   4.090   4.775 -0.7775 -1.8361  1.1759
   52DOPE  C218 6658  -0.963   4.007   4.581  0.3659  0.2132 -0.3120
   52DOPE  H18R 6659  -0.903   3.983   4.491 -0.7483  0.3006 -1.1006
   52DOPE  H18S 6660  -1.044   3.933   4.595 -0.9844  1.3054 -1.8629
   52DOPE  H18T 6661  -1.011   4.104   4.555  0.0293 -0.0939 -0.8592
   52DOPE   C33 6662   0.022   3.514   4.107  0.9988  0.1790 -0.4433
   52DOPE   H3X 6663  -0.077   3.534   4.155  0.5825 -0.3931 -1.0522
   52DOPE   H3Y 6664   0.094   3.529   4.191 -0.8219  0.2113  1.1791
   52DOPE   C34 6665   0.031   3.361   4.073  0.1785  0.5360  0.2543
   52DOPE   H4X 6666   0.135   3.330   4.051 -0.4125 -1.3480 -0.0879
   52DOPE   H4Y 6667  -0.011   3.310   4.163  0.0958  0.3363  0.1028
   52DOPE   C35 6668  -0.067   3.318   3.963  0.2561 -0.3087  0.6389
   52DOPE   H5X 6669  -0.058   3.209   3.949 -2.2657 -0.5681  0.6051
   52DOPE   H5Y 6670  -0.050   3.379   3.871  0.6554  1.5482  1.9001
   52DOPE   C36 6671  -0.219   3.345   3.999 -0.4996 -0.2707 -0.1271
   52DOPE   H6X 6672  -0.279   3.300   3.917  0.2432 -0.7944 -0.3994
   52DOPE   H6Y 6673  -0.240   3.454   3.992 -3.6375 -0.6719  1.5714
   52DOPE   C37 6674  -0.267   3.292   4.133 -0.4277 -0.0950 -0.2233
   52DOPE   H7X 6675  -0.261   3.181   4.128 -2.0499 -0.2483  0.4781
   52DOPE   H7Y 6676  -0.205   3.330   4.217  0.3123  0.9570 -1.2232
   52DOPE   C38 6677  -0.413   3.335   4.165  0.0757  0.1907  0.6829
   52DOPE   H8X 6678  -0.465   3.285   4.080  1.6660 -2.3556  1.0868
   52DOPE   H8Y 6679  -0.413   3.446   4.163 -0.8610  0.1926 -0.3672
   52DOPE   C39 6680  -0.466   3.274   4.290  0.8317 -0.8998 -0.8942
   52DOPE   H9X 6681  -0.531   3.187   4.269  0.4573 -0.3402 -2.1759
   52DOPE  C310 6682  -0.443   3.324   4.413 -0.2228  0.0200 -0.0827
   52DOPE  H10X 6683  -0.468   3.265   4.503 -0.5989  1.6526  0.9126
   52DOPE  C311 6684  -0.359   3.446   4.448 -0.3970 -0.5295 -0.2132
   52DOPE  H11X 6685  -0.289   3.482   4.370  0.0031  0.5656  0.6194
   52DOPE  H11Y 6686  -0.422   3.533   4.476  0.9786  0.3456  0.2660
   52DOPE  C312 6687  -0.280   3.412   4.579  0.5118  0.1629  0.5037
   52DOPE  H12X 6688  -0.204   3.492   4.583 -0.7417  1.3633  1.5213
   52DOPE  H12Y 6689  -0.235   3.311   4.567 -0.3335 -0.4918  2.3974
   52DOPE  C313 6690  -0.365   3.427   4.705 -0.5874  0.6650 -0.4488
   52DOPE  H13X 6691  -0.390   3.535   4.711  2.3876  1.4524 -0.6588
   52DOPE  H13Y 6692  -0.461   3.372   4.698  0.0925 -0.5745 -0.4669
   52DOPE  C314 6693  -0.284   3.375   4.826  0.3368 -0.0248  0.0202
   52DOPE  H14X 6694  -0.317   3.419   4.923  0.4280 -1.0140  0.5147
   52DOPE  H14Y 6695  -0.180   3.406   4.801 -0.0931  1.1888 -0.2924
   52DOPE  C315 6696  -0.296   3.222   4.828  0.0248  0.2426  0.4113
   52DOPE  H15X 6697  -0.249   3.181   4.736 -1.4297  0.3703 -0.4253
   52DOPE  H15Y 6698  -0.404   3.193   4.830  0.6407 -2.1651  1.4373
   52DOPE  C316 6699  -0.251   3.162   4.966  0.1799  0.3331  0.2334
   52DOPE  H16X 6700  -0.309   3.215   5.044 -0.4602  1.3109 -0.8621
   52DOPE  H16Y 6701  -0.143   3.182   4.982  0.6168 -3.2177  2.7249
   52DOPE  C317 6702  -0.270   3.013   4.986 -0.1694  0.2679 -0.6943
   52DOPE  H17X 6703  -0.267   3.005   5.097 -2.5407 -0.2829 -0.6082
   52DOPE  H17Y 6704  -0.369   2.980   4.947  0.2884 -1.5293 -0.4372
   52DOPE  C318 6705  -0.164   2.922   4.927  0.4505 -0.1032 -0.3879
   52DOPE  H18X 6706  -0.173   2.911   4.817  1.5235 -0.1277 -0.4856
   52DOPE  H18Y 6707  -0.061   2.958   4.951 -0.7438  1.8894  2.2541
   52DOPE  H18Z 6708  -0.173   2.828   4.985 -0.5458 -0.7270 -1.5112
   53DOPE     N 6709   4.509   0.916   3.435 -0.8873  0.2302  0.1446
   53DOPE   HN1 6710   4.509   0.914   3.539 -1.3064 -0.5907  0.1353
   53DOPE   HN2 6711   4.608   0.895   3.412 -1.1431  2.0187 -3.3148
   53DOPE   HN3 6712   4.497   1.017   3.413 -1.0854  0.1841  0.0373
   53DOPE   C12 6713   4.419   0.820   3.374  0.4582 -0.2013  0.1986
   53DOPE  H12A 6714   4.449   0.811   3.268  2.1676 -0.5710  0.6851
   53DOPE  H12B 6715   4.314   0.856   3.383  0.6337  1.0871 -2.2200
   53DOPE   C11 6716   4.425   0.687   3.450  0.4497  0.5461  0.0610
   53DOPE  H11A 6717   4.349   0.611   3.420  1.9000 -1.5217  1.3440
   53DOPE  H11B 6718   4.400   0.706   3.556  1.6481  1.6306  0.1752
   53DOPE     P 6719   4.587   0.508   3.347 -0.0430 -0.4363  0.2227
   53DOPE   O13 6720   4.724   0.453   3.377  0.0278 -0.1078 -0.1114
   53DOPE   O14 6721   4.561   0.555   3.209 -0.4782 -0.3556 -0.2942
   53DOPE   O11 6722   4.477   0.395   3.383  0.2050 -0.0203  0.2451
   53DOPE   O12 6723   4.551   0.622   3.441 -0.0609 -0.2273 -0.2738
   53DOPE    C1 6724   4.481   0.374   3.525 -0.1610  0.1046  0.0863
   53DOPE    HA 6725   4.416   0.446   3.581 -1.7010 -2.2328  1.5002
   53DOPE    HB 6726   4.583   0.365   3.568 -0.6376  0.0482  1.2472
   53DOPE    C2 6727   4.429   0.235   3.566  0.0524  0.3175 -1.3069
   53DOPE    HS 6728   4.497   0.163   3.518  0.7348 -0.5832  0.8672
   53DOPE   O21 6729   4.292   0.227   3.522 -0.2706 -0.3636  0.5275
   53DOPE   C21 6730   4.256   0.118   3.476 -0.1021 -0.1723 -1.1750
   53DOPE   O22 6731   4.332   0.018   3.471 -0.2392  0.1046 -0.2948
   53DOPE   C22 6732   4.108   0.118   3.430 -0.2357 -0.2331 -0.1633
   53DOPE   H2R 6733   4.108   0.137   3.321  3.6831  0.4341 -0.1956
   53DOPE   H2S 6734   4.052   0.197   3.484 -0.6947 -0.3407 -0.4767
   53DOPE    C3 6735   4.430   0.201   3.717 -0.8435 -0.7735  0.4737
   53DOPE    HX 6736   4.391   0.097   3.728 -0.5077 -0.8666  0.7921
   53DOPE    HY 6737   4.360   0.267   3.774 -0.3308 -0.8738  1.2323
   53DOPE   O31 6738   4.561   0.213   3.780 -0.1529 -0.4105 -0.5584
   53DOPE   C31 6739   4.643   0.112   3.759 -0.6500 -0.1708  0.3375
   53DOPE   O32 6740   4.617   0.020   3.679  0.4370  0.5159  0.5276
   53DOPE   C32 6741   4.777   0.134   3.839 -0.1047  0.3350 -0.1632
   53DOPE   H2X 6742   4.841   0.202   3.779  1.4078 -1.4851 -0.7103
   53DOPE   H2Y 6743   4.747   0.175   3.938  0.0991  0.2074 -0.0466
   53DOPE   C23 6744   4.049  -0.024   3.448  0.5946  0.1546 -0.5047
   53DOPE   H3R 6745   4.113  -0.109   3.418 -0.5032 -0.9579  0.1893
   53DOPE   H3S 6746   3.959  -0.029   3.382  0.5822  0.0090 -0.4785
   53DOPE   C24 6747   3.996  -0.056   3.591  0.3530 -0.0982 -0.1368
   53DOPE   H4R 6748   3.948  -0.156   3.586  1.5623 -0.6363 -1.3670
   53DOPE   H4S 6749   3.920   0.022   3.616 -0.8589 -0.3095 -2.7738
   53DOPE   C25 6750   4.103  -0.075   3.699 -0.0626 -0.0830 -0.7340
   53DOPE   H5R 6751   4.154   0.022   3.715  0.1238 -0.3150  0.1465
   53DOPE   H5S 6752   4.179  -0.151   3.672 -0.9987 -0.0759 -3.7920
   53DOPE   C26 6753   4.029  -0.108   3.832 -0.4682  0.1947  0.0936
   53DOPE   H6R 6754   3.960  -0.195   3.824 -0.1156 -0.0156 -0.7321
   53DOPE   H6S 6755   3.961  -0.023   3.857 -0.6690  0.7645 -2.1282
   53DOPE   C27 6756   4.141  -0.134   3.938  0.3818  0.4658 -0.4792
   53DOPE   H7R 6757   4.202  -0.043   3.924  0.9226 -0.0926 -1.9072
   53DOPE   H7S 6758   4.201  -0.225   3.918 -0.1665 -0.4664  1.7879
   53DOPE   C28 6759   4.093  -0.154   4.085 -0.6971 -0.6332  0.0118
   53DOPE   H8R 6760   4.018  -0.236   4.095  1.8977 -2.8957  2.6076
   53DOPE   H8S 6761   4.050  -0.056   4.115 -0.0590 -0.0387 -0.9795
   53DOPE   C29 6762   4.213  -0.185   4.174  0.2893  0.5007 -0.1563
   53DOPE   H9R 6763   4.232  -0.292   4.196  0.0299  0.7570  1.5041
   53DOPE  C210 6764   4.298  -0.089   4.223 -0.0685  0.6354  0.3537
   53DOPE  H10R 6765   4.384  -0.122   4.284 -1.0172 -0.2564  1.2484
   53DOPE  C211 6766   4.290   0.058   4.194  0.7960  0.3749 -0.0987
   53DOPE  H11R 6767   4.290   0.107   4.294 -0.6649 -1.1540  0.7101
   53DOPE  H11S 6768   4.190   0.079   4.151  0.0384 -3.4590 -0.6028
   53DOPE  C212 6769   4.407   0.120   4.118 -0.5664  0.2641 -0.4149
   53DOPE  H12R 6770   4.385   0.228   4.105 -1.2140 -0.0115 -1.8845
   53DOPE  H12S 6771   4.404   0.077   4.015  1.7723 -1.1422  0.0128
   53DOPE  C213 6772   4.549   0.091   4.176 -1.3968  0.6575  0.3227
   53DOPE  H13R 6773   4.624   0.140   4.111 -2.4174  0.6994 -0.8678
   53DOPE  H13S 6774   4.563  -0.019   4.182  0.7859  0.9360  1.0916
   53DOPE  C214 6775   4.569   0.147   4.316 -0.3235 -0.2189  0.3835
   53DOPE  H14R 6776   4.517   0.086   4.393 -0.9622 -1.6495 -1.1180
   53DOPE  H14S 6777   4.521   0.246   4.311 -0.0062 -0.1171 -0.9804
   53DOPE  C215 6778   4.715   0.166   4.362  0.1262 -0.0606  0.3723
   53DOPE  H15R 6779   4.752   0.233   4.282  0.8920 -1.0232 -0.1101
   53DOPE  H15S 6780   4.762   0.065   4.360 -2.8660 -1.6026 -2.5543
   53DOPE  C216 6781   4.708   0.228   4.504  0.1742  0.1814  0.0155
   53DOPE  H16R 6782   4.655   0.158   4.571  0.3504  0.4433  0.4330
   53DOPE  H16S 6783   4.656   0.326   4.503 -0.9321 -0.3707  0.9619
   53DOPE  C217 6784   4.845   0.253   4.566  0.0162  0.3609 -0.6303
   53DOPE  H17R 6785   4.899   0.327   4.503  1.3536 -2.0482 -2.5341
   53DOPE  H17S 6786   4.906   0.160   4.568 -0.0371  0.3357 -0.1998
   53DOPE  C218 6787   4.822   0.309   4.705 -0.6072 -0.6412 -0.4972
   53DOPE  H18R 6788   4.919   0.336   4.752 -1.2317 -1.1817  1.1792
   53DOPE  H18S 6789   4.794   0.229   4.777  0.3898 -0.7273 -0.1930
   53DOPE  H18T 6790   4.757   0.399   4.713  1.2065  0.8118 -1.5231
   53DOPE   C33 6791   4.853  -0.005   3.834  1.3102  0.1328  0.1728
   53DOPE   H3X 6792   4.875  -0.034   3.729  1.3104  2.8305 -0.6324
   53DOPE   H3Y 6793   4.787  -0.084   3.875  0.5565  1.2464  1.1687
   53DOPE   C34 6794   4.981  -0.001   3.917 -0.5673  0.0809 -0.6294
   53DOPE   H4X 6795   5.024  -0.103   3.907  0.8502  0.3660  1.8053
   53DOPE   H4Y 6796   5.052   0.071   3.871 -1.6434  2.4582  1.2548
   53DOPE   C35 6797   4.967   0.034   4.065  0.5385 -0.6546  0.1550
   53DOPE   H5X 6798   4.877  -0.004   4.117 -0.2100  1.2155  0.3244
   53DOPE   H5Y 6799   4.944   0.143   4.064 -1.0930 -0.9339  1.6470
   53DOPE   C36 6800   5.096   0.014   4.144 -0.3889  0.5625 -0.7423
   53DOPE   H6X 6801   5.175   0.066   4.086  1.2193  1.3745  2.0257
   53DOPE   H6Y 6802   5.117  -0.095   4.152  1.6314  0.9976  0.5539
   53DOPE   C37 6803   5.094   0.082   4.286 -0.3298 -0.1427  0.3591
   53DOPE   H7X 6804   5.061   0.186   4.267 -1.2877 -0.8572 -2.3174
   53DOPE   H7Y 6805   5.010   0.033   4.340 -1.6876  3.1795  1.5117
   53DOPE   C38 6806   5.229   0.083   4.361  0.2760 -0.9406  0.1708
   53DOPE   H8X 6807   5.205   0.117   4.465  0.0022 -1.8555  0.4208
   53DOPE   H8Y 6808   5.288   0.164   4.314 -1.0741 -1.5948 -2.8454
   53DOPE   C39 6809   5.301  -0.044   4.369 -1.0416  0.5851  0.0331
   53DOPE   H9X 6810   5.258  -0.120   4.435 -0.7158  0.7566  0.4449
   53DOPE  C310 6811   5.416  -0.077   4.312 -0.1395  0.8806  0.6024
   53DOPE  H10X 6812   5.447  -0.178   4.342  1.0289  0.8730 -0.5845
   53DOPE  C311 6813   5.502   0.006   4.220 -0.1365  0.3208  0.3057
   53DOPE  H11X 6814   5.435   0.047   4.142 -0.0805  1.2344  0.7270
   53DOPE  H11Y 6815   5.546   0.092   4.275  1.9918  0.0564 -0.8579
   53DOPE  C312 6816   5.615  -0.080   4.164 -0.0325 -0.0855  0.3002
   53DOPE  H12X 6817   5.678  -0.102   4.253  0.5179  0.0541 -0.0430
   53DOPE  H12Y 6818   5.665  -0.017   4.087 -0.5265  1.5142  1.2470
   53DOPE  C313 6819   5.566  -0.211   4.098 -0.4126 -0.1148  0.2428
   53DOPE  H13X 6820   5.512  -0.272   4.173 -0.9092 -1.0124 -0.8143
   53DOPE  H13Y 6821   5.494  -0.184   4.018  0.2063 -0.1045 -0.3299
   53DOPE  C314 6822   5.677  -0.292   4.038 -0.6073 -0.2116 -0.5782
   53DOPE  H14X 6823   5.732  -0.335   4.125 -1.0387 -1.1624 -0.7607
   53DOPE  H14Y 6824   5.741  -0.227   3.976  0.5065 -2.0421 -1.4325
   53DOPE  C315 6825   5.623  -0.405   3.944  0.4595  0.5473  0.0156
   53DOPE  H15X 6826   5.558  -0.368   3.862 -0.5666  0.8788  0.9650
   53DOPE  H15Y 6827   5.573  -0.482   4.007  1.8017 -2.1584 -1.9778
   53DOPE  C316 6828   5.738  -0.486   3.871 -0.7818 -0.7696  0.1576
   53DOPE  H16X 6829   5.805  -0.532   3.947 -1.0646  0.6903  1.3579
   53DOPE  H16Y 6830   5.800  -0.425   3.803  0.0032 -1.9988 -0.2495
   53DOPE  C317 6831   5.679  -0.604   3.798  0.7639  0.5342  0.5550
   53DOPE  H17X 6832   5.596  -0.578   3.729  0.6668  2.0474  1.1789
   53DOPE  H17Y 6833   5.758  -0.649   3.735 -2.0719  0.1700 -3.0124
   53DOPE  C318 6834   5.622  -0.718   3.894  0.2566 -0.2711 -0.7915
   53DOPE  H18X 6835   5.541  -0.685   3.963  1.0417 -1.1768  0.6329
   53DOPE  H18Y 6836   5.574  -0.794   3.828  0.5485 -0.9863 -0.2022
   53DOPE  H18Z 6837   5.706  -0.759   3.954 -0.3318 -0.6914 -0.2372
   54DOPE     N 6838   0.341   2.562   3.455  0.0791  0.3123  0.4023
   54DOPE   HN1 6839   0.317   2.524   3.361 -1.5572 -0.3003  1.0248
   54DOPE   HN2 6840   0.374   2.480   3.510 -0.8206 -1.2990 -1.3385
   54DOPE   HN3 6841   0.261   2.614   3.497  1.4754  0.1049  3.6176
   54DOPE   C12 6842   0.448   2.664   3.436  0.6616  0.5638  0.3554
   54DOPE  H12A 6843   0.415   2.743   3.365 -0.3915  0.2124  0.4355
   54DOPE  H12B 6844   0.533   2.609   3.391 -2.6279 -2.0080 -3.3906
   54DOPE   C11 6845   0.472   2.725   3.570  0.2277  0.0941  0.1061
   54DOPE  H11A 6846   0.567   2.780   3.584 -0.4350  1.2629  0.1578
   54DOPE  H11B 6847   0.488   2.647   3.648  1.7018  0.4930  0.2339
   54DOPE     P 6848   0.362   2.975   3.549  0.3128  0.1409  0.5615
   54DOPE   O13 6849   0.246   3.038   3.621  0.0808 -0.4134  0.0038
   54DOPE   O14 6850   0.365   2.979   3.399  0.3208 -0.4408 -0.0389
   54DOPE   O11 6851   0.500   3.031   3.605 -0.5603 -0.3302 -0.1764
   54DOPE   O12 6852   0.370   2.820   3.596  0.1515 -0.1909  0.4374
   54DOPE    C1 6853   0.541   2.994   3.740 -0.4863 -0.2502 -0.5744
   54DOPE    HA 6854   0.651   3.004   3.744 -0.4684  0.1033  3.7457
   54DOPE    HB 6855   0.512   2.891   3.768 -0.6927 -0.7468 -2.4886
   54DOPE    C2 6856   0.516   3.117   3.837 -0.0005  0.5351  0.2700
   54DOPE    HS 6857   0.575   3.113   3.931 -0.3412  2.1085  0.5780
   54DOPE   O21 6858   0.381   3.114   3.886  0.2578 -0.7887 -0.0452
   54DOPE   C21 6859   0.349   2.999   3.962  0.0275 -0.1318  0.0918
   54DOPE   O22 6860   0.429   2.921   4.001  0.6904  0.2949 -0.3907
   54DOPE   C22 6861   0.196   3.002   3.993  0.0973 -0.4422  0.2953
   54DOPE   H2R 6862   0.137   2.965   3.906 -0.3713 -1.0927  0.8800
   54DOPE   H2S 6863   0.173   3.109   4.012  1.0033 -0.0425 -0.7588
   54DOPE    C3 6864   0.534   3.250   3.780 -0.0816 -0.5595  0.0055
   54DOPE    HX 6865   0.460   3.264   3.698  0.4834 -0.6903 -0.5379
   54DOPE    HY 6866   0.633   3.246   3.729 -0.0777  1.2791 -0.1987
   54DOPE   O31 6867   0.520   3.363   3.874 -0.1562  0.5466  0.0744
   54DOPE   C31 6868   0.628   3.434   3.895 -0.1553 -0.0606 -0.7528
   54DOPE   O32 6869   0.738   3.422   3.838  0.0078 -0.1849 -0.2374
   54DOPE   C32 6870   0.594   3.547   3.988  0.5059  0.3280 -0.1374
   54DOPE   H2X 6871   0.678   3.619   3.979 -0.0447  0.9402 -0.4655
   54DOPE   H2Y 6872   0.497   3.590   3.954  0.1394 -0.0083  0.4654
   54DOPE   C23 6873   0.168   2.924   4.116  0.2591  0.3478 -0.4356
   54DOPE   H3R 6874   0.230   2.969   4.196 -0.0457  1.8276 -1.0147
   54DOPE   H3S 6875   0.191   2.815   4.109 -0.0196  0.1101  1.7509
   54DOPE   C24 6876   0.020   2.930   4.165 -0.0866  0.3508 -1.3259
   54DOPE   H4R 6877  -0.046   2.874   4.096 -1.0529  1.6566 -1.4993
   54DOPE   H4S 6878  -0.017   3.034   4.158 -0.0852  0.3053 -2.0845
   54DOPE   C25 6879  -0.004   2.863   4.301  0.1818  0.9557  0.2396
   54DOPE   H5R 6880   0.058   2.909   4.381  0.5691 -0.1818  0.6172
   54DOPE   H5S 6881   0.022   2.755   4.297  1.4538  1.2683 -0.8057
   54DOPE   C26 6882  -0.146   2.872   4.343 -0.3738  0.0279  0.5549
   54DOPE   H6R 6883  -0.205   2.821   4.264  3.5441 -0.3812 -2.4330
   54DOPE   H6S 6884  -0.177   2.978   4.334  0.2535  0.3746  2.2153
   54DOPE   C27 6885  -0.187   2.817   4.478  0.3424  0.5802 -0.9002
   54DOPE   H7R 6886  -0.125   2.866   4.556  0.0784  2.3954 -1.7667
   54DOPE   H7S 6887  -0.171   2.709   4.495  0.0892  0.6712 -0.0706
   54DOPE   C28 6888  -0.319   2.872   4.533  0.5272  0.1285 -0.1509
   54DOPE   H8R 6889  -0.333   2.975   4.494 -0.2390 -0.9172 -2.9141
   54DOPE   H8S 6890  -0.313   2.876   4.643  0.8090  1.9839 -0.1937
   54DOPE   C29 6891  -0.436   2.790   4.500  0.2212  0.6237 -0.0456
   54DOPE   H9R 6892  -0.470   2.793   4.396  0.6460  1.3594 -0.1704
   54DOPE  C210 6893  -0.507   2.704   4.583 -0.7491 -0.0453 -0.3164
   54DOPE  H10R 6894  -0.602   2.654   4.560 -2.8197  2.7531  1.5196
   54DOPE  C211 6895  -0.474   2.667   4.724 -0.8159  0.1533 -0.0437
   54DOPE  H11R 6896  -0.528   2.728   4.799  1.0490 -2.1077  3.3886
   54DOPE  H11S 6897  -0.365   2.677   4.740 -0.9225 -1.2046  2.0017
   54DOPE  C212 6898  -0.502   2.520   4.751 -0.9413  0.4560  0.4585
   54DOPE  H12R 6899  -0.444   2.458   4.680 -2.1332  0.5151 -0.6130
   54DOPE  H12S 6900  -0.607   2.495   4.724 -0.9323  0.1591  0.6914
   54DOPE  C213 6901  -0.463   2.483   4.901 -0.4212 -0.2298 -0.0377
   54DOPE  H13R 6902  -0.367   2.536   4.915  0.3970 -1.3175 -1.3146
   54DOPE  H13S 6903  -0.446   2.373   4.904  1.3172 -0.0192  3.8279
   54DOPE  C214 6904  -0.577   2.512   4.994 -0.8117  0.3319 -0.8164
   54DOPE  H14R 6905  -0.669   2.465   4.953 -0.1841 -2.4483  0.7124
   54DOPE  H14S 6906  -0.599   2.620   4.982  0.3226  0.3869 -2.9675
   54DOPE  C215 6907  -0.558   2.482   5.143  0.2546 -0.3347 -0.8192
   54DOPE  H15R 6908  -0.628   2.544   5.202 -0.3560 -0.6931 -1.1528
   54DOPE  H15S 6909  -0.456   2.508   5.177 -0.2725 -1.3193  1.7692
   54DOPE  C216 6910  -0.579   2.332   5.170  0.5717 -0.4765 -0.2503
   54DOPE  H16R 6911  -0.494   2.292   5.228  0.4649 -3.2974 -1.8444
   54DOPE  H16S 6912  -0.577   2.267   5.080  1.7076 -0.1745 -0.4579
   54DOPE  C217 6913  -0.706   2.286   5.236  0.1217 -0.4228 -0.2450
   54DOPE  H17R 6914  -0.722   2.344   5.329  0.1473  0.7936 -0.9855
   54DOPE  H17S 6915  -0.705   2.180   5.271 -2.7458 -0.4427  0.0131
   54DOPE  C218 6916  -0.831   2.312   5.152 -0.3338 -0.1454  0.2522
   54DOPE  H18R 6917  -0.925   2.311   5.211  0.2886  0.5523  1.2886
   54DOPE  H18S 6918  -0.848   2.226   5.084  0.7404 -1.7085  1.8741
   54DOPE  H18T 6919  -0.841   2.412   5.103 -0.1925  0.5155  1.5254
   54DOPE   C33 6920   0.568   3.494   4.129 -0.1254 -0.1773  0.2351
   54DOPE   H3X 6921   0.490   3.415   4.127 -0.0728 -0.2270  0.1166
   54DOPE   H3Y 6922   0.534   3.576   4.195 -0.6829  0.3637 -0.6953
   54DOPE   C34 6923   0.692   3.426   4.188 -0.3194  0.0483 -0.8095
   54DOPE   H4X 6924   0.729   3.342   4.125  0.6690 -0.0156 -0.1634
   54DOPE   H4Y 6925   0.778   3.496   4.192 -0.4655  0.6046 -4.2118
   54DOPE   C35 6926   0.659   3.363   4.331  0.0287 -0.7087 -0.3578
   54DOPE   H5X 6927   0.629   3.438   4.408 -1.8371 -0.6209 -1.1305
   54DOPE   H5Y 6928   0.752   3.313   4.365 -1.2446 -3.6023 -0.8547
   54DOPE   C36 6929   0.551   3.254   4.326  0.4174 -0.4390  0.5214
   54DOPE   H6X 6930   0.573   3.188   4.239  1.0366 -1.4023  1.3759
   54DOPE   H6Y 6931   0.453   3.302   4.306  0.1399 -0.9478  0.6301
   54DOPE   C37 6932   0.537   3.166   4.449 -0.3840 -0.2807 -0.0919
   54DOPE   H7X 6933   0.513   3.239   4.530 -0.7089  0.2529 -0.6657
   54DOPE   H7Y 6934   0.463   3.084   4.451  1.0177 -1.6208  1.9824
   54DOPE   C38 6935   0.672   3.109   4.512  0.2362 -0.0142  0.0445
   54DOPE   H8X 6936   0.739   3.192   4.542  0.1153  0.1233 -0.0654
   54DOPE   H8Y 6937   0.723   3.062   4.426 -1.3412 -0.7839 -0.5124
   54DOPE   C39 6938   0.650   3.024   4.634 -0.2163  0.8110  0.4003
   54DOPE   H9X 6939   0.659   3.079   4.729  0.2746  1.2711  0.0961
   54DOPE  C310 6940   0.646   2.887   4.627 -0.3357 -0.4654 -0.0130
   54DOPE  H10X 6941   0.636   2.837   4.725  2.3762 -0.1203  0.5225
   54DOPE  C311 6942   0.665   2.798   4.509 -0.9110 -0.2596  0.2477
   54DOPE  H11X 6943   0.694   2.850   4.415  0.2076 -0.1801  0.6209
   54DOPE  H11Y 6944   0.749   2.727   4.525 -0.6101 -0.1613 -0.8240
   54DOPE  C312 6945   0.547   2.713   4.478  0.0436 -0.3138  0.2927
   54DOPE  H12X 6946   0.590   2.652   4.395  1.2005  1.0702 -0.1843
   54DOPE  H12Y 6947   0.463   2.778   4.446 -0.2380 -0.0940  1.4365
   54DOPE  C313 6948   0.507   2.626   4.595 -0.2826  0.3805  0.2171
   54DOPE  H13X 6949   0.603   2.584   4.633 -0.6192 -1.1852 -0.6002
   54DOPE  H13Y 6950   0.453   2.674   4.679 -2.7979  0.1428 -1.1897
   54DOPE  C314 6951   0.426   2.506   4.556  0.7243  0.0491  0.0462
   54DOPE  H14X 6952   0.500   2.472   4.481  0.5403  1.9442 -1.0623
   54DOPE  H14Y 6953   0.332   2.535   4.505  1.5131  1.4671 -0.6403
   54DOPE  C315 6954   0.413   2.405   4.662 -0.3033 -0.2639  0.0942
   54DOPE  H15X 6955   0.347   2.440   4.745 -1.1088 -2.7715  0.6277
   54DOPE  H15Y 6956   0.514   2.378   4.699  0.8484  2.5937 -0.7183
   54DOPE  C316 6957   0.352   2.287   4.590  0.5104 -0.4977 -0.8620
   54DOPE  H16X 6958   0.427   2.208   4.569  0.0448 -0.9107 -0.9884
   54DOPE  H16Y 6959   0.306   2.321   4.495 -1.2350  3.3955  1.1380
   54DOPE  C317 6960   0.238   2.213   4.664  0.7509  0.4006  0.1192
   54DOPE  H17X 6961   0.160   2.285   4.696  1.3369  0.6824  0.9472
   54DOPE  H17Y 6962   0.188   2.158   4.582  2.3963 -1.3363  0.2093
   54DOPE  C318 6963   0.283   2.120   4.773 -0.0271  0.8237 -0.1836
   54DOPE  H18X 6964   0.318   2.187   4.855 -0.1137  1.2993 -0.5286
   54DOPE  H18Y 6965   0.198   2.060   4.811  0.4575  0.1547 -0.1283
   54DOPE  H18Z 6966   0.360   2.050   4.734 -0.8738 -0.2758  0.0980
   55DOPE     N 6967   0.075   4.839   2.962  0.1864 -0.8702 -1.7665
   55DOPE   HN1 6968  -0.016   4.794   2.985  1.9765 -3.7261  0.4091
   55DOPE   HN2 6969   0.097   4.851   2.861 -0.5353  1.4656 -1.7126
   55DOPE   HN3 6970   0.148   4.771   2.992 -0.5390 -0.5859  0.8284
   55DOPE   C12 6971   0.091   4.964   3.052  0.1807 -0.1617 -0.0656
   55DOPE  H12A 6972   0.199   4.991   3.042  0.2701  0.2201  1.6861
   55DOPE  H12B 6973   0.071   4.936   3.157  1.0685  2.7434  0.9744
   55DOPE   C11 6974  -0.001   5.083   3.003 -0.6581 -0.5877  0.7836
   55DOPE  H11A 6975  -0.006   5.149   3.092 -0.8654  1.1018 -0.4499
   55DOPE  H11B 6976  -0.105   5.046   2.989  0.2780 -3.3031  0.2000
   55DOPE     P 6977   0.126   5.273   2.897 -0.3317  0.1952 -0.1149
   55DOPE   O13 6978   0.096   5.353   2.775 -0.0801  0.0590  0.6899
   55DOPE   O14 6979   0.266   5.232   2.910  0.0412  0.0842 -0.4593
   55DOPE   O11 6980   0.071   5.348   3.024 -0.0261  0.0357 -0.1654
   55DOPE   O12 6981   0.047   5.143   2.885  0.0568  0.2507 -0.0913
   55DOPE    C1 6982   0.150   5.451   3.086  0.1800  0.2039  0.5534
   55DOPE    HA 6983   0.083   5.529   3.127  0.0749 -0.0843  0.9365
   55DOPE    HB 6984   0.219   5.505   3.017  2.0230  1.0955  2.9580
   55DOPE    C2 6985   0.203   5.397   3.214  0.6287 -0.8629 -0.1059
   55DOPE    HS 6986   0.252   5.298   3.206  3.0044  0.2778 -0.4881
   55DOPE   O21 6987   0.092   5.391   3.305  0.3349  0.1831  0.4027
   55DOPE   C21 6988   0.085   5.284   3.383 -0.2233 -0.8085 -0.5313
   55DOPE   O22 6989   0.175   5.209   3.421  0.5016 -0.1856 -0.4425
   55DOPE   C22 6990  -0.055   5.278   3.431  0.0974  0.0288 -0.1508
   55DOPE   H2R 6991  -0.128   5.345   3.381 -1.0402 -0.2764  1.0403
   55DOPE   H2S 6992  -0.056   5.328   3.530  1.1559  1.7227 -0.9369
   55DOPE    C3 6993   0.318   5.493   3.274 -0.0683 -0.0941 -0.1083
   55DOPE    HX 6994   0.287   5.599   3.284  1.1257  0.2707 -0.0799
   55DOPE    HY 6995   0.406   5.514   3.209 -0.3019  0.3609 -0.2838
   55DOPE   O31 6996   0.361   5.447   3.407  0.4244 -0.2832  0.5582
   55DOPE   C31 6997   0.483   5.396   3.415 -0.1681 -0.3140 -0.0706
   55DOPE   O32 6998   0.557   5.380   3.324 -0.4215  0.5157 -0.0370
   55DOPE   C32 6999   0.519   5.383   3.561  0.6815  0.5927  0.0281
   55DOPE   H2X 7000   0.610   5.443   3.582  0.2941  1.4507 -0.6599
   55DOPE   H2Y 7001   0.436   5.431   3.619 -0.2042 -0.1068 -0.6366
   55DOPE   C23 7002  -0.103   5.138   3.446  0.1281  0.2954 -0.6362
   55DOPE   H3R 7003  -0.035   5.079   3.512 -0.6633 -1.9710 -1.7279
   55DOPE   H3S 7004  -0.098   5.074   3.356 -1.7067 -1.6100  0.5136
   55DOPE   C24 7005  -0.243   5.140   3.502  0.1469  0.0246 -0.5976
   55DOPE   H4R 7006  -0.285   5.039   3.482  2.1038 -0.3203 -3.7047
   55DOPE   H4S 7007  -0.300   5.217   3.445  0.8875  0.9468 -0.1224
   55DOPE   C25 7008  -0.254   5.169   3.653  0.5549 -0.1586  0.3897
   55DOPE   H5R 7009  -0.363   5.165   3.678  0.0104  0.7243 -1.6723
   55DOPE   H5S 7010  -0.214   5.272   3.669 -0.3821  0.1655  0.7661
   55DOPE   C26 7011  -0.183   5.061   3.739  0.1195  0.0226  0.8175
   55DOPE   H6R 7012  -0.072   5.071   3.730 -0.1515  3.3602 -0.3515
   55DOPE   H6S 7013  -0.218   4.962   3.702 -0.6347  0.2942  0.7886
   55DOPE   C27 7014  -0.212   5.056   3.890 -0.0294 -0.0033  0.5543
   55DOPE   H7R 7015  -0.194   5.156   3.937 -2.3161 -0.6523  2.9911
   55DOPE   H7S 7016  -0.126   4.997   3.928 -0.2538 -0.8614 -0.2514
   55DOPE   C28 7017  -0.358   5.008   3.921 -0.2772 -0.5248  0.6445
   55DOPE   H8R 7018  -0.370   4.902   3.891 -0.8875 -0.0044 -1.0466
   55DOPE   H8S 7019  -0.430   5.066   3.859 -0.2946 -1.9052 -0.6703
   55DOPE   C29 7020  -0.379   5.028   4.068  0.0239  0.0848 -0.5420
   55DOPE   H9R 7021  -0.367   4.937   4.130 -0.6512 -0.1564 -0.7453
   55DOPE  C210 7022  -0.417   5.143   4.132 -0.4384 -0.9181  0.4509
   55DOPE  H10R 7023  -0.434   5.139   4.241  0.0970 -2.0255  0.5061
   55DOPE  C211 7024  -0.448   5.281   4.077  0.3531  0.5377  0.2181
   55DOPE  H11R 7025  -0.544   5.276   4.022  0.4307 -3.8110  0.1446
   55DOPE  H11S 7026  -0.372   5.314   4.003  0.2443  0.2674 -0.0121
   55DOPE  C212 7027  -0.442   5.394   4.183 -0.4771 -0.2900  0.1188
   55DOPE  H12R 7028  -0.336   5.412   4.210  1.0163 -4.8670 -1.7419
   55DOPE  H12S 7029  -0.491   5.357   4.276  1.0429  0.2168  1.1605
   55DOPE  C213 7030  -0.495   5.527   4.137 -0.7673  0.1674  0.3963
   55DOPE  H13R 7031  -0.603   5.518   4.112 -0.4588 -0.3389 -0.7893
   55DOPE  H13S 7032  -0.437   5.550   4.045 -1.6310  0.4232 -0.0972
   55DOPE  C214 7033  -0.449   5.645   4.230 -0.8334 -0.5572 -0.3557
   55DOPE  H14R 7034  -0.492   5.731   4.175 -0.4845  1.0713  1.7927
   55DOPE  H14S 7035  -0.338   5.638   4.236 -0.8344 -0.1219  0.3327
   55DOPE  C215 7036  -0.520   5.630   4.367 -0.4097  0.8633  0.3599
   55DOPE  H15R 7037  -0.502   5.528   4.408  1.7030  1.0025 -0.1257
   55DOPE  H15S 7038  -0.630   5.644   4.356 -0.3450  2.2721  1.3474
   55DOPE  C216 7039  -0.491   5.736   4.477 -0.2681 -0.9393  0.2821
   55DOPE  H16R 7040  -0.492   5.832   4.421 -4.0378 -1.2573 -0.4711
   55DOPE  H16S 7041  -0.393   5.708   4.522  1.0406  1.1098 -1.1145
   55DOPE  C217 7042  -0.607   5.740   4.579  0.1433 -0.2595  0.4382
   55DOPE  H17R 7043  -0.599   5.643   4.632  0.1250 -0.3020  0.3636
   55DOPE  H17S 7044  -0.705   5.758   4.531  0.0127 -0.4833  0.6205
   55DOPE  C218 7045  -0.588   5.850   4.679  0.0961 -0.4521  0.2079
   55DOPE  H18R 7046  -0.642   5.827   4.773 -2.1592  0.7437 -0.7207
   55DOPE  H18S 7047  -0.634   5.946   4.648 -1.3918 -1.3122 -0.3342
   55DOPE  H18T 7048  -0.480   5.869   4.699 -0.2595  1.0327  0.8230
   55DOPE   C33 7049   0.531   5.241   3.618 -0.4320 -0.4670 -0.4828
   55DOPE   H3X 7050   0.590   5.183   3.544  1.2242 -0.9758  1.1488
   55DOPE   H3Y 7051   0.429   5.197   3.621 -0.3996 -0.9332 -3.3994
   55DOPE   C34 7052   0.597   5.234   3.753  0.2411 -0.6998  0.0884
   55DOPE   H4X 7053   0.570   5.133   3.792 -2.5255 -0.6938 -1.5359
   55DOPE   H4Y 7054   0.706   5.258   3.748  0.4241 -1.4869  0.0805
   55DOPE   C35 7055   0.521   5.336   3.849 -0.5921 -0.1137  0.7945
   55DOPE   H5X 7056   0.415   5.331   3.814 -0.3779 -1.2806  0.2524
   55DOPE   H5Y 7057   0.552   5.439   3.824 -0.2018 -0.2948  0.5374
   55DOPE   C36 7058   0.536   5.310   3.995 -0.0861 -0.2997 -0.1028
   55DOPE   H6X 7059   0.504   5.204   4.003 -1.0266 -0.2977 -2.7700
   55DOPE   H6Y 7060   0.462   5.369   4.054 -1.2597 -0.9382 -0.8880
   55DOPE   C37 7061   0.674   5.332   4.046  0.7216 -0.8779  0.6176
   55DOPE   H7X 7062   0.730   5.239   4.024 -0.0001 -1.1530 -0.0932
   55DOPE   H7Y 7063   0.722   5.410   3.982 -0.1465  0.5143  1.6099
   55DOPE   C38 7064   0.674   5.369   4.193  0.2018  0.4116  0.0195
   55DOPE   H8X 7065   0.607   5.297   4.245 -0.8265  1.2408 -0.1184
   55DOPE   H8Y 7066   0.624   5.468   4.189 -2.4414 -0.8919 -1.6622
   55DOPE   C39 7067   0.813   5.364   4.244  0.4961 -0.0824  0.2133
   55DOPE   H9X 7068   0.862   5.269   4.220  0.4571 -0.3306  1.0660
   55DOPE  C310 7069   0.874   5.446   4.328 -0.0107  0.3985 -0.3553
   55DOPE  H10X 7070   0.976   5.420   4.358  0.3099  2.1671  0.2083
   55DOPE  C311 7071   0.821   5.571   4.393  0.5195  1.0192  0.0566
   55DOPE  H11X 7072   0.863   5.664   4.348  1.5480  0.0866 -0.9638
   55DOPE  H11Y 7073   0.714   5.589   4.368  0.2397  1.3443  1.4280
   55DOPE  C312 7074   0.843   5.577   4.541 -0.1324 -0.1397 -0.3231
   55DOPE  H12X 7075   0.950   5.565   4.568 -0.2943 -0.8459  0.0327
   55DOPE  H12Y 7076   0.779   5.499   4.588 -0.1549  0.8327  1.3225
   55DOPE  C313 7077   0.802   5.716   4.592 -0.3139  0.4985 -0.2895
   55DOPE  H13X 7078   0.869   5.793   4.548  1.0264  0.3131  1.3575
   55DOPE  H13Y 7079   0.692   5.731   4.584 -0.6777 -0.4388  2.2096
   55DOPE  C314 7080   0.823   5.733   4.746 -0.4370  0.2306  1.2178
   55DOPE  H14X 7081   0.927   5.707   4.775 -1.0474 -1.3969  2.1015
   55DOPE  H14Y 7082   0.750   5.671   4.803  0.2564 -1.1032  0.6892
   55DOPE  C315 7083   0.787   5.875   4.791 -0.3139 -0.5295  0.6351
   55DOPE  H15X 7084   0.841   5.948   4.727 -0.9466  1.8399  2.6539
   55DOPE  H15Y 7085   0.848   5.883   4.883  0.1641  0.6585  0.2313
   55DOPE  C316 7086   0.641   5.912   4.806 -0.2134  0.1677 -0.2657
   55DOPE  H16X 7087   0.599   5.861   4.896 -0.0838  0.8257  0.1688
   55DOPE  H16Y 7088   0.588   5.887   4.711  0.9779  1.5217 -1.3238
   55DOPE  C317 7089   0.635   6.066   4.825  0.8261  0.7167  0.4956
   55DOPE  H17X 7090   0.713   6.111   4.760  0.9882 -0.4574 -0.1598
   55DOPE  H17Y 7091   0.544   6.120   4.792  1.6589  0.9646 -1.5260
   55DOPE  C318 7092   0.664   6.106   4.969 -0.3284  0.5451  0.0707
   55DOPE  H18X 7093   0.657   6.216   4.981  1.5207  0.5945  1.1124
   55DOPE  H18Y 7094   0.597   6.051   5.039 -0.9860  1.8413  0.4819
   55DOPE  H18Z 7095   0.768   6.081   5.001 -0.4613  0.1408  0.1891
   56DOPE     N 7096   1.056   5.487   2.489 -0.2453 -0.3443 -0.1407
   56DOPE   HN1 7097   0.963   5.491   2.537  0.8181  0.8135  1.9443
   56DOPE   HN2 7098   1.120   5.558   2.530 -0.0301 -0.4013 -0.3803
   56DOPE   HN3 7099   1.042   5.505   2.388  0.3368  0.5140 -0.0797
   56DOPE   C12 7100   1.116   5.356   2.516 -0.1300  0.0094  0.7090
   56DOPE  H12A 7101   1.219   5.352   2.475  0.3193 -2.3232  1.8861
   56DOPE  H12B 7102   1.052   5.286   2.459  1.3975 -1.9560  1.3000
   56DOPE   C11 7103   1.127   5.318   2.662 -0.0090 -1.1911 -0.2047
   56DOPE  H11A 7104   1.028   5.345   2.706  0.7264  3.0796 -0.7164
   56DOPE  H11B 7105   1.198   5.395   2.699 -1.8259  0.0443  0.8640
   56DOPE     P 7106   1.299   5.139   2.741 -0.1443  0.1310 -0.0397
   56DOPE   O13 7107   1.359   5.258   2.811  0.0615 -0.4835  0.2321
   56DOPE   O14 7108   1.373   5.074   2.629  0.1533 -0.5693  0.2380
   56DOPE   O11 7109   1.262   5.026   2.849 -0.0229 -0.1304 -0.0916
   56DOPE   O12 7110   1.157   5.182   2.679  0.2447 -0.2307 -0.0656
   56DOPE    C1 7111   1.132   5.019   2.905 -0.1889  0.1115 -0.7448
   56DOPE    HA 7112   1.105   4.920   2.948  0.6932  0.4784  0.7147
   56DOPE    HB 7113   1.049   5.033   2.832 -2.1741 -2.2123  0.9133
   56DOPE    C2 7114   1.104   5.127   3.019 -0.1218 -0.1797  0.7983
   56DOPE    HS 7115   1.104   5.224   2.964 -1.9037 -1.5339 -1.8144
   56DOPE   O21 7116   1.213   5.116   3.112 -0.6992 -0.3092 -0.2291
   56DOPE   C21 7117   1.248   5.220   3.183 -0.3403 -0.1259 -1.3702
   56DOPE   O22 7118   1.197   5.329   3.174 -0.6102 -0.0533  0.0617
   56DOPE   C22 7119   1.365   5.192   3.282 -0.3819 -0.7627 -0.3195
   56DOPE   H2R 7120   1.461   5.209   3.229  0.0597 -1.5104  0.2173
   56DOPE   H2S 7121   1.363   5.083   3.306 -1.4927 -0.6829 -0.0245
   56DOPE    C3 7122   0.964   5.114   3.089  0.3527 -0.3004 -0.2408
   56DOPE    HX 7123   0.969   5.026   3.156  2.8821  1.3286  1.8954
   56DOPE    HY 7124   0.904   5.106   2.995  0.0775 -0.9632 -0.0110
   56DOPE   O31 7125   0.940   5.238   3.154 -0.0436  0.2455  0.0410
   56DOPE   C31 7126   0.942   5.237   3.285  0.5763  0.4448  1.4903
   56DOPE   O32 7127   0.941   5.136   3.356  0.3231  0.5146 -0.0029
   56DOPE   C32 7128   0.934   5.381   3.334  0.6176  0.3888 -0.4729
   56DOPE   H2X 7129   1.023   5.434   3.296  0.6621 -0.1197 -1.0866
   56DOPE   H2Y 7130   0.839   5.432   3.307 -0.3793  0.2656  2.3920
   56DOPE   C23 7131   1.350   5.292   3.406  0.1716  0.2877 -0.1523
   56DOPE   H3R 7132   1.245   5.270   3.435  0.1345  1.9108  1.0779
   56DOPE   H3S 7133   1.369   5.394   3.365  0.2811 -0.5024 -2.2223
   56DOPE   C24 7134   1.449   5.256   3.515  0.2936  0.2746  0.1637
   56DOPE   H4R 7135   1.549   5.244   3.468  0.9701 -2.0474  2.0255
   56DOPE   H4S 7136   1.431   5.149   3.536  1.3796 -0.3369 -1.6855
   56DOPE   C25 7137   1.467   5.342   3.639  0.2334  0.4986 -0.8082
   56DOPE   H5R 7138   1.363   5.358   3.672 -0.0006  0.1820 -1.3690
   56DOPE   H5S 7139   1.511   5.442   3.619  1.3846  0.9952  3.2865
   56DOPE   C26 7140   1.544   5.286   3.760  0.1078 -0.2738 -0.1041
   56DOPE   H6R 7141   1.485   5.204   3.807 -0.8055  0.8655  0.8116
   56DOPE   H6S 7142   1.546   5.352   3.849 -0.3175 -2.0547  1.2962
   56DOPE   C27 7143   1.692   5.243   3.742  0.3216  0.1806  0.5204
   56DOPE   H7R 7144   1.735   5.320   3.674 -1.4207  1.3535  0.7022
   56DOPE   H7S 7145   1.692   5.149   3.682  0.3648  1.3316 -1.3480
   56DOPE   C28 7146   1.771   5.228   3.873  0.3149 -0.5025 -0.1480
   56DOPE   H8R 7147   1.748   5.319   3.932 -2.6436 -2.4968  2.0692
   56DOPE   H8S 7148   1.879   5.218   3.852 -0.1198 -0.7946 -2.6293
   56DOPE   C29 7149   1.716   5.110   3.947  0.0253 -0.5501  0.1250
   56DOPE   H9R 7150   1.716   5.015   3.890 -0.4069 -0.2241 -0.4245
   56DOPE  C210 7151   1.639   5.111   4.057  0.0352 -0.1937  0.1480
   56DOPE  H10R 7152   1.598   5.020   4.103 -3.1644  2.3501  2.7895
   56DOPE  C211 7153   1.595   5.229   4.135 -0.0321 -0.5344  0.2401
   56DOPE  H11R 7154   1.497   5.223   4.188 -0.6877  0.2383 -0.8412
   56DOPE  H11S 7155   1.573   5.318   4.072  0.0112 -0.8487 -0.2190
   56DOPE  C212 7156   1.712   5.282   4.233 -0.4739 -0.6081  0.0751
   56DOPE  H12R 7157   1.803   5.303   4.172 -0.7295 -1.9001 -0.7826
   56DOPE  H12S 7158   1.741   5.210   4.313  1.6294 -1.2882 -1.2214
   56DOPE  C213 7159   1.671   5.405   4.310  0.5368 -0.2915 -0.1955
   56DOPE  H13R 7160   1.585   5.368   4.370 -1.6899  2.0494 -1.7166
   56DOPE  H13S 7161   1.626   5.481   4.243 -0.8761  1.2017  2.2941
   56DOPE  C214 7162   1.769   5.466   4.421  0.1496  0.2827  0.4941
   56DOPE  H14R 7163   1.862   5.506   4.377  0.0544 -0.6073 -0.5820
   56DOPE  H14S 7164   1.800   5.385   4.491  0.6530  1.6229  1.8673
   56DOPE  C215 7165   1.712   5.576   4.508  0.6103 -0.2844 -0.0338
   56DOPE  H15R 7166   1.615   5.547   4.553 -0.4772  1.9838 -0.7914
   56DOPE  H15S 7167   1.698   5.668   4.447 -0.1960  1.7523  3.0138
   56DOPE  C216 7168   1.820   5.621   4.611  0.7102  0.2272  0.0498
   56DOPE  H16R 7169   1.912   5.564   4.585 -1.0157 -2.1324 -1.3597
   56DOPE  H16S 7170   1.785   5.577   4.708 -0.0136 -3.9218 -1.8487
   56DOPE  C217 7171   1.840   5.774   4.613  0.0216  0.0026 -0.0481
   56DOPE  H17R 7172   1.881   5.805   4.515  0.1672 -3.9737 -1.3978
   56DOPE  H17S 7173   1.905   5.797   4.701 -0.7354  0.5959  0.3760
   56DOPE  C218 7174   1.717   5.850   4.643  0.0868 -0.5523 -0.5091
   56DOPE  H18R 7175   1.632   5.838   4.572 -0.9830  0.7916  0.4925
   56DOPE  H18S 7176   1.730   5.960   4.657  0.0495 -0.7309  1.2015
   56DOPE  H18T 7177   1.677   5.812   4.739 -2.6257 -0.4962 -1.5402
   56DOPE   C33 7178   0.945   5.390   3.491 -0.2935  0.0892  0.6638
   56DOPE   H3X 7179   1.044   5.339   3.499  0.2224  1.0937  0.7927
   56DOPE   H3Y 7180   0.865   5.335   3.546  0.3920 -1.9267 -0.2674
   56DOPE   C34 7181   0.957   5.534   3.542  0.0555  0.4891  0.4027
   56DOPE   H4X 7182   1.050   5.588   3.514  0.1448 -0.2062 -0.6830
   56DOPE   H4Y 7183   0.865   5.591   3.514 -0.7502 -0.5622  0.8572
   56DOPE   C35 7184   0.971   5.540   3.700 -0.2296  0.3245 -0.2126
   56DOPE   H5X 7185   1.073   5.503   3.723  0.5742  2.0405 -0.8737
   56DOPE   H5Y 7186   0.896   5.467   3.738  0.2542 -1.2272 -2.0825
   56DOPE   C36 7187   0.950   5.676   3.776 -0.7124  0.8902  0.1981
   56DOPE   H6X 7188   0.933   5.652   3.883 -0.0557 -1.5039 -0.1559
   56DOPE   H6Y 7189   0.857   5.714   3.730 -2.2908 -1.3442  1.3335
   56DOPE   C37 7190   1.076   5.775   3.771 -0.1715 -0.2127 -0.0446
   56DOPE   H7X 7191   1.150   5.748   3.851 -1.0599  1.2404  1.3286
   56DOPE   H7Y 7192   1.128   5.767   3.674  1.9192 -1.6852  1.1022
   56DOPE   C38 7193   1.017   5.922   3.783  0.2067 -0.6975  0.1905
   56DOPE   H8X 7194   1.105   5.983   3.816  1.5594 -2.2931 -0.3083
   56DOPE   H8Y 7195   0.961   5.926   3.878 -1.6206 -0.9116 -0.8276
   56DOPE   C39 7196   0.940   5.969   3.664 -0.4088 -0.2372 -0.2660
   56DOPE   H9X 7197   0.857   5.905   3.630  0.1749 -0.1186 -2.0339
   56DOPE  C310 7198   0.970   6.086   3.598 -0.4343  0.2814 -0.2066
   56DOPE  H10X 7199   0.916   6.103   3.504  0.9502 -2.4235 -1.6195
   56DOPE  C311 7200   1.079   6.192   3.632  0.1854  0.0573 -0.5285
   56DOPE  H11X 7201   1.181   6.149   3.647  0.2028  0.3655  0.3071
   56DOPE  H11Y 7202   1.086   6.268   3.551  0.5494  0.4950 -0.1013
   56DOPE  C312 7203   1.046   6.269   3.767 -0.2054  0.4807 -0.3529
   56DOPE  H12X 7204   1.052   6.198   3.852  1.8974 -2.2679 -2.5960
   56DOPE  H12Y 7205   0.945   6.314   3.752  0.1688  1.9254  1.1987
   56DOPE  C313 7206   1.152   6.377   3.804 -0.6375  0.0844  0.0959
   56DOPE  H13X 7207   1.237   6.316   3.841 -0.4612 -0.2016 -0.7641
   56DOPE  H13Y 7208   1.182   6.426   3.708 -1.8280  2.3288  0.7875
   56DOPE  C314 7209   1.099   6.483   3.895 -0.4188 -1.0471 -0.3090
   56DOPE  H14X 7210   1.039   6.442   3.979  0.4111 -0.7670  0.4408
   56DOPE  H14Y 7211   1.037   6.558   3.841  0.7073  0.0620 -0.1212
   56DOPE  C315 7212   1.223   6.544   3.968  0.0232  0.1782 -0.4896
   56DOPE  H15X 7213   1.279   6.607   3.896 -1.2497  1.8398 -0.0848
   56DOPE  H15Y 7214   1.289   6.459   3.996  0.4929  0.6704 -0.0976
   56DOPE  C316 7215   1.184   6.624   4.086 -0.0920 -0.8068  0.5238
   56DOPE  H16X 7216   1.086   6.675   4.073 -0.1605 -0.4488  2.1732
   56DOPE  H16Y 7217   1.261   6.704   4.089 -0.2151 -0.7138  2.5223
   56DOPE  C317 7218   1.181   6.549   4.221  0.2168  0.2369 -0.6778
   56DOPE  H17X 7219   1.120   6.458   4.203  2.5739 -1.0462 -2.8079
   56DOPE  H17Y 7220   1.280   6.513   4.256 -0.4713 -1.6492 -0.5514
   56DOPE  C318 7221   1.127   6.627   4.345 -0.1033  0.1318 -0.1322
   56DOPE  H18X 7222   1.021   6.655   4.329  0.1764  0.3709 -1.7893
   56DOPE  H18Y 7223   1.131   6.567   4.438  0.6184  0.7704  0.2589
   56DOPE  H18Z 7224   1.171   6.729   4.352  0.6629 -0.2330  0.4387
   57DOPE     N 7225   2.578   2.512   3.113  0.4901  0.1316 -0.2302
   57DOPE   HN1 7226   2.657   2.580   3.122  1.2755 -0.3624 -2.6019
   57DOPE   HN2 7227   2.587   2.479   3.015 -1.4878  1.7153 -1.0196
   57DOPE   HN3 7228   2.482   2.551   3.122  0.7673  0.4826  1.5601
   57DOPE   C12 7229   2.580   2.400   3.215  0.6197 -0.1780 -0.6517
   57DOPE  H12A 7230   2.674   2.343   3.197  3.0127  2.9909  0.6186
   57DOPE  H12B 7231   2.495   2.334   3.189  0.5341 -0.6120  0.6471
   57DOPE   C11 7232   2.565   2.440   3.363  0.4283  0.3348 -0.1909
   57DOPE  H11A 7233   2.672   2.453   3.392  0.5748 -0.0438 -0.5551
   57DOPE  H11B 7234   2.519   2.354   3.416 -1.5245  1.8816  0.7667
   57DOPE     P 7235   2.348   2.589   3.362 -0.1304  0.1836  0.0182
   57DOPE   O13 7236   2.327   2.559   3.217 -0.5019  0.2783  0.3697
   57DOPE   O14 7237   2.307   2.719   3.417 -0.3885  0.2568 -0.7692
   57DOPE   O11 7238   2.280   2.466   3.436  0.4115  0.1553 -0.1624
   57DOPE   O12 7239   2.495   2.559   3.401  0.7635 -0.0551  0.2179
   57DOPE    C1 7240   2.280   2.467   3.580 -0.0200 -0.0319  0.0658
   57DOPE    HA 7241   2.238   2.560   3.624  0.4160  0.4075 -0.4276
   57DOPE    HB 7242   2.379   2.441   3.624 -0.6791 -2.2693  0.3497
   57DOPE    C2 7243   2.192   2.354   3.638 -0.6795  0.4342 -0.4624
   57DOPE    HS 7244   2.193   2.361   3.749 -0.5356  0.7246 -0.4823
   57DOPE   O21 7245   2.243   2.229   3.597 -0.4948  0.9752 -0.1029
   57DOPE   C21 7246   2.348   2.175   3.660  0.5760  0.1777  0.1354
   57DOPE   O22 7247   2.388   2.219   3.765  0.0075 -0.3455  0.0607
   57DOPE   C22 7248   2.421   2.070   3.585 -0.2554  0.3517 -0.1375
   57DOPE   H2R 7249   2.493   2.024   3.656  0.7356  0.3837 -1.1024
   57DOPE   H2S 7250   2.480   2.119   3.504  1.7701 -0.2859  0.8725
   57DOPE    C3 7251   2.053   2.362   3.584  0.2019 -0.2680  0.2634
   57DOPE    HX 7252   2.067   2.353   3.474  1.4699 -0.6450  0.4437
   57DOPE    HY 7253   2.014   2.461   3.619  1.1307 -1.1057  4.1848
   57DOPE   O31 7254   1.966   2.253   3.630 -0.3295 -0.5901  0.4935
   57DOPE   C31 7255   1.933   2.164   3.540  0.4981  0.3909 -0.7762
   57DOPE   O32 7256   1.993   2.153   3.433 -0.3639  0.2053  0.1650
   57DOPE   C32 7257   1.819   2.072   3.580  0.0824 -0.0767 -0.0152
   57DOPE   H2X 7258   1.721   2.124   3.567  0.6117  0.5268 -1.8657
   57DOPE   H2Y 7259   1.815   1.974   3.528 -1.6933 -0.3045  0.4693
   57DOPE   C23 7260   2.338   1.952   3.514  0.5298 -0.9038 -1.9420
   57DOPE   H3R 7261   2.388   1.918   3.421  1.8716 -1.7642 -0.9333
   57DOPE   H3S 7262   2.237   1.986   3.483  0.6531  0.3852 -1.0411
   57DOPE   C24 7263   2.327   1.825   3.609 -0.1607 -0.5187  0.0576
   57DOPE   H4R 7264   2.433   1.791   3.615 -0.8123 -2.8030 -0.5889
   57DOPE   H4S 7265   2.266   1.756   3.548  1.5643  0.0091 -2.4192
   57DOPE   C25 7266   2.274   1.852   3.752  0.2914  0.5727 -1.0779
   57DOPE   H5R 7267   2.207   1.941   3.749  0.8973  1.0202 -1.7008
   57DOPE   H5S 7268   2.366   1.872   3.812 -1.5036  1.1063  1.6891
   57DOPE   C26 7269   2.207   1.736   3.821  0.3081 -0.0783  0.1035
   57DOPE   H6R 7270   2.281   1.654   3.834 -0.0013 -0.0024  3.1792
   57DOPE   H6S 7271   2.129   1.701   3.750  2.3777 -3.0901 -0.8960
   57DOPE   C27 7272   2.135   1.774   3.949 -0.4050  0.0755  0.7863
   57DOPE   H7R 7273   2.055   1.849   3.932 -0.8895 -0.1196  2.0697
   57DOPE   H7S 7274   2.206   1.823   4.018  1.4553 -0.4726 -0.6542
   57DOPE   C28 7275   2.088   1.648   4.027  0.0737  0.6588 -0.6386
   57DOPE   H8R 7276   2.181   1.589   4.041 -0.8983 -0.6301  0.7686
   57DOPE   H8S 7277   2.015   1.585   3.971 -1.5125  0.5526  1.4116
   57DOPE   C29 7278   2.028   1.679   4.163 -0.0108  0.4493  0.5276
   57DOPE   H9R 7279   1.946   1.752   4.157 -2.3078 -2.1205 -2.1842
   57DOPE  C210 7280   2.082   1.627   4.279 -0.2954 -0.0369  0.6074
   57DOPE  H10R 7281   2.036   1.665   4.372  1.2124  1.6503  0.6995
   57DOPE  C211 7282   2.206   1.540   4.299 -0.1988  0.4062  0.1234
   57DOPE  H11R 7283   2.283   1.605   4.346 -0.1765  1.3370 -1.1390
   57DOPE  H11S 7284   2.250   1.512   4.201  0.1389  0.1574  0.3466
   57DOPE  C212 7285   2.191   1.397   4.358  0.0473 -0.3684 -0.6936
   57DOPE  H12R 7286   2.278   1.334   4.330  0.3835  0.4817 -1.6273
   57DOPE  H12S 7287   2.101   1.343   4.321  0.0648  1.2153 -3.3435
   57DOPE  C213 7288   2.198   1.408   4.511 -0.0995 -0.4386  0.0623
   57DOPE  H13R 7289   2.158   1.508   4.539 -0.0697 -0.6040  0.7121
   57DOPE  H13S 7290   2.304   1.420   4.543 -0.7714  3.4008  1.3778
   57DOPE  C214 7291   2.145   1.280   4.587 -0.7999 -0.2038  0.4146
   57DOPE  H14R 7292   2.175   1.190   4.529 -0.8449  1.0304 -1.6521
   57DOPE  H14S 7293   2.035   1.286   4.581 -0.8298 -1.0241  0.1244
   57DOPE  C215 7294   2.190   1.266   4.733 -0.1239 -0.6162  0.6894
   57DOPE  H15R 7295   2.190   1.363   4.787  1.2598 -1.0762  1.5524
   57DOPE  H15S 7296   2.294   1.229   4.744  0.0951  0.3143  2.0223
   57DOPE  C216 7297   2.098   1.155   4.794 -0.0238  0.5632  0.3268
   57DOPE  H16R 7298   2.086   1.070   4.723 -1.4272  1.1400 -0.1734
   57DOPE  H16S 7299   1.995   1.198   4.788 -0.6155 -0.7533  0.5852
   57DOPE  C217 7300   2.143   1.119   4.936  0.2873 -0.0003 -0.4309
   57DOPE  H17R 7301   2.060   1.087   5.002  0.1782  2.1018  0.5216
   57DOPE  H17S 7302   2.173   1.211   4.991 -2.0783 -0.5617  2.0084
   57DOPE  C218 7303   2.247   1.011   4.942  0.4776 -0.2011 -0.8245
   57DOPE  H18R 7304   2.200   0.912   4.921 -2.8262  1.6629 -3.0960
   57DOPE  H18S 7305   2.294   1.008   5.043 -0.8174  0.7950 -0.1651
   57DOPE  H18T 7306   2.330   1.032   4.872  0.3844  1.5748 -0.4478
   57DOPE   C33 7307   1.842   2.030   3.728 -0.1432  0.8486 -0.7581
   57DOPE   H3X 7308   1.843   2.117   3.797 -0.1969 -0.0803  0.4446
   57DOPE   H3Y 7309   1.943   1.983   3.732 -0.3503  0.4662  0.0391
   57DOPE   C34 7310   1.730   1.941   3.784  0.5094  0.2406 -0.2827
   57DOPE   H4X 7311   1.632   1.994   3.786 -0.7115 -1.9192  0.5090
   57DOPE   H4Y 7312   1.705   1.852   3.723  0.0160  0.1767  0.0091
   57DOPE   C35 7313   1.760   1.912   3.937 -0.2250  0.1501 -0.1130
   57DOPE   H5X 7314   1.826   1.990   3.980  2.8352 -1.7409 -1.0892
   57DOPE   H5Y 7315   1.804   1.810   3.937  2.8901  1.3653 -1.9304
   57DOPE   C36 7316   1.638   1.914   4.032 -0.0042  0.6414  0.5306
   57DOPE   H6X 7317   1.580   1.824   4.000 -1.3643  1.1557  1.4567
   57DOPE   H6Y 7318   1.571   1.997   3.999  0.6649 -0.0306 -2.8782
   57DOPE   C37 7319   1.678   1.894   4.176 -0.1126 -0.3667  0.4129
   57DOPE   H7X 7320   1.766   1.828   4.193 -0.6874 -0.9531  1.1414
   57DOPE   H7Y 7321   1.712   1.998   4.196 -0.2332 -0.6528  2.2483
   57DOPE   C38 7322   1.564   1.880   4.276 -0.0292  0.3147 -0.5290
   57DOPE   H8X 7323   1.475   1.942   4.249 -0.7349  0.5985  2.2270
   57DOPE   H8Y 7324   1.595   1.923   4.373 -0.6658  0.8482 -0.5511
   57DOPE   C39 7325   1.529   1.733   4.293 -0.0253 -0.3238 -0.1414
   57DOPE   H9X 7326   1.448   1.693   4.231 -0.2770  0.0877 -0.0768
   57DOPE  C310 7327   1.588   1.654   4.389  0.1950  0.3327  0.1359
   57DOPE  H10X 7328   1.567   1.547   4.377 -2.6689  0.9389 -1.2702
   57DOPE  C311 7329   1.700   1.705   4.485  0.1360  0.5784  0.3143
   57DOPE  H11X 7330   1.783   1.634   4.504  0.8841  0.4000 -3.0058
   57DOPE  H11Y 7331   1.761   1.779   4.431  0.9568 -1.0134 -1.0390
   57DOPE  C312 7332   1.649   1.754   4.619 -0.7078 -0.0299 -0.1148
   57DOPE  H12X 7333   1.570   1.831   4.607 -0.7995  0.1529  1.4626
   57DOPE  H12Y 7334   1.739   1.790   4.673  0.0422 -1.7026 -0.1924
   57DOPE  C313 7335   1.572   1.646   4.702 -0.0177 -0.3716  0.2939
   57DOPE  H13X 7336   1.551   1.687   4.803  1.6769  1.3146  0.0245
   57DOPE  H13Y 7337   1.474   1.617   4.659 -0.2926  0.7750  0.1239
   57DOPE  C314 7338   1.665   1.518   4.735 -0.2009 -0.3608  0.1064
   57DOPE  H14X 7339   1.729   1.545   4.822  2.0213  1.1267 -1.8622
   57DOPE  H14Y 7340   1.736   1.498   4.651 -2.9143  0.3275 -2.5223
   57DOPE  C315 7341   1.585   1.385   4.758  0.0084 -0.0632 -0.0562
   57DOPE  H15X 7342   1.634   1.293   4.718  1.2530  1.3369 -1.9560
   57DOPE  H15Y 7343   1.492   1.384   4.697  0.0456 -0.5332 -0.1131
   57DOPE  C316 7344   1.548   1.349   4.903  0.1548 -0.0721  0.5417
   57DOPE  H16X 7345   1.442   1.376   4.919  0.0492 -0.9297  1.4515
   57DOPE  H16Y 7346   1.593   1.422   4.973  0.2777 -0.7829  1.2247
   57DOPE  C317 7347   1.573   1.206   4.938 -0.9268 -0.3884 -0.2091
   57DOPE  H17X 7348   1.502   1.187   5.021  0.7809 -1.8442  0.9852
   57DOPE  H17Y 7349   1.554   1.135   4.854 -2.7842  1.8464 -1.8071
   57DOPE  C318 7350   1.721   1.182   4.991  0.3633 -0.0744  0.4853
   57DOPE  H18X 7351   1.717   1.216   5.097 -0.4905  2.4660 -0.2889
   57DOPE  H18Y 7352   1.734   1.073   4.978  0.4990 -0.0620  0.5209
   57DOPE  H18Z 7353   1.795   1.241   4.935 -1.7516 -0.0374 -2.4961
   58DOPE     N 7354   6.687   7.163   3.049 -0.6809  0.0849 -0.1023
   58DOPE   HN1 7355   6.720   7.238   3.112 -0.6647 -0.6490  0.7842
   58DOPE   HN2 7356   6.609   7.199   2.990 -1.1099 -1.5400 -0.5780
   58DOPE   HN3 7357   6.657   7.079   3.103 -0.3085 -1.3847 -2.0607
   58DOPE   C12 7358   6.804   7.131   2.959  0.5387 -0.2906 -0.4463
   58DOPE  H12A 7359   6.891   7.110   3.024  0.3658  0.9790  0.2079
   58DOPE  H12B 7360   6.826   7.225   2.905  0.5600  0.3976  0.7447
   58DOPE   C11 7361   6.769   7.025   2.854 -0.4056  0.2883 -0.2719
   58DOPE  H11A 7362   6.856   6.997   2.791  0.3348  0.0936  0.8158
   58DOPE  H11B 7363   6.696   7.068   2.782 -0.9044  0.2498  0.2023
   58DOPE     P 7364   6.564   6.859   2.907  0.3306  0.4699 -0.0985
   58DOPE   O13 7365   6.559   6.734   2.986 -0.3120  0.2655 -0.2201
   58DOPE   O14 7366   6.510   6.849   2.769  0.0705 -0.3731 -0.6020
   58DOPE   O11 7367   6.500   6.980   2.993 -0.2671 -0.1330 -0.7884
   58DOPE   O12 7368   6.717   6.911   2.914 -0.3233 -0.2530  0.1904
   58DOPE    C1 7369   6.365   6.984   3.042  0.0405 -0.0078  0.0569
   58DOPE    HA 7370   6.318   6.884   3.050 -1.9376  0.9748  1.6376
   58DOPE    HB 7371   6.304   7.036   2.965  0.5930 -1.0776 -1.1207
   58DOPE    C2 7372   6.354   7.047   3.184 -0.3511  0.6503  0.1958
   58DOPE    HS 7373   6.405   7.145   3.184 -1.6638  1.4232  2.9107
   58DOPE   O21 7374   6.408   6.945   3.281  0.2060 -0.3819  0.1299
   58DOPE   C21 7375   6.535   6.944   3.302  0.6893 -0.3136 -0.1838
   58DOPE   O22 7376   6.614   7.012   3.242 -0.1528 -0.0539  0.2704
   58DOPE   C22 7377   6.571   6.849   3.419 -0.0899 -0.1023  0.6760
   58DOPE   H2R 7378   6.677   6.817   3.412 -0.0827 -0.0061  0.2802
   58DOPE   H2S 7379   6.508   6.758   3.412 -0.9047  0.4359  0.7675
   58DOPE    C3 7380   6.217   7.079   3.220 -0.3040  0.0893  0.4973
   58DOPE    HX 7381   6.141   7.007   3.182 -1.5625  1.6149  0.0237
   58DOPE    HY 7382   6.178   7.162   3.158 -0.3757 -0.5516 -0.3305
   58DOPE   O31 7383   6.203   7.112   3.357  0.1753 -0.3617 -0.0250
   58DOPE   C31 7384   6.166   7.019   3.447 -0.0930  0.5770 -0.1475
   58DOPE   O32 7385   6.127   6.907   3.421 -0.1501  0.1648 -0.1139
   58DOPE   C32 7386   6.162   7.085   3.582 -0.5172  0.6300  0.0516
   58DOPE   H2X 7387   6.262   7.120   3.614 -1.9273  3.5299  1.6489
   58DOPE   H2Y 7388   6.089   7.168   3.573 -0.6725  0.4164 -0.7129
   58DOPE   C23 7389   6.538   6.906   3.554  0.0422  0.8415 -0.0863
   58DOPE   H3R 7390   6.436   6.947   3.543 -0.1250  0.5150  0.2460
   58DOPE   H3S 7391   6.604   6.991   3.585  1.3635 -0.9284  2.3558
   58DOPE   C24 7392   6.556   6.796   3.660 -0.3516 -0.4654 -0.2348
   58DOPE   H4R 7393   6.666   6.781   3.672 -0.6082 -1.4743  1.0393
   58DOPE   H4S 7394   6.512   6.700   3.625  0.8937 -1.4371  0.7420
   58DOPE   C25 7395   6.511   6.830   3.801 -0.1968 -0.1514  0.0023
   58DOPE   H5R 7396   6.401   6.846   3.793 -0.4560 -1.5836  0.4589
   58DOPE   H5S 7397   6.555   6.924   3.841 -0.4880  1.2512 -2.7502
   58DOPE   C26 7398   6.512   6.717   3.895  0.2772 -0.0407  0.3812
   58DOPE   H6R 7399   6.619   6.690   3.913  1.0352  2.2268 -0.3854
   58DOPE   H6S 7400   6.461   6.619   3.880  0.4233  0.1870 -1.9309
   58DOPE   C27 7401   6.466   6.769   4.037 -0.1755 -0.4319 -0.7972
   58DOPE   H7R 7402   6.355   6.772   4.040 -0.1898  0.9031 -1.6500
   58DOPE   H7S 7403   6.479   6.878   4.053 -3.0303 -0.2885  1.3550
   58DOPE   C28 7404   6.523   6.681   4.149  0.2892 -0.1244  0.0791
   58DOPE   H8R 7405   6.508   6.577   4.115  0.2471  0.0465 -0.4389
   58DOPE   H8S 7406   6.465   6.707   4.240 -0.0686  1.5816 -0.5968
   58DOPE   C29 7407   6.661   6.739   4.180 -0.0249 -0.6799  0.7659
   58DOPE   H9R 7408   6.735   6.726   4.100 -0.7693 -0.3478  0.0194
   58DOPE  C210 7409   6.705   6.800   4.291 -0.4055  0.7780  0.5021
   58DOPE  H10R 7410   6.808   6.838   4.290 -0.2615  0.3758 -0.0785
   58DOPE  C211 7411   6.620   6.820   4.417 -0.4818  0.0438 -0.0438
   58DOPE  H11R 7412   6.521   6.858   4.386 -1.3810 -1.8610  0.3321
   58DOPE  H11S 7413   6.675   6.888   4.485 -0.3708 -0.0829 -0.0071
   58DOPE  C212 7414   6.601   6.690   4.503  0.6863  0.4163 -0.2316
   58DOPE  H12R 7415   6.697   6.634   4.510  0.7302  0.4246 -0.6913
   58DOPE  H12S 7416   6.532   6.629   4.440 -0.7363  2.6513 -0.9724
   58DOPE  C213 7417   6.535   6.711   4.636 -0.0247  0.4512 -0.3433
   58DOPE  H13R 7418   6.487   6.614   4.664 -0.4373  1.4493  2.7781
   58DOPE  H13S 7419   6.456   6.786   4.614 -0.0288  0.4005 -0.4965
   58DOPE  C214 7420   6.623   6.765   4.746  0.1277 -0.5961  0.0025
   58DOPE  H14R 7421   6.653   6.867   4.714  1.1314 -0.0589  2.4374
   58DOPE  H14S 7422   6.714   6.706   4.770 -0.0405 -1.0329 -0.4113
   58DOPE  C215 7423   6.538   6.783   4.873  0.7715 -0.1807 -0.2205
   58DOPE  H15R 7424   6.542   6.690   4.933  1.9837  1.0848  1.7818
   58DOPE  H15S 7425   6.433   6.813   4.852  1.0884  1.3997  0.3165
   58DOPE  C216 7426   6.590   6.889   4.969 -0.7605 -0.4435  0.5804
   58DOPE  H16R 7427   6.558   6.987   4.925 -1.2628  0.5705  3.0401
   58DOPE  H16S 7428   6.701   6.883   4.970 -0.7761 -1.8902 -1.2439
   58DOPE  C217 7429   6.533   6.883   5.110  0.2432 -0.3749 -0.0336
   58DOPE  H17R 7430   6.569   6.791   5.160  0.5580  0.0109  0.4695
   58DOPE  H17S 7431   6.424   6.866   5.100  0.0634  0.4524  0.4208
   58DOPE  C218 7432   6.560   7.000   5.195  0.4199 -0.0684 -0.6176
   58DOPE  H18R 7433   6.506   7.002   5.292 -0.6402  2.7789 -1.1385
   58DOPE  H18S 7434   6.533   7.095   5.144 -0.3265 -0.1633 -0.4113
   58DOPE  H18T 7435   6.670   6.992   5.207  0.1772 -1.6510  0.8553
   58DOPE   C33 7436   6.098   6.993   3.692  0.1539 -0.0756 -0.7817
   58DOPE   H3X 7437   6.155   6.898   3.687  0.7674  0.0534  2.0470
   58DOPE   H3Y 7438   5.990   6.987   3.665  0.1000  1.1919 -0.9102
   58DOPE   C34 7439   6.101   7.041   3.842 -0.3497 -0.2771  0.3814
   58DOPE   H4X 7440   6.200   7.088   3.861 -1.1730  1.1137  1.4486
   58DOPE   H4Y 7441   6.023   7.120   3.850 -1.9403 -1.5482 -1.6197
   58DOPE   C35 7442   6.084   6.930   3.945  0.2897 -0.6005 -0.0089
   58DOPE   H5X 7443   6.162   6.855   3.920  1.1368  0.2655 -0.0124
   58DOPE   H5Y 7444   5.980   6.892   3.939 -0.1881  0.5084  0.9060
   58DOPE   C36 7445   6.106   6.979   4.093  1.4962  0.1098 -0.2924
   58DOPE   H6X 7446   6.053   7.076   4.104 -0.2367 -0.6910 -1.1231
   58DOPE   H6Y 7447   6.210   7.005   4.121  1.9395 -2.0200  0.1614
   58DOPE   C37 7448   6.046   6.875   4.191  0.7993 -0.5756  0.1714
   58DOPE   H7X 7449   5.945   6.845   4.156  0.9536 -2.3284  1.0765
   58DOPE   H7Y 7450   6.104   6.780   4.189  0.3863 -0.8213 -0.1833
   58DOPE   C38 7451   6.031   6.921   4.337  0.5705  0.1079  0.3685
   58DOPE   H8X 7452   5.960   6.849   4.385  0.3953  0.3850  0.5304
   58DOPE   H8Y 7453   5.980   7.019   4.349  1.6565  0.7369 -0.0290
   58DOPE   C39 7454   6.162   6.935   4.409  0.3801  0.2939  0.4724
   58DOPE   H9X 7455   6.247   6.981   4.357 -1.1234  3.8499  0.7971
   58DOPE  C310 7456   6.175   6.900   4.541 -0.5612  0.2351 -0.6346
   58DOPE  H10X 7457   6.269   6.915   4.595 -1.5063  3.6101  0.2781
   58DOPE  C311 7458   6.060   6.843   4.622 -0.6919 -0.0802  0.6227
   58DOPE  H11X 7459   5.977   6.915   4.608  1.1384  2.0408  0.0575
   58DOPE  H11Y 7460   6.036   6.738   4.594 -0.3503 -0.6421  2.3669
   58DOPE  C312 7461   6.089   6.832   4.771 -0.5441  0.1542  0.6189
   58DOPE  H12X 7462   6.162   6.753   4.797 -0.5043 -0.4036 -1.0723
   58DOPE  H12Y 7463   5.993   6.801   4.819  0.3231 -0.1827  2.2148
   58DOPE  C313 7464   6.130   6.965   4.837 -0.3279  0.8750 -0.1420
   58DOPE  H13X 7465   6.233   6.986   4.802 -0.2795  0.3561 -0.3233
   58DOPE  H13Y 7466   6.072   7.053   4.802 -2.1086  0.1567  0.8625
   58DOPE  C314 7467   6.120   6.960   4.991 -0.2241 -0.0823 -0.2590
   58DOPE  H14X 7468   6.184   6.876   5.027  0.8056  0.1400 -1.5209
   58DOPE  H14Y 7469   6.017   6.946   5.031 -0.3304  0.2723 -0.4092
   58DOPE  C315 7470   6.189   7.089   5.045 -0.1663 -0.6414 -0.8756
   58DOPE  H15X 7471   6.137   7.179   5.005 -0.8298 -0.5506  0.1444
   58DOPE  H15Y 7472   6.295   7.091   5.013  0.0899 -1.7679 -0.1445
   58DOPE  C316 7473   6.182   7.088   5.200  0.0565  0.2391  0.8535
   58DOPE  H16X 7474   6.291   7.093   5.222  0.0382  0.1208  0.9756
   58DOPE  H16Y 7475   6.150   6.991   5.244  0.6070  1.0238  3.1336
   58DOPE  C317 7476   6.107   7.207   5.263  0.2924 -0.7672 -0.2653
   58DOPE  H17X 7477   6.135   7.205   5.371  1.5249  0.1853 -0.5457
   58DOPE  H17Y 7478   6.137   7.300   5.211 -0.6071 -0.6341 -0.5600
   58DOPE  C318 7479   5.952   7.187   5.260  0.3064  0.2669 -0.1050
   58DOPE  H18X 7480   5.899   7.232   5.346  0.2043 -0.8033  0.4059
   58DOPE  H18Y 7481   5.918   7.235   5.166 -2.0923  0.3851  0.7810
   58DOPE  H18Z 7482   5.924   7.080   5.261  0.5686  0.1762 -0.9801
   59DOPE     N 7483   0.131   1.048   2.897  0.6154  0.3413 -0.2714
   59DOPE   HN1 7484   0.040   1.099   2.904  0.6279  0.2020  1.2218
   59DOPE   HN2 7485   0.195   1.102   2.835  2.3212 -0.6127  0.5913
   59DOPE   HN3 7486   0.110   0.951   2.867 -1.8443  1.0727 -1.1813
   59DOPE   C12 7487   0.202   1.046   3.033  0.1242  0.1801  0.6017
   59DOPE  H12A 7488   0.295   0.989   3.014 -0.1490 -0.3755  0.8973
   59DOPE  H12B 7489   0.125   1.006   3.103  0.3140  0.1486  0.7920
   59DOPE   C11 7490   0.243   1.184   3.092  0.5392 -0.4158 -0.0752
   59DOPE  H11A 7491   0.267   1.186   3.201 -0.5147  0.2293  0.1634
   59DOPE  H11B 7492   0.162   1.259   3.103  0.7400 -0.1982 -0.0839
   59DOPE     P 7493   0.498   1.201   3.033  0.4872 -0.0529 -0.0883
   59DOPE   O13 7494   0.579   1.323   3.010 -0.5269  0.0806 -0.3753
   59DOPE   O14 7495   0.520   1.081   2.945 -0.3534 -0.6621  0.1581
   59DOPE   O11 7496   0.513   1.153   3.179  0.0782 -0.0561 -0.1252
   59DOPE   O12 7497   0.345   1.235   3.013  0.2768 -0.1895  0.0622
   59DOPE    C1 7498   0.489   1.242   3.285 -0.0362  0.7276 -0.1963
   59DOPE    HA 7499   0.420   1.194   3.358 -0.0647 -0.5463 -1.0319
   59DOPE    HB 7500   0.445   1.339   3.257 -1.5872  0.0638 -0.1538
   59DOPE    C2 7501   0.625   1.259   3.360  0.1094  0.4296  0.4288
   59DOPE    HS 7502   0.695   1.308   3.289  1.1612 -1.9256 -0.2438
   59DOPE   O21 7503   0.668   1.122   3.386  0.1565  0.3116 -0.7145
   59DOPE   C21 7504   0.795   1.097   3.372 -0.1668 -0.2596 -0.3034
   59DOPE   O22 7505   0.879   1.172   3.329  0.4780 -0.0846  0.1827
   59DOPE   C22 7506   0.835   0.970   3.441  0.1575 -0.0526  1.3733
   59DOPE   H2R 7507   0.848   0.893   3.362 -1.0787 -0.6364  1.7112
   59DOPE   H2S 7508   0.753   0.938   3.509 -1.9670 -2.6904 -2.1106
   59DOPE    C3 7509   0.617   1.337   3.493 -0.3770 -0.4886 -0.4812
   59DOPE    HX 7510   0.510   1.335   3.525 -0.1446 -0.5601  0.2938
   59DOPE    HY 7511   0.625   1.447   3.478 -1.3291 -0.6748 -2.7966
   59DOPE   O31 7512   0.710   1.291   3.593  0.1735  0.5934 -0.2271
   59DOPE   C31 7513   0.652   1.223   3.694  0.2652 -0.1107 -0.0037
   59DOPE   O32 7514   0.533   1.193   3.705  0.4087 -0.1094 -0.2514
   59DOPE   C32 7515   0.759   1.192   3.795 -0.1142  0.3468 -0.0487
   59DOPE   H2X 7516   0.822   1.112   3.752 -0.7668 -0.0842 -0.2198
   59DOPE   H2Y 7517   0.823   1.283   3.803  0.9509 -0.4407  0.6251
   59DOPE   C23 7518   0.966   0.977   3.523  0.0191  0.1867  0.2276
   59DOPE   H3R 7519   0.989   1.077   3.565  0.4199 -0.1323  0.7914
   59DOPE   H3S 7520   1.045   0.946   3.451  0.1842  1.0952  0.0044
   59DOPE   C24 7521   0.977   0.877   3.643 -0.0393  0.2574 -0.2982
   59DOPE   H4R 7522   0.882   0.870   3.701  0.6261  1.1283  0.9514
   59DOPE   H4S 7523   1.046   0.925   3.716  2.0623 -0.4398 -1.7432
   59DOPE   C25 7524   1.045   0.739   3.606  0.0210  0.2616 -0.9781
   59DOPE   H5R 7525   1.138   0.745   3.546 -0.2562 -0.8150 -1.5266
   59DOPE   H5S 7526   0.984   0.687   3.529 -0.8433  0.6214 -0.5574
   59DOPE   C26 7527   1.059   0.637   3.719 -0.0260 -0.0362  0.2811
   59DOPE   H6R 7528   0.957   0.609   3.750  0.3680 -0.3776  1.2991
   59DOPE   H6S 7529   1.106   0.688   3.806  0.3118 -1.0716  0.7162
   59DOPE   C27 7530   1.145   0.517   3.676  0.4761  0.5929  0.4029
   59DOPE   H7R 7531   1.237   0.565   3.637 -0.7005  1.0200 -2.0065
   59DOPE   H7S 7532   1.107   0.459   3.590  1.2027 -0.4177  0.7344
   59DOPE   C28 7533   1.171   0.398   3.781  0.5140 -0.2978 -0.0619
   59DOPE   H8R 7534   1.197   0.436   3.882 -0.9639 -0.5449  0.4338
   59DOPE   H8S 7535   1.251   0.330   3.745  0.9838 -0.1068  0.5972
   59DOPE   C29 7536   1.047   0.311   3.799  0.4055 -0.4344  0.5489
   59DOPE   H9R 7537   0.981   0.298   3.712  2.4341  1.3152 -1.3582
   59DOPE  C210 7538   1.002   0.245   3.903 -0.3940 -0.1540  0.4832
   59DOPE  H10R 7539   0.896   0.218   3.917  0.1378 -1.9886  1.3189
   59DOPE  C211 7540   1.077   0.244   4.039 -0.5468  0.1312 -0.0318
   59DOPE  H11R 7541   1.016   0.296   4.115  0.7262 -0.1983  1.2632
   59DOPE  H11S 7542   1.180   0.284   4.028 -0.3936 -0.8052 -3.1706
   59DOPE  C212 7543   1.081   0.100   4.082 -0.2914  0.7780 -0.6001
   59DOPE  H12R 7544   1.126   0.030   4.009 -0.3213 -1.5040  1.4325
   59DOPE  H12S 7545   0.978   0.058   4.089 -0.1924  0.7746  1.6502
   59DOPE  C213 7546   1.144   0.083   4.225 -1.1511 -0.2584  0.9084
   59DOPE  H13R 7547   1.106   0.158   4.297  2.1623  1.1888  1.3543
   59DOPE  H13S 7548   1.253   0.108   4.224 -0.8541 -1.4725  0.7591
   59DOPE  C214 7549   1.125  -0.056   4.282  0.2204  0.2369  0.5056
   59DOPE  H14R 7550   1.159  -0.126   4.202  1.6955  0.3343  1.0093
   59DOPE  H14S 7551   1.015  -0.065   4.282  0.0492  1.4135 -2.1851
   59DOPE  C215 7552   1.176  -0.090   4.423 -0.8127  0.6535 -0.4925
   59DOPE  H15R 7553   1.133  -0.018   4.496 -1.6163 -0.0687 -0.2477
   59DOPE  H15S 7554   1.285  -0.065   4.422 -1.3984  3.7150  0.2878
   59DOPE  C216 7555   1.148  -0.233   4.462 -0.3619 -0.1710 -0.0591
   59DOPE  H16R 7556   1.208  -0.255   4.553 -1.2635  2.0786  1.1525
   59DOPE  H16S 7557   1.185  -0.306   4.387  1.5583 -0.3627  0.9938
   59DOPE  C217 7558   1.003  -0.255   4.496 -0.1334  0.2022 -0.0124
   59DOPE  H17R 7559   0.945  -0.262   4.402 -0.2889 -0.6111  0.1346
   59DOPE  H17S 7560   0.958  -0.174   4.557  0.6473  0.8455 -0.2701
   59DOPE  C218 7561   0.982  -0.396   4.565  0.3473 -0.2203 -0.9897
   59DOPE  H18R 7562   0.996  -0.399   4.675 -1.4688  3.0236 -0.5407
   59DOPE  H18S 7563   1.063  -0.464   4.529  2.4940  1.2452  0.7750
   59DOPE  H18T 7564   0.879  -0.428   4.537  0.1165  0.9101 -1.5120
   59DOPE   C33 7565   0.709   1.155   3.934  0.4531  0.1447 -0.1928
   59DOPE   H3X 7566   0.605   1.118   3.933  0.6862 -0.5315  0.0912
   59DOPE   H3Y 7567   0.719   1.236   4.010 -0.5523  0.1352 -0.0358
   59DOPE   C34 7568   0.793   1.043   3.981 -0.4499 -0.2083 -0.1235
   59DOPE   H4X 7569   0.790   0.963   3.903  2.1627  1.3282 -1.9766
   59DOPE   H4Y 7570   0.901   1.070   3.985 -0.5533  0.0687  0.8035
   59DOPE   C35 7571   0.756   0.988   4.121  0.0488 -0.3707 -1.1433
   59DOPE   H5X 7572   0.659   0.934   4.119 -1.7707  2.3174  2.9207
   59DOPE   H5Y 7573   0.752   1.060   4.204  1.3006  0.0832 -1.4543
   59DOPE   C36 7574   0.860   0.874   4.165 -0.1331 -0.1504  0.7380
   59DOPE   H6X 7575   0.819   0.835   4.261  0.4687  1.3332  1.6353
   59DOPE   H6Y 7576   0.954   0.919   4.202 -1.3297  0.9787  2.5410
   59DOPE   C37 7577   0.880   0.763   4.063 -0.0704  0.4203 -0.6072
   59DOPE   H7X 7578   0.780   0.731   4.024 -0.5509  0.7263  0.3616
   59DOPE   H7Y 7579   0.952   0.800   3.986  0.6659 -0.8897 -0.5771
   59DOPE   C38 7580   0.956   0.637   4.120  0.6131  0.3351 -0.6059
   59DOPE   H8X 7581   0.981   0.570   4.035  0.0890  1.0342 -1.3426
   59DOPE   H8Y 7582   0.875   0.611   4.191  0.6164  2.9752  0.4784
   59DOPE   C39 7583   1.073   0.673   4.195 -0.4680 -0.1942 -0.6908
   59DOPE   H9X 7584   1.140   0.748   4.151  0.6893  0.9439  2.7427
   59DOPE  C310 7585   1.119   0.626   4.317 -0.3412 -0.5252 -0.1749
   59DOPE  H10X 7586   1.219   0.657   4.350 -0.8808 -1.3126  2.4411
   59DOPE  C311 7587   1.054   0.520   4.401  0.0821  0.2162  0.2609
   59DOPE  H11X 7588   0.974   0.575   4.454  0.2382  0.3872  0.3222
   59DOPE  H11Y 7589   1.002   0.440   4.344  0.9243 -1.3888  1.6800
   59DOPE  C312 7590   1.144   0.448   4.510 -0.4425  0.3731  1.3249
   59DOPE  H12X 7591   1.180   0.522   4.584  0.8271  0.6992  0.4145
   59DOPE  H12Y 7592   1.218   0.393   4.448  1.0181  1.4836  2.0143
   59DOPE  C313 7593   1.064   0.351   4.596 -0.1560  0.1502 -0.3449
   59DOPE  H13X 7594   0.977   0.410   4.633  2.6933  4.8726 -0.3349
   59DOPE  H13Y 7595   1.032   0.256   4.548 -0.9156  0.6090 -0.7661
   59DOPE  C314 7596   1.142   0.303   4.714 -0.1051  0.7429  0.0308
   59DOPE  H14X 7597   1.164   0.395   4.772 -0.3371  1.0518 -0.3615
   59DOPE  H14Y 7598   1.222   0.255   4.654 -1.4790 -1.4563 -0.1392
   59DOPE  C315 7599   1.077   0.188   4.802  0.2278 -0.3631  0.5845
   59DOPE  H15X 7600   1.152   0.157   4.877  1.0436  1.5945  0.6398
   59DOPE  H15Y 7601   1.071   0.103   4.731  2.8565  0.0202 -0.1702
   59DOPE  C316 7602   0.939   0.210   4.853  0.1197 -0.1696  0.1718
   59DOPE  H16X 7603   0.903   0.111   4.889  2.3005 -1.0446  0.1132
   59DOPE  H16Y 7604   0.870   0.246   4.774 -2.6174 -2.4455  1.3424
   59DOPE  C317 7605   0.934   0.311   4.967  0.0783 -0.2539  0.2926
   59DOPE  H17X 7606   0.955   0.268   5.067  2.4142  1.0166  0.4355
   59DOPE  H17Y 7607   1.019   0.379   4.944 -0.5650  0.5849  0.3436
   59DOPE  C318 7608   0.794   0.386   4.965 -0.3750 -0.0698 -0.5730
   59DOPE  H18X 7609   0.810   0.472   5.033 -0.3248 -1.4182  1.1801
   59DOPE  H18Y 7610   0.762   0.416   4.863  0.3680  1.1509 -0.4573
   59DOPE  H18Z 7611   0.715   0.319   5.006 -1.2280 -0.2286 -2.3748
   60DOPE     N 7612   0.685   6.223   2.543  0.5689  0.1679 -0.6218
   60DOPE   HN1 7613   0.583   6.244   2.550  0.3990 -0.6641 -0.4845
   60DOPE   HN2 7614   0.724   6.226   2.640  0.3951  0.2781 -0.5540
   60DOPE   HN3 7615   0.737   6.292   2.486  0.5639  1.1203  0.4874
   60DOPE   C12 7616   0.719   6.090   2.486 -0.2837  0.0834 -0.1260
   60DOPE  H12A 7617   0.830   6.083   2.484  0.1100  4.1305  0.0096
   60DOPE  H12B 7618   0.681   6.092   2.382  0.7327  1.8713 -0.5025
   60DOPE   C11 7619   0.649   5.968   2.553 -0.9764 -0.3286 -0.4737
   60DOPE  H11A 7620   0.673   5.886   2.482  0.6662 -1.8399  1.7000
   60DOPE  H11B 7621   0.543   6.000   2.566 -0.8504 -0.4935  1.1319
   60DOPE     P 7622   0.735   5.819   2.759 -0.1950  0.3050 -0.1824
   60DOPE   O13 7623   0.878   5.818   2.789 -0.6378  0.4349  0.0478
   60DOPE   O14 7624   0.681   5.695   2.695 -0.2210  0.1179 -0.7619
   60DOPE   O11 7625   0.653   5.834   2.892 -0.1900  0.0709 -0.8391
   60DOPE   O12 7626   0.695   5.953   2.683 -0.6294 -0.7284 -0.1490
   60DOPE    C1 7627   0.702   5.774   3.008 -0.3766 -0.4848 -0.1017
   60DOPE    HA 7628   0.780   5.837   3.055 -1.7261 -0.3817  2.1653
   60DOPE    HB 7629   0.736   5.671   2.982 -0.7799 -0.4712 -0.7108
   60DOPE    C2 7630   0.588   5.769   3.123  0.1087  0.6932 -0.5146
   60DOPE    HS 7631   0.508   5.709   3.073  0.7399 -2.9268  2.3762
   60DOPE   O21 7632   0.546   5.903   3.147  0.0310 -0.2056 -0.8073
   60DOPE   C21 7633   0.419   5.921   3.173  0.5050 -0.2406  0.1616
   60DOPE   O22 7634   0.331   5.838   3.155 -0.1558 -1.2007 -0.0262
   60DOPE   C22 7635   0.388   6.069   3.198 -0.4538 -0.0630  0.1242
   60DOPE   H2R 7636   0.415   6.119   3.103  0.1015 -1.6374 -0.5975
   60DOPE   H2S 7637   0.457   6.100   3.279 -0.4018  1.5505 -0.5009
   60DOPE    C3 7638   0.637   5.694   3.257 -0.6277  0.0220 -0.3528
   60DOPE    HX 7639   0.726   5.753   3.287  0.1919 -1.8159  1.0365
   60DOPE    HY 7640   0.674   5.591   3.235 -0.2146 -0.3079  1.6271
   60DOPE   O31 7641   0.543   5.691   3.365 -0.5175  0.3089  0.1085
   60DOPE   C31 7642   0.557   5.780   3.459  0.1974 -0.2550  0.5744
   60DOPE   O32 7643   0.654   5.853   3.476 -0.2938 -0.4051 -0.4966
   60DOPE   C32 7644   0.432   5.781   3.545  0.8088 -0.3107 -0.1384
   60DOPE   H2X 7645   0.367   5.856   3.494  0.2964 -0.2613  0.5828
   60DOPE   H2Y 7646   0.382   5.682   3.544  0.0674  0.0468  0.6648
   60DOPE   C23 7647   0.246   6.102   3.242 -0.4883 -0.3881  0.4943
   60DOPE   H3R 7648   0.178   6.043   3.177 -0.3228  0.8514 -0.8625
   60DOPE   H3S 7649   0.224   6.210   3.229 -0.1534 -0.0908  2.0889
   60DOPE   C24 7650   0.209   6.067   3.392 -0.2251 -0.2155 -0.1297
   60DOPE   H4R 7651   0.297   6.102   3.451 -0.6767 -1.4343  1.3006
   60DOPE   H4S 7652   0.210   5.956   3.398  2.3795 -0.3026 -0.7771
   60DOPE   C25 7653   0.084   6.138   3.443 -0.6719  0.0961  0.2654
   60DOPE   H5R 7654   0.005   6.100   3.374  1.2653 -1.9188 -0.9707
   60DOPE   H5S 7655   0.105   6.246   3.430  0.5645 -0.0526  0.8892
   60DOPE   C26 7656   0.036   6.103   3.584  0.4549 -0.1984  0.4714
   60DOPE   H6R 7657   0.034   5.993   3.598  1.0930 -0.4452 -1.1294
   60DOPE   H6S 7658  -0.064   6.150   3.594  0.9575  1.7920 -2.5496
   60DOPE   C27 7659   0.119   6.164   3.697 -0.6559  0.2579  0.8420
   60DOPE   H7R 7660   0.120   6.274   3.682  1.7738  0.0909 -0.7999
   60DOPE   H7S 7661   0.223   6.126   3.685 -1.4523 -1.2333 -2.5360
   60DOPE   C28 7662   0.079   6.095   3.830  0.5767  0.1105  0.7612
   60DOPE   H8R 7663   0.125   5.994   3.833 -0.1726 -0.5139 -3.2030
   60DOPE   H8S 7664  -0.032   6.089   3.835  0.3883  0.9434 -1.4755
   60DOPE   C29 7665   0.117   6.194   3.938  0.4689 -0.2641  0.1390
   60DOPE   H9R 7666   0.049   6.280   3.935 -1.5674 -1.8007 -2.1675
   60DOPE  C210 7667   0.220   6.187   4.020 -0.0633  0.4225 -0.1218
   60DOPE  H10R 7668   0.222   6.270   4.091 -0.8884  1.5998 -1.4238
   60DOPE  C211 7669   0.321   6.078   4.026 -1.1071  0.2488  0.2354
   60DOPE  H11R 7670   0.421   6.125   4.042 -0.0222 -2.6120  2.9758
   60DOPE  H11S 7671   0.326   6.024   3.929 -0.7411  1.1567 -0.2645
   60DOPE  C212 7672   0.305   5.979   4.143  0.2027  0.3601  0.3179
   60DOPE  H12R 7673   0.373   5.894   4.122  1.0490  1.3277 -1.0125
   60DOPE  H12S 7674   0.202   5.938   4.155  0.3978 -0.1904  0.1076
   60DOPE  C213 7675   0.355   6.047   4.277  0.7919 -0.1636 -0.1891
   60DOPE  H13R 7676   0.300   6.142   4.290  1.4313  0.2860 -0.7418
   60DOPE  H13S 7677   0.460   6.081   4.271  1.1596 -1.1339  0.5118
   60DOPE  C214 7678   0.334   5.966   4.406 -0.3769 -0.5788  0.3248
   60DOPE  H14R 7679   0.399   6.012   4.483  0.4682  0.0994 -0.7589
   60DOPE  H14S 7680   0.385   5.869   4.385  0.9516 -0.0223  0.8997
   60DOPE  C215 7681   0.185   5.945   4.460 -0.5729  0.0236  0.8540
   60DOPE  H15R 7682   0.145   5.863   4.396  3.2802  0.4246 -2.4975
   60DOPE  H15S 7683   0.125   6.035   4.434  2.2280  1.3069 -1.7308
   60DOPE  C216 7684   0.176   5.892   4.599 -1.0806  0.4436 -1.1231
   60DOPE  H16R 7685   0.230   5.958   4.671 -0.1058 -1.5482  0.0570
   60DOPE  H16S 7686   0.238   5.802   4.617  1.1356  2.0331 -0.2977
   60DOPE  C217 7687   0.031   5.864   4.659  0.1128 -0.7713  0.2901
   60DOPE  H17R 7688  -0.010   5.792   4.585  0.5779 -0.4026 -0.3447
   60DOPE  H17S 7689  -0.027   5.958   4.648  0.3019 -0.9280 -3.7468
   60DOPE  C218 7690   0.035   5.819   4.803 -0.4992 -0.1359  0.0166
   60DOPE  H18R 7691  -0.068   5.798   4.836 -0.1225 -0.6993  0.8608
   60DOPE  H18S 7692   0.080   5.894   4.871 -0.3067 -0.9178  0.7709
   60DOPE  H18T 7693   0.092   5.724   4.816  0.6403  0.4090 -0.8440
   60DOPE   C33 7694   0.470   5.823   3.690 -0.1476 -1.0007  0.5827
   60DOPE   H3X 7695   0.378   5.844   3.748 -0.3517  0.8624 -0.3404
   60DOPE   H3Y 7696   0.526   5.919   3.701 -2.5272  0.2320  3.2932
   60DOPE   C34 7697   0.544   5.706   3.764 -0.6810  0.7085 -0.4712
   60DOPE   H4X 7698   0.480   5.618   3.741 -1.8987  1.9750 -2.3109
   60DOPE   H4Y 7699   0.647   5.687   3.729 -0.5199 -1.4726  1.0541
   60DOPE   C35 7700   0.552   5.732   3.913 -0.2986  0.4615  0.3602
   60DOPE   H5X 7701   0.549   5.636   3.970  1.4721  0.1670  0.0037
   60DOPE   H5Y 7702   0.466   5.798   3.936 -0.1253  0.7620  0.1498
   60DOPE   C36 7703   0.683   5.792   3.972 -0.3103  0.0142 -0.0331
   60DOPE   H6X 7704   0.710   5.867   3.895  0.3750 -2.0605 -1.9142
   60DOPE   H6Y 7705   0.764   5.718   3.994 -2.0945 -2.2246 -0.6701
   60DOPE   C37 7706   0.651   5.864   4.108  0.0903  0.3632  1.1958
   60DOPE   H7X 7707   0.594   5.959   4.098 -1.2303 -0.1285  3.3469
   60DOPE   H7Y 7708   0.594   5.795   4.174 -0.8242 -0.6783 -0.6119
   60DOPE   C38 7709   0.775   5.902   4.190  0.0581 -0.1069  0.0865
   60DOPE   H8X 7710   0.832   5.813   4.222 -0.7112 -0.4090  0.6427
   60DOPE   H8Y 7711   0.734   5.945   4.284  0.5370 -1.9128  1.1666
   60DOPE   C39 7712   0.878   5.989   4.127  0.0621  0.8823 -0.3431
   60DOPE   H9X 7713   0.859   6.002   4.019 -1.6759  2.0691  0.0793
   60DOPE  C310 7714   0.984   6.044   4.193  0.2554 -0.4926  0.1257
   60DOPE  H10X 7715   1.057   6.106   4.139 -0.7814  1.4877  0.8870
   60DOPE  C311 7716   1.005   6.036   4.342  0.0865 -0.3602 -0.1564
   60DOPE  H11X 7717   0.914   5.999   4.393 -0.3242 -1.1331 -1.3974
   60DOPE  H11Y 7718   1.092   5.971   4.366  1.5273  1.9294  1.1740
   60DOPE  C312 7719   1.037   6.178   4.398  0.0004 -0.0794  0.4726
   60DOPE  H12X 7720   0.959   6.250   4.365 -0.6266 -0.3240  1.3712
   60DOPE  H12Y 7721   1.140   6.215   4.376  0.5250 -2.2743 -1.0845
   60DOPE  C313 7722   1.029   6.174   4.552 -0.2210  0.6989  0.5474
   60DOPE  H13X 7723   1.077   6.265   4.595 -0.8817  0.9623  0.7541
   60DOPE  H13Y 7724   0.922   6.193   4.575 -0.7671 -0.9041 -0.5646
   60DOPE  C314 7725   1.088   6.043   4.620 -0.5160  0.1662 -0.5929
   60DOPE  H14X 7726   1.185   6.022   4.569  0.2467  0.8714  0.5334
   60DOPE  H14Y 7727   1.016   5.960   4.608 -0.3954  0.2101 -1.8333
   60DOPE  C315 7728   1.096   6.053   4.770 -0.3196  0.3322 -0.3271
   60DOPE  H15X 7729   0.991   6.060   4.807  0.2645  2.1456  1.1334
   60DOPE  H15Y 7730   1.123   6.158   4.796 -0.4386  0.6188 -1.3133
   60DOPE  C316 7731   1.172   5.953   4.848  0.4280  0.5187  0.2632
   60DOPE  H16X 7732   1.106   5.864   4.856  1.2481  0.0117  1.7665
   60DOPE  H16Y 7733   1.187   5.982   4.954  0.9258  1.2323  0.0095
   60DOPE  C317 7734   1.309   5.918   4.795 -0.6035  0.2676 -0.3271
   60DOPE  H17X 7735   1.359   5.823   4.824  2.8600  1.3984 -1.9748
   60DOPE  H17Y 7736   1.312   5.904   4.685 -2.1618 -1.9617 -0.1521
   60DOPE  C318 7737   1.409   6.027   4.828 -0.6790 -0.6212 -0.3945
   60DOPE  H18X 7738   1.417   6.040   4.938 -0.1815 -0.3839 -0.4550
   60DOPE  H18Y 7739   1.506   5.981   4.800 -0.6612 -1.0145  0.3058
   60DOPE  H18Z 7740   1.388   6.124   4.777 -0.6686  0.8167  2.1778
   6123SM     N 7741   4.021   4.664   7.431  0.2365 -0.6804  0.6533
   6123SM   C15 7742   4.114   4.592   7.510 -0.5750 -0.0371 -0.4336
   6123SM  H15A 7743   4.137   4.494   7.470  1.2587  0.9205 -1.9038
   6123SM  H15B 7744   4.072   4.569   7.606 -0.1343 -1.0009 -0.4508
   6123SM  H15C 7745   4.208   4.638   7.533 -2.5599  4.4794 -0.3690
   6123SM   C14 7746   3.988   4.797   7.496 -0.1891 -0.0250 -0.0964
   6123SM  H14A 7747   3.955   4.793   7.598 -0.8163  2.3121 -0.1401
   6123SM  H14B 7748   3.905   4.847   7.447 -0.2251 -0.1546 -0.1684
   6123SM  H14C 7749   4.078   4.857   7.500 -0.3598  0.1813  1.1156
   6123SM   C13 7750   4.088   4.700   7.302 -0.1644 -0.3846  0.3726
   6123SM  H13A 7751   4.108   4.615   7.239 -1.3928  0.0357 -0.6042
   6123SM  H13B 7752   4.186   4.740   7.324 -0.4777  0.6901 -0.0965
   6123SM  H13C 7753   4.031   4.774   7.248  1.3970 -0.3815 -1.3867
   6123SM   C12 7754   3.896   4.589   7.403  0.0732  0.1861 -0.4305
   6123SM  H12A 7755   3.919   4.505   7.339  0.2116 -0.7823  0.8349
   6123SM  H12B 7756   3.822   4.641   7.345 -1.1356  0.1392  1.0029
   6123SM   C11 7757   3.815   4.531   7.520 -0.6783 -0.7569 -0.7377
   6123SM  H11A 7758   3.715   4.490   7.496 -2.2724  1.4284  1.5995
   6123SM  H11B 7759   3.799   4.630   7.568  1.1152 -0.4773 -0.6275
   6123SM     P 7760   3.884   4.285   7.616 -0.0314  0.2510  0.1761
   6123SM   O13 7761   3.984   4.236   7.714  0.0186 -0.5932 -0.6262
   6123SM   O14 7762   3.742   4.258   7.639  0.2929 -0.7796 -0.3859
   6123SM   O11 7763   3.921   4.228   7.469  0.3005  0.0329 -0.2504
   6123SM   O12 7764   3.897   4.446   7.598 -0.6055  0.3850 -0.1506
   6123SM   C1S 7765   3.824   4.231   7.362 -0.8257 -0.1180 -0.3307
   6123SM   H1S 7766   3.812   4.339   7.339  1.7620  0.2115 -0.3737
   6123SM   H1T 7767   3.724   4.197   7.397 -0.4142  0.1763  1.2291
   6123SM    NF 7768   3.798   4.181   7.122  0.5303  0.0314  0.3233
   6123SM   HNF 7769   3.708   4.139   7.112  0.3242  0.3857  0.6881
   6123SM   C2S 7770   3.871   4.144   7.238 -0.2766 -0.1468 -0.5816
   6123SM   H2S 7771   3.979   4.168   7.227 -0.4361 -0.1416 -2.3891
   6123SM   C3S 7772   3.863   3.995   7.283 -1.0875  0.0831 -0.4216
   6123SM   H3S 7773   3.769   3.978   7.340  0.4971 -1.2183  1.9931
   6123SM    O3 7774   3.961   3.963   7.385 -0.0271 -0.3852  0.0193
   6123SM   HO3 7775   3.959   4.036   7.448 -1.9002  0.7856 -1.3173
   6123SM   C4S 7776   3.878   3.910   7.166  0.0007 -0.1833  0.9128
   6123SM   H4S 7777   3.977   3.923   7.119 -1.6964 -0.3440 -3.0031
   6123SM   C5S 7778   3.785   3.830   7.104  0.0771  0.7359 -0.4915
   6123SM   H5S 7779   3.682   3.824   7.142  0.6491  2.3537  1.4798
   6123SM   C6S 7780   3.793   3.744   6.980  0.1813  0.6194 -0.2189
   6123SM   H6S 7781   3.879   3.775   6.917  1.1483 -1.8135 -0.2226
   6123SM   H6T 7782   3.709   3.759   6.908  1.0005 -0.1176 -1.3685
   6123SM   C7S 7783   3.814   3.602   7.010  0.3980 -0.2336  0.1270
   6123SM   H7S 7784   3.728   3.556   7.064  1.5290 -3.7596 -0.7576
   6123SM   H7T 7785   3.909   3.582   7.064  0.3808 -1.9533 -0.4172
   6123SM   C8S 7786   3.806   3.522   6.878  0.3313 -0.1595  0.3519
   6123SM   H8S 7787   3.896   3.536   6.814  0.4248 -1.1986  0.2503
   6123SM   H8T 7788   3.721   3.563   6.819 -0.8725  0.1421  2.2008
   6123SM   C9S 7789   3.806   3.376   6.906  0.7197 -0.4882  0.2173
   6123SM   H9S 7790   3.721   3.353   6.973  0.1930 -0.9683 -0.6021
   6123SM   H9T 7791   3.902   3.371   6.962  0.5064 -0.7811  0.5573
   6123SM  C10S 7792   3.820   3.300   6.776  0.4277 -0.0075  0.7366
   6123SM  H10S 7793   3.843   3.195   6.803 -0.2623  0.4957  3.6015
   6123SM  H10T 7794   3.905   3.343   6.719 -1.4574  1.2531 -1.3247
   6123SM  C11S 7795   3.687   3.301   6.704  0.2278 -0.1572  0.5004
   6123SM  H11S 7796   3.667   3.403   6.668 -1.8684 -0.9096 -0.6205
   6123SM  H11T 7797   3.609   3.281   6.781 -0.2514  0.1574  0.0924
   6123SM  C12S 7798   3.675   3.193   6.592 -0.3258  0.1377 -0.2922
   6123SM  H12S 7799   3.572   3.174   6.555 -1.3406  2.0900  1.3531
   6123SM  H12T 7800   3.713   3.097   6.632 -1.9430 -2.1364 -3.6750
   6123SM  C13S 7801   3.776   3.217   6.486 -0.0441  0.1061  0.9575
   6123SM  H13S 7802   3.793   3.120   6.436 -0.7353  0.8176 -0.7595
   6123SM  H13T 7803   3.875   3.255   6.518  1.0570 -2.4787  0.8374
   6123SM  C14S 7804   3.722   3.295   6.363  0.4117 -0.3449 -0.1925
   6123SM  H14S 7805   3.678   3.395   6.387 -3.9609 -2.1074  0.1621
   6123SM  H14T 7806   3.638   3.243   6.311 -0.2440  1.3859 -0.9505
   6123SM  C15S 7807   3.832   3.312   6.253  0.4427 -0.2711 -0.0830
   6123SM  H15S 7808   3.882   3.216   6.230 -0.7655 -0.0874 -4.4928
   6123SM  H15T 7809   3.908   3.375   6.303 -0.7394  2.2167 -1.2572
   6123SM  C16S 7810   3.789   3.389   6.124  0.5139 -0.0055 -0.3178
   6123SM  H16S 7811   3.696   3.345   6.080  1.2769  0.3942 -2.4556
   6123SM  H16T 7812   3.873   3.366   6.055  1.0773 -2.7299  1.1383
   6123SM  C17S 7813   3.775   3.539   6.155  0.4319  0.7093  1.1061
   6123SM  H17S 7814   3.865   3.572   6.211  1.3680  1.3975 -0.7059
   6123SM  H17T 7815   3.679   3.557   6.209 -0.8496 -0.6477 -0.6113
   6123SM  C18S 7816   3.767   3.620   6.026  0.1287  0.3905  0.0505
   6123SM  H18S 7817   3.683   3.589   5.961 -0.1210 -2.0582  1.3901
   6123SM  H18T 7818   3.862   3.599   5.971  1.2771  1.2201  1.6368
   6123SM  H18U 7819   3.771   3.731   6.029 -0.2937  0.4494 -1.0858
   6123SM   C1F 7820   3.811   4.295   7.064 -0.2791 -0.2271  0.3672
   6123SM    OF 7821   3.886   4.386   7.107 -0.1510 -0.1506  0.1286
   6123SM   C2F 7822   3.728   4.323   6.943 -0.5512  0.4704 -0.6997
   6123SM   H2F 7823   3.802   4.337   6.861 -0.4205 -0.5262 -0.7623
   6123SM   H2G 7824   3.687   4.425   6.956  0.9600  1.3628 -2.3883
   6123SM   C3F 7825   3.627   4.210   6.906  0.1957 -0.3749  0.1201
   6123SM   H3F 7826   3.560   4.187   6.991  0.2242 -1.0669 -0.0397
   6123SM   H3G 7827   3.679   4.116   6.878  3.5903  1.0568  1.1497
   6123SM   C4F 7828   3.532   4.245   6.795  0.5200  0.0013  0.3933
   6123SM   H4F 7829   3.598   4.243   6.705  0.5948 -0.5228  0.4535
   6123SM   H4G 7830   3.494   4.347   6.813  1.5710  0.3068  0.9665
   6123SM   C5F 7831   3.413   4.155   6.760  0.0924  0.5436  0.1643
   6123SM   H5F 7832   3.340   4.167   6.843 -0.1100  2.5684 -0.2400
   6123SM   H5G 7833   3.446   4.050   6.753 -0.2595  0.4914 -0.8803
   6123SM   C6F 7834   3.336   4.181   6.629  0.1390 -0.3215 -0.1286
   6123SM   H6F 7835   3.400   4.175   6.539 -1.0868 -1.6723 -0.9535
   6123SM   H6G 7836   3.292   4.284   6.628 -0.2084 -0.4671 -1.9323
   6123SM   C7F 7837   3.211   4.086   6.612 -0.6494  0.0197  0.5465
   6123SM   H7F 7838   3.163   4.057   6.708 -0.5896  0.3323  0.6748
   6123SM   H7G 7839   3.252   3.989   6.578 -2.2257 -0.2918 -0.5712
   6123SM   C8F 7840   3.098   4.131   6.520 -0.8346  0.7843 -0.1093
   6123SM   H8F 7841   3.047   4.222   6.559  0.4775  1.7498 -0.5892
   6123SM   H8G 7842   3.031   4.043   6.522  0.4100 -0.1867  1.1420
   6123SM   C9F 7843   3.159   4.153   6.381 -0.0003 -0.0451 -0.5776
   6123SM   H9F 7844   3.210   4.060   6.346  1.0295  0.6613 -1.0009
   6123SM   H9G 7845   3.245   4.223   6.392  0.0659 -0.0940 -0.7714
   6123SM  C10F 7846   3.066   4.195   6.269  0.0198  0.3918 -0.6546
   6123SM  H10F 7847   3.021   4.297   6.270 -0.8311  0.0409 -1.2781
   6123SM  H10G 7848   2.977   4.129   6.263 -1.9645  2.9252 -0.7652
   6123SM  C11F 7849   3.131   4.171   6.140  0.0245  0.1167  0.2002
   6123SM  H11F 7850   3.135   4.064   6.112 -0.8555 -0.4316  2.0390
   6123SM  H11G 7851   3.233   4.214   6.131 -0.2654  0.5655 -1.2320
   6123SM  C12F 7852   3.041   4.224   6.027  0.4704  0.1418  0.4881
   6123SM  H12F 7853   3.050   4.334   6.027  0.0521  0.1882 -0.8012
   6123SM  H12G 7854   2.936   4.196   6.049 -0.1859 -0.1199 -2.5473
   6123SM  C13F 7855   3.079   4.176   5.883 -0.1945  0.1794 -1.1928
   6123SM  H13F 7856   3.098   4.066   5.881  0.7067  0.3287 -2.5271
   6123SM  H13G 7857   3.179   4.222   5.868  0.3401 -0.4852  0.1598
   6123SM  C14F 7858   2.984   4.224   5.777  0.7858 -0.0410 -0.4406
   6123SM  H14F 7859   2.996   4.333   5.759  1.8645 -0.0440  0.1941
   6123SM  H14G 7860   2.877   4.200   5.798  0.3377  2.0163 -0.1904
   6123SM  C15F 7861   3.014   4.164   5.636 -0.2164 -0.0402 -0.5451
   6123SM  H15F 7862   2.935   4.087   5.621 -1.2443  0.8117  0.3217
   6123SM  H15G 7863   3.111   4.111   5.625  0.3199  0.5370  1.0934
   6123SM  C16F 7864   3.008   4.269   5.525 -0.4116  0.2037  0.5982
   6123SM  H16F 7865   3.083   4.348   5.547  0.0908 -0.2668  0.5973
   6123SM  H16G 7866   2.910   4.320   5.530 -0.5691 -0.2044  2.0751
   6123SM  C17F 7867   3.042   4.208   5.383  0.1967  0.9249  0.0860
   6123SM  H17F 7868   2.995   4.267   5.301 -0.7901 -1.4287 -1.1309
   6123SM  H17G 7869   2.983   4.115   5.382  0.8177  0.4997 -1.7821
   6123SM  C18F 7870   3.189   4.175   5.370  0.1443  0.2277 -0.8210
   6123SM  H18F 7871   3.209   4.078   5.422  2.9530 -0.1003 -2.2943
   6123SM  H18G 7872   3.251   4.255   5.415  1.9000 -1.1514 -0.6376
   6123SM  C19F 7873   3.223   4.163   5.220 -0.1738  0.6621 -0.8726
   6123SM  H19F 7874   3.210   4.265   5.179 -1.5719  1.0585  0.4345
   6123SM  H19G 7875   3.151   4.101   5.162  0.2099 -0.5007 -0.1338
   6123SM  C20F 7876   3.363   4.108   5.191  0.5183 -0.2268 -0.0902
   6123SM  H20F 7877   3.375   4.102   5.081  0.5832  1.1759 -0.1740
   6123SM  H20G 7878   3.379   4.013   5.246  0.1364  0.6665  1.6309
   6123SM  C21F 7879   3.470   4.211   5.244 -0.0378 -0.1541  0.3786
   6123SM  H21F 7880   3.457   4.226   5.353 -1.8868  1.2979  0.0138
   6123SM  H21G 7881   3.436   4.308   5.201 -2.1818 -1.7439 -1.7842
   6123SM  C22F 7882   3.625   4.196   5.221 -0.3925  0.4600  0.2095
   6123SM  H22F 7883   3.660   4.178   5.117  0.6003 -0.2867  0.6462
   6123SM  H22G 7884   3.662   4.102   5.268 -0.9718 -0.7391 -1.6196
   6123SM  C23F 7885   3.708   4.313   5.272 -0.3147 -0.9488  0.1282
   6123SM  H23F 7886   3.804   4.313   5.217  0.3674 -0.7997  1.2973
   6123SM  H23G 7887   3.731   4.299   5.379  1.0232  0.0208 -0.0041
   6123SM  H23H 7888   3.669   4.409   5.232  0.6756 -0.2714  0.7775
   6223SM     N 7889   3.659   3.796   7.588  0.0227  0.1780  0.4539
   6223SM   C15 7890   3.635   3.733   7.451  0.2987  0.7029  0.5790
   6223SM  H15A 7891   3.529   3.722   7.439 -0.0047  2.6055  1.2424
   6223SM  H15B 7892   3.670   3.631   7.438  0.1739  0.8844 -1.4567
   6223SM  H15C 7893   3.682   3.788   7.370  1.2511 -1.1831 -0.2113
   6223SM   C14 7894   3.801   3.790   7.628  0.0098 -0.2860  0.1875
   6223SM  H14A 7895   3.834   3.687   7.639  1.3853 -0.0160 -1.1213
   6223SM  H14B 7896   3.813   3.840   7.723 -1.2157 -0.3535  0.3996
   6223SM  H14C 7897   3.866   3.833   7.554 -1.5532 -0.8715 -1.5956
   6223SM   C13 7898   3.622   3.941   7.583  0.0736  0.1082 -0.0124
   6223SM  H13A 7899   3.681   3.993   7.509  1.1812 -2.7537 -1.2605
   6223SM  H13B 7900   3.639   3.992   7.677  1.1647 -0.6148  0.1991
   6223SM  H13C 7901   3.519   3.945   7.550 -0.4641 -0.7550  1.4309
   6223SM   C12 7902   3.571   3.731   7.693  0.6229 -0.4315  0.1764
   6223SM  H12A 7903   3.570   3.786   7.786  1.7627  3.0556 -1.7179
   6223SM  H12B 7904   3.617   3.637   7.722  1.8145  0.3068  0.7679
   6223SM   C11 7905   3.424   3.707   7.660  0.1942 -0.4287 -0.3269
   6223SM  H11A 7906   3.376   3.793   7.609  0.7262  0.7290  1.0456
   6223SM  H11B 7907   3.378   3.694   7.760  2.2324 -3.1591  0.3848
   6223SM     P 7908   3.444   3.451   7.638 -0.4920 -0.0581  0.2531
   6223SM   O13 7909   3.587   3.431   7.607 -0.5662  0.2265  0.1587
   6223SM   O14 7910   3.391   3.445   7.779 -0.3543  0.3773  0.1415
   6223SM   O11 7911   3.366   3.356   7.536  0.0245  0.5892  0.2546
   6223SM   O12 7912   3.401   3.594   7.579  0.2494  0.6313  0.6654
   6223SM   C1S 7913   3.370   3.364   7.393 -0.2098  0.2045  0.6497
   6223SM   H1S 7914   3.364   3.471   7.365  0.7135  0.6360  1.9746
   6223SM   H1T 7915   3.285   3.309   7.349 -0.7568  1.4691  0.0913
   6223SM    NF 7916   3.466   3.288   7.189 -0.3216 -0.5864 -0.6338
   6223SM   HNF 7917   3.412   3.209   7.161 -0.1100 -0.6408 -0.8865
   6223SM   C2S 7918   3.491   3.296   7.329 -0.3241 -0.0293 -0.2442
   6223SM   H2S 7919   3.583   3.353   7.353 -1.3583  1.5647  0.1130
   6223SM   C3S 7920   3.515   3.151   7.378 -0.2575  0.2778 -0.1710
   6223SM   H3S 7921   3.424   3.089   7.360 -0.3474  0.0582  0.9506
   6223SM    O3 7922   3.537   3.149   7.524  0.1789  0.3346  0.2363
   6223SM   HO3 7923   3.523   3.240   7.550 -0.3419  0.3937 -0.2353
   6223SM   C4S 7924   3.627   3.078   7.307  0.1046  0.0665 -1.0304
   6223SM   H4S 7925   3.587   3.008   7.231  0.1023 -0.6496 -0.3824
   6223SM   C5S 7926   3.759   3.082   7.318  0.1128 -0.1038  0.7282
   6223SM   H5S 7927   3.804   3.144   7.398 -0.3257 -1.1326  1.8013
   6223SM   C6S 7928   3.848   2.993   7.233  0.0296  0.7778 -0.3126
   6223SM   H6S 7929   3.916   2.928   7.291 -0.2824  2.2765  1.8775
   6223SM   H6T 7930   3.918   3.057   7.174  2.0490 -0.7878  0.2715
   6223SM   C7S 7931   3.793   2.888   7.132 -0.2951 -0.5659 -0.2732
   6223SM   H7S 7932   3.727   2.942   7.060  4.3543  0.4876 -4.2522
   6223SM   H7T 7933   3.736   2.817   7.197 -0.3342  1.3219  1.8907
   6223SM   C8S 7934   3.892   2.802   7.047 -0.7670 -0.0909  0.8851
   6223SM   H8S 7935   3.823   2.745   6.981  0.2065  0.8152 -1.0044
   6223SM   H8T 7936   3.937   2.731   7.119 -0.6519  0.3339  1.2366
   6223SM   C9S 7937   4.008   2.887   6.984  0.6281 -0.2146  0.2420
   6223SM   H9S 7938   4.106   2.835   6.972  2.0276  2.6059 -1.6630
   6223SM   H9T 7939   4.034   2.980   7.039 -0.3551 -0.5958  1.3954
   6223SM  C10S 7940   3.972   2.923   6.842 -0.2878  0.4677  0.3168
   6223SM  H10S 7941   3.879   2.985   6.843 -0.5810  0.0324  1.0372
   6223SM  H10T 7942   3.942   2.828   6.794 -0.8767  1.1183 -0.6376
   6223SM  C11S 7943   4.074   2.994   6.756  0.1662 -0.0887  0.5563
   6223SM  H11S 7944   4.163   2.927   6.748 -1.6599 -2.4409 -1.3526
   6223SM  H11T 7945   4.103   3.089   6.806 -1.1074 -0.2582  1.6541
   6223SM  C12S 7946   4.028   3.033   6.610 -0.0298 -0.3220 -0.5283
   6223SM  H12S 7947   3.973   3.129   6.621  2.1070  1.0600 -1.1960
   6223SM  H12T 7948   3.954   2.957   6.579 -0.6231 -0.3222  0.8011
   6223SM  C13S 7949   4.127   3.063   6.500 -0.1529 -0.2428 -0.4585
   6223SM  H13S 7950   4.202   3.139   6.530 -2.2114  1.5452  0.5061
   6223SM  H13T 7951   4.083   3.116   6.413  1.7178  0.9900 -0.7112
   6223SM  C14S 7952   4.198   2.928   6.461 -0.4252  0.0850 -0.1225
   6223SM  H14S 7953   4.113   2.861   6.434 -1.1054  0.3571  1.2858
   6223SM  H14T 7954   4.258   2.883   6.543  1.4838  0.3777 -1.2970
   6223SM  C15S 7955   4.303   2.941   6.350 -0.4826  0.3470 -0.0310
   6223SM  H15S 7956   4.382   3.005   6.396 -2.0260  0.6338  2.3654
   6223SM  H15T 7957   4.256   3.003   6.271 -1.2388 -0.6861 -0.4161
   6223SM  C16S 7958   4.359   2.809   6.300 -0.7373  0.2866 -0.0437
   6223SM  H16S 7959   4.280   2.732   6.292  0.5834 -0.9418 -2.3423
   6223SM  H16T 7960   4.442   2.786   6.371  0.9217  6.3537  0.5946
   6223SM  C17S 7961   4.401   2.809   6.154  0.0887  0.9782  0.5623
   6223SM  H17S 7962   4.463   2.897   6.128 -0.5134  1.1283 -0.4096
   6223SM  H17T 7963   4.307   2.827   6.097  0.6098 -1.1383 -1.1265
   6223SM  C18S 7964   4.475   2.677   6.104  0.2082 -0.2313 -0.0073
   6223SM  H18S 7965   4.486   2.674   5.993  0.1348  2.9643 -0.1941
   6223SM  H18T 7966   4.414   2.587   6.128  1.9670 -1.5122 -0.1581
   6223SM  H18U 7967   4.577   2.674   6.147 -0.1757 -2.0432  0.8819
   6223SM   C1F 7968   3.459   3.391   7.108  0.5302 -0.1451  0.5634
   6223SM    OF 7969   3.513   3.497   7.139 -0.2505  0.0227  0.3025
   6223SM   C2F 7970   3.379   3.382   6.982 -0.1716  0.2365 -0.0669
   6223SM   H2F 7971   3.275   3.349   7.001  0.4663 -0.7846  1.8689
   6223SM   H2G 7972   3.427   3.315   6.908  3.2008  0.6204  1.5935
   6223SM   C3F 7973   3.359   3.521   6.914 -0.7618 -0.3636  0.6177
   6223SM   H3F 7974   3.457   3.564   6.884 -0.5230 -0.9681  0.5111
   6223SM   H3G 7975   3.313   3.579   6.997  1.4871  0.2730  1.5019
   6223SM   C4F 7976   3.267   3.528   6.789  0.2885 -0.1757 -1.0826
   6223SM   H4F 7977   3.168   3.499   6.829  1.5146 -0.3614  2.1233
   6223SM   H4G 7978   3.289   3.449   6.714 -0.5155 -0.8779 -0.5927
   6223SM   C5F 7979   3.275   3.674   6.729  0.4999 -0.1678  0.3466
   6223SM   H5F 7980   3.286   3.750   6.810  1.2699 -1.1604  1.2043
   6223SM   H5G 7981   3.189   3.704   6.665  0.0343  0.7345  1.3674
   6223SM   C6F 7982   3.405   3.702   6.645 -0.0737  0.2814 -0.0547
   6223SM   H6F 7983   3.491   3.738   6.706 -0.8803  0.6977  0.8444
   6223SM   H6G 7984   3.384   3.792   6.583  1.1354 -0.3351 -1.4414
   6223SM   C7F 7985   3.440   3.582   6.550  0.6170 -0.0441 -0.2366
   6223SM   H7F 7986   3.461   3.489   6.608  1.3441  1.0197  1.2820
   6223SM   H7G 7987   3.536   3.617   6.507  0.3765  2.6624  1.2076
   6223SM   C8F 7988   3.339   3.563   6.436  0.3494  0.2881 -0.4399
   6223SM   H8F 7989   3.309   3.659   6.388 -2.2787  0.0285  0.5028
   6223SM   H8G 7990   3.248   3.515   6.478  1.0565 -1.5899 -0.9403
   6223SM   C9F 7991   3.401   3.475   6.327 -0.5482  0.6612 -0.6438
   6223SM   H9F 7992   3.439   3.381   6.372 -3.1583 -0.8658 -1.4395
   6223SM   H9G 7993   3.477   3.530   6.267  1.1495  1.5550  2.1288
   6223SM  C10F 7994   3.295   3.417   6.231  0.5755 -0.5294 -0.3811
   6223SM  H10F 7995   3.220   3.499   6.225  1.8247  0.9396  2.3606
   6223SM  H10G 7996   3.243   3.336   6.286 -2.0808  1.3182  0.0417
   6223SM  C11F 7997   3.349   3.357   6.115 -0.4864  0.0890  0.5852
   6223SM  H11F 7998   3.423   3.288   6.160 -0.5660  0.9948  2.1860
   6223SM  H11G 7999   3.416   3.424   6.057 -0.2909 -1.3059 -0.8942
   6223SM  C12F 8000   3.250   3.274   6.039 -0.5036  0.3550  0.8546
   6223SM  H12F 8001   3.191   3.211   6.109 -1.4418 -1.0509 -1.0964
   6223SM  H12G 8002   3.312   3.211   5.971 -0.8895  2.2457 -1.3884
   6223SM  C13F 8003   3.161   3.353   5.936 -0.1252  0.8696 -0.4154
   6223SM  H13F 8004   3.122   3.440   5.994  0.1895 -0.4821  1.9535
   6223SM  H13G 8005   3.084   3.280   5.906  0.6946  0.5744 -1.8586
   6223SM  C14F 8006   3.233   3.416   5.816 -0.1222  0.6981 -0.5924
   6223SM  H14F 8007   3.270   3.330   5.755  1.4405 -0.8358  2.3125
   6223SM  H14G 8008   3.322   3.474   5.847 -0.5261  0.9018  0.1807
   6223SM  C15F 8009   3.143   3.503   5.731  0.3326 -0.3928  1.0604
   6223SM  H15F 8010   3.092   3.577   5.796 -0.6316  0.1532 -0.2705
   6223SM  H15G 8011   3.061   3.438   5.694 -0.5046  1.3414 -0.2681
   6223SM  C16F 8012   3.205   3.575   5.607 -0.2136 -0.2822  0.0028
   6223SM  H16F 8013   3.134   3.612   5.530  0.6982  1.8211  0.0982
   6223SM  H16G 8014   3.281   3.510   5.559  1.3965  0.7387  1.0715
   6223SM  C17F 8015   3.289   3.708   5.643 -0.1251 -0.0726 -0.2440
   6223SM  H17F 8016   3.379   3.662   5.689 -0.9051 -2.4238 -0.8975
   6223SM  H17G 8017   3.226   3.764   5.716  0.2494  1.0386 -0.7662
   6223SM  C18F 8018   3.328   3.800   5.527  0.5515 -0.0273  0.4104
   6223SM  H18F 8019   3.232   3.837   5.487 -1.4699 -1.2591  3.7188
   6223SM  H18G 8020   3.370   3.734   5.448 -0.6214  2.5186 -2.5792
   6223SM  C19F 8021   3.412   3.926   5.553  0.1885 -0.5500 -0.0229
   6223SM  H19F 8022   3.359   4.004   5.612  2.1438  1.1039 -0.3613
   6223SM  H19G 8023   3.433   3.976   5.457  2.5026 -1.6705 -0.1689
   6223SM  C20F 8024   3.556   3.893   5.605  0.8892  0.4763  0.3087
   6223SM  H20F 8025   3.595   3.813   5.539  0.0516 -0.5576  1.0440
   6223SM  H20G 8026   3.538   3.846   5.704  1.6240  0.4045  0.4124
   6223SM  C21F 8027   3.652   4.016   5.603  0.3460  0.3450 -0.1696
   6223SM  H21F 8028   3.609   4.083   5.681 -1.7384 -0.8421 -0.2226
   6223SM  H21G 8029   3.642   4.069   5.506  1.3878  1.4623  0.3106
   6223SM  C22F 8030   3.801   3.991   5.630 -1.0995 -0.5475 -0.0963
   6223SM  H22F 8031   3.832   3.934   5.540 -0.3791 -0.3961  0.0541
   6223SM  H22G 8032   3.805   3.927   5.721 -1.9543  0.6272  0.7948
   6223SM  C23F 8033   3.878   4.120   5.644 -0.0534  0.3119  0.3973
   6223SM  H23F 8034   3.844   4.189   5.563  1.6060  0.4882 -0.1757
   6223SM  H23G 8035   3.987   4.099   5.648 -0.4221 -2.0169 -0.2382
   6223SM  H23H 8036   3.855   4.173   5.739  2.1172  0.3752  0.9392
   6323SM     N 8037   4.930   5.843   7.341  0.0884 -0.5590 -0.2394
   6323SM   C15 8038   4.839   5.735   7.401 -0.2571  0.1158  0.1984
   6323SM  H15A 8039   4.743   5.779   7.422 -1.1955 -0.2744 -2.8235
   6323SM  H15B 8040   4.880   5.684   7.487 -2.1276 -0.3184  0.8807
   6323SM  H15C 8041   4.824   5.669   7.317  0.7945  1.0714 -0.7752
   6323SM   C14 8042   4.945   5.954   7.436  0.5427  0.3496 -0.0305
   6323SM  H14A 8043   4.859   5.962   7.500  0.2211  0.2996 -0.4466
   6323SM  H14B 8044   4.952   6.049   7.384  1.9795  0.2097 -0.1169
   6323SM  H14C 8045   5.035   5.932   7.490  0.0658 -0.9242  0.2675
   6323SM   C13 8046   5.061   5.778   7.313  0.4589  0.5263 -0.3966
   6323SM  H13A 8047   5.140   5.845   7.282  0.4896  0.6241 -0.1113
   6323SM  H13B 8048   5.047   5.698   7.241  0.3904  0.0238  0.1646
   6323SM  H13C 8049   5.101   5.729   7.401 -2.7243  0.5092  1.1478
   6323SM   C12 8050   4.874   5.897   7.204 -0.3106  0.0990 -0.5224
   6323SM  H12A 8051   4.946   5.970   7.168  0.4921 -0.8365 -0.8684
   6323SM  H12B 8052   4.783   5.953   7.215  0.6483  2.0699 -2.0016
   6323SM   C11 8053   4.848   5.791   7.089  0.0922 -0.2611  0.0790
   6323SM  H11A 8054   4.944   5.739   7.067 -0.3461 -1.9416  1.8467
   6323SM  H11B 8055   4.831   5.842   6.992  2.8808 -1.0694 -0.9407
   6323SM     P 8056   4.596   5.720   7.102 -0.3080 -0.0615 -0.0290
   6323SM   O13 8057   4.514   5.600   7.095  0.9218  0.0740 -0.8164
   6323SM   O14 8058   4.560   5.815   7.207 -0.7294 -0.1854  0.2220
   6323SM   O11 8059   4.588   5.788   6.960  0.6336 -0.0458  0.2279
   6323SM   O12 8060   4.750   5.692   7.119 -0.5963  0.3358 -0.1310
   6323SM   C1S 8061   4.633   5.740   6.831  1.1175  0.5684  0.2460
   6323SM   H1S 8062   4.720   5.674   6.850  0.9829  1.1382  3.3421
   6323SM   H1T 8063   4.666   5.828   6.771  4.2501 -0.3454  0.4381
   6323SM    NF 8064   4.578   5.636   6.618 -0.1895  0.2696  0.1933
   6323SM   HNF 8065   4.552   5.702   6.548  0.6371  0.1918 -0.1972
   6323SM   C2S 8066   4.522   5.657   6.753  0.2461 -0.2642 -1.3185
   6323SM   H2S 8067   4.501   5.561   6.803 -0.5042 -0.1061 -1.3090
   6323SM   C3S 8068   4.394   5.740   6.761 -0.4129 -0.1574  0.6590
   6323SM   H3S 8069   4.410   5.850   6.756 -0.0175 -0.2632 -0.7361
   6323SM    O3 8070   4.322   5.736   6.886 -0.5566 -0.4146  0.3006
   6323SM   HO3 8071   4.373   5.680   6.945  0.2805 -0.9730 -0.9070
   6323SM   C4S 8072   4.304   5.701   6.647  0.3284  0.5149 -0.0143
   6323SM   H4S 8073   4.311   5.772   6.563 -0.5686  0.0929 -0.4602
   6323SM   C5S 8074   4.215   5.603   6.641  0.2106 -0.2614  0.2960
   6323SM   H5S 8075   4.216   5.517   6.709 -4.0429 -1.1434 -0.4862
   6323SM   C6S 8076   4.132   5.577   6.517 -0.6456 -0.1189 -0.3902
   6323SM   H6S 8077   4.136   5.657   6.441 -3.3161 -0.5388 -1.0591
   6323SM   H6T 8078   4.024   5.577   6.543 -0.2841  1.0026  1.3040
   6323SM   C7S 8079   4.175   5.455   6.442  0.4292 -0.1493  0.2044
   6323SM   H7S 8080   4.191   5.372   6.515  0.4778 -0.1160  0.2315
   6323SM   H7T 8081   4.273   5.477   6.394 -0.0514  1.1656 -0.2076
   6323SM   C8S 8082   4.093   5.391   6.328 -0.2225 -0.3260 -0.3181
   6323SM   H8S 8083   4.143   5.295   6.303  0.0877 -0.2863  0.1462
   6323SM   H8T 8084   4.105   5.461   6.242 -0.1634 -1.9098 -1.6589
   6323SM   C9S 8085   3.939   5.378   6.343  0.3014 -0.5324 -0.1928
   6323SM   H9S 8086   3.907   5.484   6.336  0.6614 -0.4818 -1.4072
   6323SM   H9T 8087   3.913   5.343   6.445  2.6016  0.5653  0.8595
   6323SM  C10S 8088   3.879   5.314   6.220 -0.4790 -0.1936  0.2233
   6323SM  H10S 8089   3.920   5.354   6.124 -2.1638 -1.3034 -1.0275
   6323SM  H10T 8090   3.775   5.353   6.216 -1.1238 -1.8071  0.5041
   6323SM  C11S 8091   3.881   5.164   6.224 -0.3050  0.3243  0.7763
   6323SM  H11S 8092   3.785   5.117   6.195 -0.6741  0.8686  1.0978
   6323SM  H11T 8093   3.905   5.126   6.326  0.9616 -1.3239 -0.0923
   6323SM  C12S 8094   3.976   5.110   6.113  0.2731 -0.0701 -0.8477
   6323SM  H12S 8095   4.078   5.133   6.150  0.2207 -1.7995  0.5081
   6323SM  H12T 8096   3.952   5.166   6.020 -2.6748 -0.2065 -0.2706
   6323SM  C13S 8097   3.942   4.968   6.082  0.1286 -0.1425  0.1253
   6323SM  H13S 8098   3.926   4.904   6.171 -0.1277 -2.6215 -1.5927
   6323SM  H13T 8099   4.034   4.923   6.039  1.7481  0.4336  2.7561
   6323SM  C14S 8100   3.823   4.956   5.979 -0.2371 -0.0051  0.3286
   6323SM  H14S 8101   3.836   5.033   5.900  3.5394  0.2207  1.0176
   6323SM  H14T 8102   3.728   4.976   6.032 -0.0555  1.2549  0.1949
   6323SM  C15S 8103   3.820   4.808   5.925  0.6816 -0.3625 -0.2418
   6323SM  H15S 8104   3.823   4.740   6.013 -2.4585 -2.1476 -1.3320
   6323SM  H15T 8105   3.907   4.791   5.858  0.9509 -1.2924  0.3171
   6323SM  C16S 8106   3.684   4.788   5.851 -0.5167 -0.6918 -0.3218
   6323SM  H16S 8107   3.595   4.769   5.916  0.5329 -0.9585  1.0926
   6323SM  H16T 8108   3.692   4.708   5.775  0.1518  0.8124 -1.8843
   6323SM  C17S 8109   3.647   4.903   5.753 -0.0494  0.1516 -0.1299
   6323SM  H17S 8110   3.622   4.996   5.810  0.4574 -0.6746  1.5093
   6323SM  H17T 8111   3.556   4.873   5.697 -0.7148  0.9902  0.4744
   6323SM  C18S 8112   3.757   4.929   5.651 -1.3432 -0.0735  0.6296
   6323SM  H18S 8113   3.797   4.843   5.594 -0.3439  0.3953  0.6034
   6323SM  H18T 8114   3.848   4.963   5.704  0.6364 -2.5501 -0.9474
   6323SM  H18U 8115   3.736   5.013   5.582  2.2957 -0.3489 -1.0448
   6323SM   C1F 8116   4.678   5.548   6.595 -0.5361  0.0205  0.0793
   6323SM    OF 8117   4.722   5.477   6.686  0.3261 -0.2434 -0.1407
   6323SM   C2F 8118   4.729   5.539   6.457 -0.8710 -0.4953  0.6287
   6323SM   H2F 8119   4.789   5.629   6.434 -0.5846 -0.9416 -0.4657
   6323SM   H2G 8120   4.639   5.536   6.392  1.3157  0.6490 -2.6991
   6323SM   C3F 8121   4.812   5.415   6.430 -0.0423 -0.1825  0.2587
   6323SM   H3F 8122   4.749   5.324   6.439  0.9887 -1.0766 -1.1994
   6323SM   H3G 8123   4.895   5.407   6.503 -1.1400  1.5501  1.7838
   6323SM   C4F 8124   4.858   5.409   6.282 -0.3954  0.9247 -0.2019
   6323SM   H4F 8125   4.944   5.472   6.251 -1.2927  0.9786 -2.8071
   6323SM   H4G 8126   4.773   5.436   6.217 -1.2417  1.4784  1.0922
   6323SM   C5F 8127   4.893   5.267   6.241 -0.6277 -0.1652  0.4933
   6323SM   H5F 8128   4.810   5.203   6.279 -0.3957 -0.4967  0.4400
   6323SM   H5G 8129   4.986   5.247   6.298 -2.1195  1.3617  3.7605
   6323SM   C6F 8130   4.904   5.243   6.090  0.1973  0.4896  0.5462
   6323SM   H6F 8131   4.979   5.313   6.049  0.6588 -0.8130 -0.9147
   6323SM   H6G 8132   4.813   5.275   6.035 -0.0572  1.4652  1.4935
   6323SM   C7F 8133   4.946   5.100   6.058 -0.7315  0.1923  0.0349
   6323SM   H7F 8134   5.031   5.062   6.119 -0.7755  1.3999  0.8711
   6323SM   H7G 8135   4.990   5.101   5.957 -1.6962  2.7408 -0.4271
   6323SM   C8F 8136   4.820   5.007   6.068  0.1845 -0.7858 -0.5690
   6323SM   H8F 8137   4.737   5.059   6.014 -0.4460 -1.3457 -0.1520
   6323SM   H8G 8138   4.792   4.987   6.173 -1.3181  2.3641 -0.2573
   6323SM   C9F 8139   4.834   4.880   5.990 -0.8807  0.3372 -0.0241
   6323SM   H9F 8140   4.928   4.829   6.021 -1.9923 -1.4315  0.5535
   6323SM   H9G 8141   4.841   4.884   5.879 -1.6044 -2.2660 -0.2367
   6323SM  C10F 8142   4.722   4.779   6.023  0.3792 -0.1574 -0.1956
   6323SM  H10F 8143   4.624   4.828   6.002  0.0463 -0.9485 -0.4986
   6323SM  H10G 8144   4.716   4.769   6.133 -0.7019 -1.0178 -0.3153
   6323SM  C11F 8145   4.729   4.647   5.958  0.0686 -0.4592 -0.1478
   6323SM  H11F 8146   4.816   4.599   6.006  1.1897  1.2524 -0.3836
   6323SM  H11G 8147   4.752   4.667   5.851  0.5917  0.9173  0.1881
   6323SM  C12F 8148   4.605   4.561   5.985 -0.1690  0.7345  0.0410
   6323SM  H12F 8149   4.513   4.623   5.986 -0.1242  0.7985  0.3838
   6323SM  H12G 8150   4.617   4.507   6.082 -4.0943 -0.9087 -0.1941
   6323SM  C13F 8151   4.581   4.461   5.868 -0.4485 -0.2025 -0.0660
   6323SM  H13F 8152   4.672   4.404   5.840 -1.1407  0.7125 -5.2393
   6323SM  H13G 8153   4.565   4.516   5.773 -0.6247 -1.5853 -0.8511
   6323SM  C14F 8154   4.464   4.366   5.883 -0.5469  0.5103  0.0884
   6323SM  H14F 8155   4.393   4.410   5.957 -0.0812 -0.1333  0.9409
   6323SM  H14G 8156   4.497   4.273   5.934  0.0467  0.8544  0.3378
   6323SM  C15F 8157   4.391   4.321   5.751 -0.8643 -0.4418  0.0152
   6323SM  H15F 8158   4.420   4.396   5.673 -1.7471 -0.7538 -0.6293
   6323SM  H15G 8159   4.280   4.321   5.760 -0.7996  0.4994  1.0704
   6323SM  C16F 8160   4.450   4.189   5.698  0.1713  0.3450 -0.6292
   6323SM  H16F 8161   4.442   4.114   5.781 -1.4029  0.6892 -0.4382
   6323SM  H16G 8162   4.559   4.212   5.699  0.1758  0.3187 -0.0566
   6323SM  C17F 8163   4.385   4.142   5.563 -0.3654  0.5069 -0.5314
   6323SM  H17F 8164   4.423   4.215   5.488 -1.7021  1.5311 -0.2552
   6323SM  H17G 8165   4.277   4.158   5.581  0.0160  1.9369  0.6997
   6323SM  C18F 8166   4.420   3.999   5.536 -0.0967 -0.1093  0.4833
   6323SM  H18F 8167   4.367   3.946   5.454  0.2932 -1.8987  1.3477
   6323SM  H18G 8168   4.393   3.946   5.630 -1.3439 -0.2024  0.0874
   6323SM  C19F 8169   4.567   3.971   5.530 -0.1148 -0.7350 -0.6445
   6323SM  H19F 8170   4.615   3.992   5.628 -0.3884 -0.2774 -0.6068
   6323SM  H19G 8171   4.607   4.040   5.453  2.1870  0.7274  1.7011
   6323SM  C20F 8172   4.596   3.823   5.500 -0.2194 -0.0464  0.8204
   6323SM  H20F 8173   4.537   3.752   5.563 -0.2207  0.8988  1.9184
   6323SM  H20G 8174   4.703   3.801   5.520  0.1724  1.0868  0.0500
   6323SM  C21F 8175   4.566   3.796   5.358 -0.7486  0.2982  0.0228
   6323SM  H21F 8176   4.610   3.870   5.286 -1.7148  0.6204 -0.2509
   6323SM  H21G 8177   4.455   3.801   5.362 -0.9383 -0.0338 -2.6672
   6323SM  C22F 8178   4.596   3.654   5.320  0.0492 -0.0890 -0.0445
   6323SM  H22F 8179   4.542   3.575   5.377  2.0399 -1.6108 -0.1417
   6323SM  H22G 8180   4.703   3.635   5.343  0.1601  1.0613  0.4610
   6323SM  C23F 8181   4.571   3.636   5.173  0.2926 -0.1636  0.0355
   6323SM  H23F 8182   4.606   3.545   5.119 -2.0674 -1.2068  0.1367
   6323SM  H23G 8183   4.622   3.719   5.118  0.7380 -0.8821 -0.6610
   6323SM  H23H 8184   4.467   3.665   5.145  1.1876  0.5895 -2.9310
   6423SM     N 8185   4.207   5.139   7.227 -0.1433  0.2163 -0.0449
   6423SM   C15 8186   4.292   5.209   7.317 -0.2017 -0.2405  0.8182
   6423SM  H15A 8187   4.375   5.149   7.353  0.1047 -0.4864 -0.2684
   6423SM  H15B 8188   4.250   5.243   7.411  1.1047  1.5061  0.8125
   6423SM  H15C 8189   4.328   5.300   7.272  1.5367  0.1952  2.8899
   6423SM   C14 8190   4.132   5.035   7.302  0.3761 -0.5564  0.2738
   6423SM  H14A 8191   4.067   5.085   7.373  0.0870 -0.3648 -0.1217
   6423SM  H14B 8192   4.196   4.965   7.354 -0.3057 -1.1522  0.3339
   6423SM  H14C 8193   4.055   4.997   7.237 -0.0563  0.9627 -0.1504
   6423SM   C13 8194   4.096   5.231   7.177  0.1928  0.2271 -0.6880
   6423SM  H13A 8195   4.025   5.184   7.110  0.6080  1.3482 -1.9626
   6423SM  H13B 8196   4.140   5.314   7.124  1.4939  1.4477  2.1271
   6423SM  H13C 8197   4.035   5.272   7.256  0.1141 -1.1840  0.0173
   6423SM   C12 8198   4.283   5.076   7.112 -0.5002  1.0560  0.6177
   6423SM  H12A 8199   4.329   5.153   7.052  0.6041 -0.7217 -0.8991
   6423SM  H12B 8200   4.210   5.034   7.044  0.3212 -0.2200  0.5050
   6423SM   C11 8201   4.392   4.969   7.149  0.0252 -0.1645  0.4788
   6423SM  H11A 8202   4.437   4.923   7.058 -0.9083 -1.2933  0.5578
   6423SM  H11B 8203   4.342   4.886   7.203 -2.0273 -0.4032 -1.6251
   6423SM     P 8204   4.642   5.069   7.199  0.2984  0.3550 -0.2344
   6423SM   O13 8205   4.668   5.203   7.250  0.1911 -0.1782 -0.1177
   6423SM   O14 8206   4.724   4.955   7.244 -0.1453 -0.1546  0.2391
   6423SM   O11 8207   4.640   5.059   7.043  0.3637  0.0656 -0.0815
   6423SM   O12 8208   4.491   5.024   7.235 -0.0239  0.5583 -0.4251
   6423SM   C1S 8209   4.736   5.125   6.965  0.1161 -0.5673 -0.5473
   6423SM   H1S 8210   4.838   5.095   6.996 -0.2432 -0.9538  0.2851
   6423SM   H1T 8211   4.740   5.233   6.994  1.1746 -0.7419  0.0352
   6423SM    NF 8212   4.805   5.180   6.735 -0.9218 -0.5567  0.0647
   6423SM   HNF 8213   4.781   5.264   6.687 -1.7646 -0.2462  0.9956
   6423SM   C2S 8214   4.693   5.127   6.817  0.1818 -1.1642  0.1099
   6423SM   H2S 8215   4.669   5.023   6.785 -0.1090 -1.3714  0.9802
   6423SM   C3S 8216   4.557   5.207   6.804 -0.9706  0.7931 -0.4565
   6423SM   H3S 8217   4.569   5.307   6.850  0.2445  1.4324 -2.0547
   6423SM    O3 8218   4.440   5.147   6.869 -0.2667 -0.1534  0.4434
   6423SM   HO3 8219   4.480   5.086   6.931 -0.7600 -2.4684 -1.3520
   6423SM   C4S 8220   4.521   5.229   6.661  0.0862  0.1525  0.1722
   6423SM   H4S 8221   4.560   5.320   6.614  0.5909 -0.2200 -0.1385
   6423SM   C5S 8222   4.466   5.146   6.577 -0.6156  0.5701  0.2599
   6423SM   H5S 8223   4.434   5.050   6.620 -2.0742  1.2174  0.6952
   6423SM   C6S 8224   4.427   5.171   6.435  0.1336 -0.3235  0.5888
   6423SM   H6S 8225   4.445   5.276   6.403 -2.6936  0.8758  2.5510
   6423SM   H6T 8226   4.318   5.161   6.416  0.2447 -0.5086  0.0098
   6423SM   C7S 8227   4.501   5.073   6.337 -0.2687  0.1800  0.1747
   6423SM   H7S 8228   4.485   4.969   6.371  2.2583  0.4848  2.7012
   6423SM   H7T 8229   4.610   5.094   6.337 -0.3787  1.1448  2.4721
   6423SM   C8S 8230   4.456   5.089   6.193  0.2996  0.8786 -0.3059
   6423SM   H8S 8231   4.353   5.052   6.178  1.0874 -0.6761 -2.3226
   6423SM   H8T 8232   4.508   5.016   6.127 -2.9598 -1.0391 -0.9497
   6423SM   C9S 8233   4.462   5.238   6.133 -0.1027 -0.0952 -0.0871
   6423SM   H9S 8234   4.565   5.260   6.169  0.4464  0.0397 -1.6619
   6423SM   H9T 8235   4.391   5.307   6.184  1.3512  0.7943  0.7876
   6423SM  C10S 8236   4.450   5.255   5.987 -0.0834  0.4189 -0.0547
   6423SM  H10S 8237   4.499   5.166   5.942 -0.2562 -0.7521  1.9948
   6423SM  H10T 8238   4.506   5.346   5.955  0.4935 -0.0356 -0.3649
   6423SM  C11S 8239   4.297   5.267   5.946  0.4980 -0.2840  0.0529
   6423SM  H11S 8240   4.262   5.359   5.997  0.3269 -0.5653  0.4568
   6423SM  H11T 8241   4.241   5.182   5.992  1.4617 -0.9463  0.0244
   6423SM  C12S 8242   4.253   5.275   5.795  0.6394 -0.6042 -1.1046
   6423SM  H12S 8243   4.277   5.173   5.756 -1.6190 -0.9522 -1.6744
   6423SM  H12T 8244   4.328   5.342   5.748 -0.4896  1.7602  0.2807
   6423SM  C13S 8245   4.112   5.316   5.764  0.2875  0.4922  0.6428
   6423SM  H13S 8246   4.091   5.413   5.813 -0.5780  0.5810  0.1195
   6423SM  H13T 8247   4.045   5.245   5.818  2.2949  0.3621  3.1483
   6423SM  C14S 8248   4.081   5.341   5.613  0.4078 -0.3929  0.2932
   6423SM  H14S 8249   4.152   5.420   5.582  0.7589 -0.6484  0.4420
   6423SM  H14T 8250   3.978   5.380   5.599 -0.2894 -2.1365  0.2350
   6423SM  C15S 8251   4.095   5.224   5.517  0.3633  1.1327  0.1036
   6423SM  H15S 8252   4.033   5.139   5.553  0.2779  1.5331  0.9234
   6423SM  H15T 8253   4.202   5.200   5.534  0.3428  1.9462  1.5610
   6423SM  C16S 8254   4.089   5.250   5.373 -0.4352  0.2137  0.2984
   6423SM  H16S 8255   4.154   5.178   5.320 -1.3551  0.9052 -1.9035
   6423SM  H16T 8256   4.133   5.349   5.350 -0.6840 -0.3072 -2.8525
   6423SM  C17S 8257   3.947   5.237   5.317 -0.0274 -0.5973  0.3504
   6423SM  H17S 8258   3.876   5.302   5.373 -1.3339 -3.0436  1.6942
   6423SM  H17T 8259   3.914   5.136   5.348 -0.6018 -1.2202 -2.0547
   6423SM  C18S 8260   3.929   5.270   5.167  0.0260 -0.2327 -0.3264
   6423SM  H18S 8261   3.821   5.276   5.143 -0.5460  0.5208  2.1118
   6423SM  H18T 8262   3.980   5.196   5.102  1.3966 -0.8576  1.3870
   6423SM  H18U 8263   3.973   5.371   5.153  0.6094 -0.4445 -0.0472
   6423SM   C1F 8264   4.924   5.121   6.714  0.1833 -0.3120 -0.3614
   6423SM    OF 8265   4.949   5.023   6.785 -0.2420 -0.3451  0.0329
   6423SM   C2F 8266   5.016   5.157   6.603 -0.9664 -0.2353  0.3370
   6423SM   H2F 8267   5.060   5.259   6.608  0.3597 -0.7139 -0.9045
   6423SM   H2G 8268   4.950   5.158   6.514  0.7033 -0.0064 -0.9490
   6423SM   C3F 8269   5.122   5.054   6.574  0.5069 -0.3436 -0.4755
   6423SM   H3F 8270   5.081   4.950   6.568 -1.0819  0.1024  1.5285
   6423SM   H3G 8271   5.188   5.056   6.664  1.6234  1.9875 -1.2646
   6423SM   C4F 8272   5.203   5.080   6.442 -0.6506 -0.5275  0.0414
   6423SM   H4F 8273   5.224   5.189   6.445 -4.0848  0.2484 -0.0050
   6423SM   H4G 8274   5.136   5.063   6.354 -1.6864  0.8146  0.5465
   6423SM   C5F 8275   5.333   4.999   6.436  0.1681  0.6734 -0.3978
   6423SM   H5F 8276   5.301   4.896   6.408  1.7039 -0.1611  0.7912
   6423SM   H5G 8277   5.386   5.002   6.534 -0.0559  2.9003 -0.3085
   6423SM   C6F 8278   5.419   5.054   6.331  0.0124  0.2242 -0.1107
   6423SM   H6F 8279   5.509   4.991   6.313 -0.0999 -0.5783  1.9341
   6423SM   H6G 8280   5.464   5.150   6.363 -0.0814  0.6369 -1.1782
   6423SM   C7F 8281   5.355   5.067   6.189  0.1634 -0.6243  0.0142
   6423SM   H7F 8282   5.428   5.140   6.147  0.0045 -0.1096  0.6311
   6423SM   H7G 8283   5.262   5.127   6.189  0.2356 -0.4858 -0.9453
   6423SM   C8F 8284   5.322   4.933   6.127  0.8284 -0.1553 -0.8389
   6423SM   H8F 8285   5.238   4.883   6.179  1.3083  2.4796  2.8955
   6423SM   H8G 8286   5.406   4.862   6.148  0.1871 -0.2307  1.7479
   6423SM   C9F 8287   5.270   4.919   5.978  0.4599  0.1279 -0.0885
   6423SM   H9F 8288   5.352   4.960   5.915  0.8920 -1.4414 -0.6009
   6423SM   H9G 8289   5.182   4.986   5.969  2.4450  2.7733 -1.1206
   6423SM  C10F 8290   5.225   4.773   5.953  0.1750 -0.1699 -0.2479
   6423SM  H10F 8291   5.169   4.726   6.036  1.6497 -3.8668 -1.1225
   6423SM  H10G 8292   5.314   4.707   5.943  1.8204  1.5178  2.2251
   6423SM  C11F 8293   5.145   4.761   5.825  0.5252 -0.2180 -0.3915
   6423SM  H11F 8294   5.200   4.813   5.744  1.3915 -1.6461 -0.7458
   6423SM  H11G 8295   5.053   4.824   5.829  0.1361 -0.8273  0.9021
   6423SM  C12F 8296   5.082   4.626   5.796  0.4553 -0.1435  0.4792
   6423SM  H12F 8297   5.043   4.587   5.892 -1.2234  0.5701  0.1205
   6423SM  H12G 8298   5.160   4.552   5.767  0.3536  0.0883 -0.4048
   6423SM  C13F 8299   4.975   4.615   5.677 -0.3450  0.4176 -0.4764
   6423SM  H13F 8300   5.022   4.642   5.580 -1.0996  0.0548 -0.9609
   6423SM  H13G 8301   4.885   4.680   5.681 -0.4588  0.4276 -2.3475
   6423SM  C14F 8302   4.928   4.468   5.667  0.1115 -0.5172 -0.8081
   6423SM  H14F 8303   4.881   4.438   5.762  1.4664  2.3153  0.8951
   6423SM  H14G 8304   5.017   4.409   5.637  0.2380 -0.1425 -1.1850
   6423SM  C15F 8305   4.835   4.452   5.546  0.2642  0.3258 -0.5718
   6423SM  H15F 8306   4.869   4.520   5.465  0.3036  2.1100  0.8723
   6423SM  H15G 8307   4.730   4.485   5.562 -0.5007 -1.8322 -0.7440
   6423SM  C16F 8308   4.820   4.305   5.490  0.1753  0.3079 -0.3261
   6423SM  H16F 8309   4.719   4.261   5.474  0.0854  0.5311 -0.3744
   6423SM  H16G 8310   4.868   4.233   5.559  0.0106 -0.0066 -0.5368
   6423SM  C17F 8311   4.902   4.290   5.359 -0.3347  0.3392 -0.5559
   6423SM  H17F 8312   5.005   4.324   5.384  0.4362 -1.0033 -1.7662
   6423SM  H17G 8313   4.852   4.357   5.287 -0.5593  2.5510  1.5329
   6423SM  C18F 8314   4.904   4.147   5.313  0.4862  0.0209 -0.0088
   6423SM  H18F 8315   4.804   4.120   5.273  0.4152 -1.5589  1.1448
   6423SM  H18G 8316   4.923   4.085   5.403 -0.3277 -0.3446 -0.0790
   6423SM  C19F 8317   5.004   4.114   5.202  0.3272  0.2353 -0.3887
   6423SM  H19F 8318   5.108   4.135   5.235 -0.1297  2.1201 -0.0378
   6423SM  H19G 8319   4.989   4.189   5.122 -0.2460  1.2556  0.6484
   6423SM  C20F 8320   4.986   3.970   5.149 -0.1787 -0.7684 -0.6277
   6423SM  H20F 8321   4.886   3.952   5.104 -0.6874  0.6237 -0.1141
   6423SM  H20G 8322   5.018   3.896   5.226 -1.1180 -0.3659  0.1715
   6423SM  C21F 8323   5.095   3.949   5.036 -0.2471  0.0234 -0.1916
   6423SM  H21F 8324   5.198   3.954   5.075 -0.1456  1.7246 -0.5811
   6423SM  H21G 8325   5.089   4.036   4.967  0.3773  1.1886  1.1835
   6423SM  C22F 8326   5.058   3.819   4.959 -0.1753 -0.0116 -0.0135
   6423SM  H22F 8327   4.954   3.832   4.923 -0.8980 -0.2846  1.8644
   6423SM  H22G 8328   5.060   3.737   5.034  0.6083  0.0811  0.0776
   6423SM  C23F 8329   5.155   3.791   4.843  0.0739  0.5656 -0.4074
   6423SM  H23F 8330   5.140   3.695   4.789  0.6295  0.1440  0.1806
   6423SM  H23G 8331   5.260   3.797   4.877  0.1078  1.4371 -0.6422
   6423SM  H23H 8332   5.142   3.865   4.760  1.4496  1.5001  0.1683
   6523SM     N 8333   5.122   5.098   7.225 -0.1904 -0.1514 -0.1623
   6523SM   C15 8334   5.007   5.171   7.271  0.3484 -0.2664  0.0439
   6523SM  H15A 8335   4.914   5.142   7.224  0.1427  1.1780 -0.5231
   6523SM  H15B 8336   5.015   5.276   7.247 -3.2207 -0.4072 -2.5704
   6523SM  H15C 8337   5.001   5.166   7.378  2.0396 -0.8044  0.1375
   6523SM   C14 8338   5.226   5.158   7.309 -0.0463  0.2579 -0.2261
   6523SM  H14A 8339   5.321   5.145   7.259  1.1964  1.1788  1.7701
   6523SM  H14B 8340   5.250   5.107   7.401  1.4481  1.6269  0.1979
   6523SM  H14C 8341   5.210   5.263   7.329 -1.2074 -0.0799  0.6941
   6523SM   C13 8342   5.107   4.946   7.246  0.1607 -0.4537 -0.6452
   6523SM  H13A 8343   5.024   4.907   7.189 -0.0249  0.0505 -0.7239
   6523SM  H13B 8344   5.094   4.938   7.353  2.0429 -1.7958 -0.4703
   6523SM  H13C 8345   5.197   4.892   7.221  0.8402  0.4710 -0.2513
   6523SM   C12 8346   5.150   5.133   7.073  0.2479  0.4763 -0.3683
   6523SM  H12A 8347   5.070   5.084   7.020  0.9970 -0.7364 -0.4292
   6523SM  H12B 8348   5.240   5.078   7.049 -0.0807 -1.3208  2.0732
   6523SM   C11 8349   5.172   5.276   7.031 -0.6641  0.3024 -0.8443
   6523SM  H11A 8350   5.083   5.334   7.062  1.0591  3.4982 -1.3982
   6523SM  H11B 8351   5.185   5.291   6.921  1.5069  2.0423 -0.4207
   6523SM     P 8352   5.277   5.482   7.148  0.1561 -0.2520 -0.1861
   6523SM   O13 8353   5.168   5.486   7.245 -0.3033 -0.2544 -0.0707
   6523SM   O14 8354   5.411   5.523   7.198  0.0493  0.2127  0.1143
   6523SM   O11 8355   5.251   5.584   7.035  0.7666  0.1531  0.5174
   6523SM   O12 8356   5.287   5.340   7.090  0.1942  0.2388  0.1449
   6523SM   C1S 8357   5.302   5.581   6.899  0.7503 -0.0526  0.1590
   6523SM   H1S 8358   5.261   5.495   6.842  0.4132 -0.4427  0.9647
   6523SM   H1T 8359   5.411   5.562   6.910  0.2187 -1.9016  4.5724
   6523SM    NF 8360   5.300   5.735   6.688 -0.0323  0.5822  0.4363
   6523SM   HNF 8361   5.378   5.791   6.661  0.4153  0.7839  2.0605
   6523SM   C2S 8362   5.275   5.724   6.829 -0.4471 -0.5192  0.3945
   6523SM   H2S 8363   5.167   5.738   6.851 -0.1518 -0.8006  2.1321
   6523SM   C3S 8364   5.353   5.837   6.900  0.0663 -0.2911  0.5598
   6523SM   H3S 8365   5.461   5.830   6.876  0.1374 -1.5146  1.1285
   6523SM    O3 8366   5.337   5.839   7.044 -0.1264  0.2248  0.0853
   6523SM   HO3 8367   5.313   5.749   7.066  0.8497  0.3512  1.8268
   6523SM   C4S 8368   5.306   5.975   6.843  0.1248 -0.0985 -0.0045
   6523SM   H4S 8369   5.208   6.012   6.876 -1.2115 -1.8158 -1.7729
   6523SM   C5S 8370   5.378   6.053   6.759 -0.2692  0.4096 -0.3437
   6523SM   H5S 8371   5.474   6.018   6.717 -0.6581  1.2022 -1.9719
   6523SM   C6S 8372   5.323   6.184   6.710  0.0336 -0.3424  0.2561
   6523SM   H6S 8373   5.399   6.256   6.674 -0.2177  0.9318  2.1405
   6523SM   H6T 8374   5.271   6.237   6.792  0.0283  1.3156 -0.7854
   6523SM   C7S 8375   5.231   6.158   6.590 -0.1461  0.3883 -0.3319
   6523SM   H7S 8376   5.187   6.257   6.564 -2.7543 -0.4972  0.4071
   6523SM   H7T 8377   5.140   6.097   6.608 -2.4215  3.7370  0.5899
   6523SM   C8S 8378   5.299   6.114   6.453  0.2831 -0.0697  0.2565
   6523SM   H8S 8379   5.374   6.035   6.475 -1.1439 -1.5396  0.1004
   6523SM   H8T 8380   5.352   6.200   6.407  1.8902 -0.6608  0.9581
   6523SM   C9S 8381   5.206   6.053   6.349 -0.2024 -0.4875  0.3118
   6523SM   H9S 8382   5.122   6.120   6.319 -0.9200 -1.1880  0.7098
   6523SM   H9T 8383   5.149   5.962   6.377 -2.0446 -0.7996 -3.6715
   6523SM  C10S 8384   5.284   6.019   6.223  0.5083  0.3100  0.5974
   6523SM  H10S 8385   5.372   5.958   6.253  0.0179 -0.6432  0.1681
   6523SM  H10T 8386   5.327   6.105   6.168  1.7842  0.6499  2.0511
   6523SM  C11S 8387   5.212   5.932   6.125  0.3290  0.2106 -0.2320
   6523SM  H11S 8388   5.142   5.994   6.065  0.0874  0.3417  0.1789
   6523SM  H11T 8389   5.166   5.848   6.181  2.4811 -0.8333  0.0734
   6523SM  C12S 8390   5.306   5.878   6.017 -0.2988 -0.8166  0.5422
   6523SM  H12S 8391   5.386   5.817   6.064 -0.0294 -0.4759  0.5359
   6523SM  H12T 8392   5.352   5.966   5.966 -2.6992  0.6961  0.8357
   6523SM  C13S 8393   5.230   5.791   5.913  0.0317 -0.3969 -0.0480
   6523SM  H13S 8394   5.143   5.856   5.891 -0.5662 -0.9225  0.7194
   6523SM  H13T 8395   5.188   5.694   5.946  0.9282 -2.1891 -3.6823
   6523SM  C14S 8396   5.317   5.760   5.791 -0.0025 -0.2098 -0.0450
   6523SM  H14S 8397   5.402   5.689   5.793  0.5003  0.1769 -3.0065
   6523SM  H14T 8398   5.352   5.855   5.745 -1.2766 -0.1463 -0.9204
   6523SM  C15S 8399   5.227   5.695   5.682  0.1125  0.6733  0.6361
   6523SM  H15S 8400   5.135   5.757   5.678 -1.0666 -0.9291  1.5138
   6523SM  H15T 8401   5.196   5.597   5.726  1.3159 -0.4530 -0.8980
   6523SM  C16S 8402   5.289   5.671   5.551 -0.3343 -0.4311  0.1854
   6523SM  H16S 8403   5.360   5.587   5.535 -0.0710 -0.0442 -0.7696
   6523SM  H16T 8404   5.353   5.760   5.531 -1.1759 -0.1215 -1.2416
   6523SM  C17S 8405   5.191   5.664   5.438 -0.4364 -0.0360  0.1979
   6523SM  H17S 8406   5.127   5.754   5.435 -0.1405  0.2625  1.9217
   6523SM  H17T 8407   5.122   5.581   5.462 -1.6927  0.3605 -1.7967
   6523SM  C18S 8408   5.257   5.627   5.302  0.4788  0.0905  0.3164
   6523SM  H18S 8409   5.186   5.610   5.217 -1.4364  2.1960  1.3860
   6523SM  H18T 8410   5.296   5.523   5.305  1.4310  0.2547 -2.6720
   6523SM  H18U 8411   5.338   5.695   5.266 -0.5278  0.9009 -0.5102
   6523SM   C1F 8412   5.229   5.663   6.599  0.4603 -0.5548 -0.2971
   6523SM    OF 8413   5.116   5.617   6.626  0.3650  0.9551  0.2692
   6523SM   C2F 8414   5.294   5.628   6.469  0.0082  0.3891  0.6310
   6523SM   H2F 8415   5.352   5.537   6.495 -0.9330 -0.5777 -0.5882
   6523SM   H2G 8416   5.363   5.712   6.444  0.7220 -0.7854 -1.6103
   6523SM   C3F 8417   5.188   5.590   6.361 -0.1546 -0.2147  0.2004
   6523SM   H3F 8418   5.122   5.678   6.345  1.6862  1.8001  2.7888
   6523SM   H3G 8419   5.127   5.501   6.388  0.3655 -0.0111  2.2733
   6523SM   C4F 8420   5.231   5.566   6.218  0.3660  0.4522  0.6719
   6523SM   H4F 8421   5.264   5.667   6.184 -0.2815  2.0594  4.2879
   6523SM   H4G 8422   5.150   5.530   6.152  0.0495  0.9994  0.7485
   6523SM   C5F 8423   5.347   5.474   6.197 -0.1159 -0.5237 -0.5554
   6523SM   H5F 8424   5.310   5.376   6.234 -0.2353 -0.5254 -0.6792
   6523SM   H5G 8425   5.438   5.512   6.249 -0.8108  0.6452 -0.1523
   6523SM   C6F 8426   5.382   5.447   6.049 -0.4029 -0.1341  0.2902
   6523SM   H6F 8427   5.468   5.376   6.045  0.5248  0.9578  0.2466
   6523SM   H6G 8428   5.408   5.541   5.996 -0.1910  0.4841  1.4708
   6523SM   C7F 8429   5.269   5.370   5.974 -0.8344  0.1353 -0.6618
   6523SM   H7F 8430   5.177   5.426   5.949  0.1700  0.9396 -2.8420
   6523SM   H7G 8431   5.241   5.281   6.035 -2.0577  1.2864  0.5261
   6523SM   C8F 8432   5.328   5.322   5.843 -0.0320 -0.2521  0.1176
   6523SM   H8F 8433   5.417   5.258   5.864  1.0282  1.5945  1.5791
   6523SM   H8G 8434   5.378   5.411   5.799  0.2394  0.9026  2.6040
   6523SM   C9F 8435   5.227   5.265   5.743  0.6509  0.3368  0.6704
   6523SM   H9F 8436   5.197   5.336   5.663  2.1828 -1.8797 -2.0646
   6523SM   H9G 8437   5.135   5.244   5.801  0.0544 -2.2666 -1.0698
   6523SM  C10F 8438   5.275   5.133   5.670 -0.0813  0.5384  0.5878
   6523SM  H10F 8439   5.303   5.060   5.749  0.9452  1.3273  0.9702
   6523SM  H10G 8440   5.373   5.143   5.619 -0.9798 -1.1414 -1.6258
   6523SM  C11F 8441   5.169   5.092   5.570  0.7011 -0.0347  0.6110
   6523SM  H11F 8442   5.137   5.181   5.511  0.7125  1.2179  2.4174
   6523SM  H11G 8443   5.082   5.051   5.625  1.2418 -2.6683 -0.3721
   6523SM  C12F 8444   5.216   4.987   5.460 -0.2928 -0.9112 -0.3279
   6523SM  H12F 8445   5.239   4.888   5.504 -0.1440 -0.3654  0.8532
   6523SM  H12G 8446   5.306   5.021   5.404 -0.1563 -2.2710 -0.9752
   6523SM  C13F 8447   5.110   4.965   5.356  0.5376 -0.2111  0.6265
   6523SM  H13F 8448   5.154   4.936   5.258 -0.9205 -1.0223  0.1834
   6523SM  H13G 8449   5.053   5.058   5.334 -0.1736 -0.7067  0.3043
   6523SM  C14F 8450   5.004   4.859   5.385  0.0296  0.1418 -0.2408
   6523SM  H14F 8451   4.976   4.867   5.492 -1.0517  0.1244 -0.5071
   6523SM  H14G 8452   5.039   4.754   5.375 -1.0847 -0.1157 -1.9521
   6523SM  C15F 8453   4.871   4.866   5.293 -0.6333  0.0572  0.0922
   6523SM  H15F 8454   4.905   4.840   5.191  0.0010 -3.9930  1.1467
   6523SM  H15G 8455   4.837   4.971   5.297  1.1294  0.7735 -1.9409
   6523SM  C16F 8456   4.763   4.773   5.337  0.7378 -0.6364 -0.0134
   6523SM  H16F 8457   4.762   4.757   5.447  3.0304  0.4636  0.2425
   6523SM  H16G 8458   4.788   4.678   5.286  1.5333 -0.2278 -0.4109
   6523SM  C17F 8459   4.621   4.815   5.293  0.0322 -0.4751  0.1971
   6523SM  H17F 8460   4.615   4.807   5.182 -0.4251  1.6856  0.0309
   6523SM  H17G 8461   4.611   4.921   5.324 -3.2757 -0.4160 -0.7026
   6523SM  C18F 8462   4.507   4.721   5.340  0.2675 -0.5249  0.5842
   6523SM  H18F 8463   4.521   4.617   5.304 -0.3747 -0.4812  0.1745
   6523SM  H18G 8464   4.418   4.754   5.282 -0.1171 -1.8146  0.4068
   6523SM  C19F 8465   4.474   4.722   5.495  0.4320  0.0273 -0.7927
   6523SM  H19F 8466   4.482   4.822   5.541 -1.7691  0.5666 -1.4548
   6523SM  H19G 8467   4.536   4.647   5.549  3.0244  1.5030 -1.5740
   6523SM  C20F 8468   4.325   4.690   5.514  0.1660 -0.0426 -0.5867
   6523SM  H20F 8469   4.299   4.593   5.466 -1.0237 -0.7732  1.3957
   6523SM  H20G 8470   4.252   4.760   5.468  1.7815  1.0300 -1.6300
   6523SM  C21F 8471   4.295   4.672   5.664 -0.0827  0.1937  0.2667
   6523SM  H21F 8472   4.374   4.611   5.714 -0.9776  0.4262  2.0784
   6523SM  H21G 8473   4.199   4.617   5.680  0.7807 -1.1361  1.1547
   6523SM  C22F 8474   4.279   4.799   5.750  0.1935 -0.0071  0.3075
   6523SM  H22F 8475   4.369   4.859   5.724 -0.5532  0.4964 -1.2439
   6523SM  H22G 8476   4.293   4.763   5.854  2.7250  2.1033  0.8007
   6523SM  C23F 8477   4.156   4.888   5.735 -0.1987  0.3513  1.2529
   6523SM  H23F 8478   4.161   4.982   5.794  1.5349  0.4005  1.0617
   6523SM  H23G 8479   4.059   4.836   5.748 -0.9293  1.9473  2.4393
   6523SM  H23H 8480   4.150   4.915   5.627 -0.6477 -1.5260  0.7717
   6623SM     N 8481   3.426   2.040   7.059  0.3611  0.6223 -0.2106
   6623SM   C15 8482   3.449   2.179   7.007  0.4721  0.2545 -0.1760
   6623SM  H15A 8483   3.449   2.167   6.900 -0.3710  0.3405 -0.1890
   6623SM  H15B 8484   3.536   2.224   7.055  0.1827  0.8819 -0.2351
   6623SM  H15C 8485   3.362   2.239   7.027  1.0517  0.9606  0.2925
   6623SM   C14 8486   3.556   1.963   7.034  0.1402  0.9860  0.2146
   6623SM  H14A 8487   3.565   1.941   6.929  0.2945 -1.2908  0.6489
   6623SM  H14B 8488   3.558   1.867   7.084 -0.6449  1.2474  0.7775
   6623SM  H14C 8489   3.640   2.025   7.062 -0.0178  0.7136  1.3585
   6623SM   C13 8490   3.388   2.046   7.206  0.2586 -0.7193 -0.1028
   6623SM  H13A 8491   3.454   2.102   7.271 -0.2042  0.6921 -0.8148
   6623SM  H13B 8492   3.377   1.945   7.244  0.8995 -1.6866 -2.3498
   6623SM  H13C 8493   3.295   2.101   7.208  1.1101  0.8474 -1.5255
   6623SM   C12 8494   3.319   1.970   6.982  0.0452 -0.3275  0.0059
   6623SM  H12A 8495   3.320   1.867   7.015 -1.9377 -0.4036 -0.0430
   6623SM  H12B 8496   3.355   1.955   6.881 -0.6413 -0.9813 -0.1520
   6623SM   C11 8497   3.177   2.017   6.988 -0.0987  0.0001  0.1544
   6623SM  H11A 8498   3.143   2.010   7.094 -0.7959  1.1003  0.0209
   6623SM  H11B 8499   3.104   1.960   6.926 -0.4023  1.1535 -0.5682
   6623SM     P 8500   3.056   2.249   6.984  0.6096  0.1969 -0.1399
   6623SM   O13 8501   2.932   2.211   6.906 -0.0702  0.5385  0.7556
   6623SM   O14 8502   3.040   2.250   7.133  0.5358  0.1675  0.2220
   6623SM   O11 8503   3.103   2.390   6.942  0.3864  0.0380 -0.0077
   6623SM   O12 8504   3.173   2.151   6.936 -0.4043  0.1007  0.6588
   6623SM   C1S 8505   3.215   2.412   6.858 -0.3917  0.8295  1.0371
   6623SM   H1S 8506   3.279   2.323   6.848  0.3451  1.4744 -0.2193
   6623SM   H1T 8507   3.276   2.495   6.898 -0.7910  1.5562  0.1886
   6623SM    NF 8508   3.304   2.465   6.633 -0.1861  0.3173 -0.4573
   6623SM   HNF 8509   3.335   2.560   6.629  0.0504  0.4108  1.8650
   6623SM   C2S 8510   3.178   2.434   6.707  0.3359  0.5681 -0.2421
   6623SM   H2S 8511   3.138   2.336   6.675  2.1563 -0.6355  0.9795
   6623SM   C3S 8512   3.078   2.550   6.706  0.1937  0.4723  0.5472
   6623SM   H3S 8513   3.106   2.638   6.767  1.1723  1.2864 -1.0063
   6623SM    O3 8514   2.944   2.521   6.763 -0.5752  0.2993  0.2492
   6623SM   HO3 8515   2.969   2.449   6.821  0.8426 -0.0674 -0.7573
   6623SM   C4S 8516   3.063   2.590   6.557  0.6562 -0.2560 -0.7401
   6623SM   H4S 8517   3.129   2.674   6.532 -1.1535  1.2491 -0.7324
   6623SM   C5S 8518   2.980   2.549   6.465 -0.0901 -0.1205 -0.2272
   6623SM   H5S 8519   2.903   2.474   6.489 -0.4939  0.1024 -0.8189
   6623SM   C6S 8520   2.978   2.598   6.324  0.1313  0.3764  0.1597
   6623SM   H6S 8521   2.899   2.676   6.316 -0.6652 -0.4337 -0.0505
   6623SM   H6T 8522   2.947   2.518   6.253  0.1210  1.5439 -1.2108
   6623SM   C7S 8523   3.111   2.649   6.274 -0.4093  0.6268  0.4650
   6623SM   H7S 8524   3.190   2.571   6.278  0.2902  1.0832 -2.3578
   6623SM   H7T 8525   3.139   2.739   6.332 -1.7293  1.0019  0.5431
   6623SM   C8S 8526   3.103   2.694   6.127 -0.2735  0.4462 -0.1293
   6623SM   H8S 8527   3.050   2.791   6.117  1.3581  1.2297 -1.6957
   6623SM   H8T 8528   3.070   2.608   6.065 -0.4642 -1.0011  1.8680
   6623SM   C9S 8529   3.245   2.736   6.084  0.5428 -0.3159  0.0400
   6623SM   H9S 8530   3.308   2.647   6.100 -0.2513 -0.7751  0.7230
   6623SM   H9T 8531   3.276   2.817   6.153  1.9025 -1.4194  0.7551
   6623SM  C10S 8532   3.276   2.768   5.933  0.3296 -0.0985 -0.3084
   6623SM  H10S 8533   3.272   2.683   5.861  1.3540  1.4315 -2.2854
   6623SM  H10T 8534   3.382   2.800   5.931 -0.0572  1.2714  0.1196
   6623SM  C11S 8535   3.197   2.882   5.873  0.5395 -0.4527  0.2967
   6623SM  H11S 8536   3.206   2.969   5.941 -1.0702  0.2602 -0.3383
   6623SM  H11T 8537   3.092   2.847   5.870  0.2517  0.1750  1.9080
   6623SM  C12S 8538   3.247   2.922   5.737 -0.2467 -0.9229 -1.0219
   6623SM  H12S 8539   3.242   2.834   5.669  3.1293 -0.1361 -2.5053
   6623SM  H12T 8540   3.352   2.956   5.740 -0.9497  1.5675 -1.9958
   6623SM  C13S 8541   3.157   3.025   5.669 -0.7322 -0.3165 -0.3163
   6623SM  H13S 8542   3.164   3.120   5.726 -2.4092  0.5175 -1.4114
   6623SM  H13T 8543   3.049   2.998   5.676 -0.5787 -1.2201 -1.2233
   6623SM  C14S 8544   3.197   3.059   5.523  0.3407  0.6603  0.6232
   6623SM  H14S 8545   3.128   3.005   5.454  1.5475  0.8025 -0.7428
   6623SM  H14T 8546   3.301   3.027   5.499 -0.7757 -2.2057 -0.9468
   6623SM  C15S 8547   3.186   3.204   5.481 -0.0029 -0.4496  0.8607
   6623SM  H15S 8548   3.257   3.255   5.550  2.3753  0.0457 -1.7707
   6623SM  H15T 8549   3.080   3.239   5.488  0.5530  1.3781  0.7136
   6623SM  C16S 8550   3.240   3.221   5.336 -0.8145 -0.3037  0.1596
   6623SM  H16S 8551   3.251   3.127   5.277 -0.2651  0.2479 -0.6240
   6623SM  H16T 8552   3.336   3.276   5.339 -0.7555 -0.0534 -2.8424
   6623SM  C17S 8553   3.147   3.310   5.257 -0.2069 -0.5015 -0.2851
   6623SM  H17S 8554   3.128   3.400   5.320 -0.4972 -1.3420  0.8708
   6623SM  H17T 8555   3.050   3.255   5.256 -0.1476 -0.7991  2.5987
   6623SM  C18S 8556   3.198   3.351   5.121  0.0578 -0.4251  0.5341
   6623SM  H18S 8557   3.124   3.400   5.054  2.0694 -0.7436 -2.0505
   6623SM  H18T 8558   3.222   3.257   5.067  2.4293  1.0205 -1.1326
   6623SM  H18U 8559   3.289   3.415   5.122  1.4668 -2.3418  0.8915
   6623SM   C1F 8560   3.388   2.367   6.604 -0.1994 -0.3050 -0.1322
   6623SM    OF 8561   3.377   2.248   6.638 -0.1507 -0.1996 -0.5747
   6623SM   C2F 8562   3.497   2.414   6.514 -0.6857 -0.1064  0.3571
   6623SM   H2F 8563   3.592   2.359   6.522 -1.2403 -1.0368  0.6282
   6623SM   H2G 8564   3.524   2.520   6.538  1.7270  0.0957 -2.6685
   6623SM   C3F 8565   3.448   2.404   6.364 -0.8424 -0.7276 -0.1499
   6623SM   H3F 8566   3.369   2.475   6.334  1.7444  1.7783 -1.5496
   6623SM   H3G 8567   3.415   2.303   6.332  1.8000 -1.1058 -2.0583
   6623SM   C4F 8568   3.572   2.426   6.273  0.3411  0.2240 -0.1412
   6623SM   H4F 8569   3.628   2.330   6.275  1.0925  0.6551  1.5080
   6623SM   H4G 8570   3.633   2.510   6.315 -0.4247  0.3641  0.7304
   6623SM   C5F 8571   3.542   2.454   6.129 -0.0949 -0.1163 -0.3599
   6623SM   H5F 8572   3.514   2.561   6.137 -0.7823 -0.2705 -0.6896
   6623SM   H5G 8573   3.463   2.381   6.102  1.8265 -1.7687 -1.9009
   6623SM   C6F 8574   3.657   2.450   6.028 -1.1070  0.3944 -0.3259
   6623SM   H6F 8575   3.690   2.344   6.025 -1.1887  0.3422  0.4638
   6623SM   H6G 8576   3.744   2.511   6.061  0.8219 -2.1209 -0.4538
   6623SM   C7F 8577   3.615   2.485   5.891 -0.1454  0.2799  0.3032
   6623SM   H7F 8578   3.561   2.581   5.899 -0.2513  0.3308 -0.8493
   6623SM   H7G 8579   3.538   2.412   5.858  1.0126 -1.3998  1.1459
   6623SM   C8F 8580   3.738   2.475   5.795 -0.1144  0.0192 -0.8281
   6623SM   H8F 8581   3.805   2.397   5.838 -2.2999 -0.0756  2.7609
   6623SM   H8G 8582   3.795   2.570   5.787 -2.2034  1.3270 -0.7257
   6623SM   C9F 8583   3.704   2.425   5.661  0.9590  0.0512 -0.0484
   6623SM   H9F 8584   3.617   2.486   5.629 -0.1068 -1.3431  0.0999
   6623SM   H9G 8585   3.671   2.319   5.658 -0.4922  0.4709  0.3087
   6623SM  C10F 8586   3.813   2.433   5.556 -0.2080  0.2263  0.1060
   6623SM  H10F 8587   3.895   2.366   5.589 -0.3211  0.8750  1.7860
   6623SM  H10G 8588   3.847   2.538   5.560 -1.4515  0.7290 -1.3728
   6623SM  C11F 8589   3.771   2.393   5.416  0.0233  0.3477 -0.6599
   6623SM  H11F 8590   3.671   2.437   5.393 -1.4365 -1.6351  1.4171
   6623SM  H11G 8591   3.760   2.284   5.396  0.1845  0.4011 -1.0531
   6623SM  C12F 8592   3.877   2.438   5.307 -0.1323 -0.3929 -0.0340
   6623SM  H12F 8593   3.982   2.412   5.330  0.3929 -0.8911 -2.7617
   6623SM  H12G 8594   3.868   2.549   5.309  0.2059 -0.3713  0.8217
   6623SM  C13F 8595   3.848   2.389   5.165 -0.3073 -0.5660  0.7077
   6623SM  H13F 8596   3.762   2.448   5.128 -0.1030 -0.0480  1.0508
   6623SM  H13G 8597   3.813   2.283   5.172  2.2520 -1.4684  0.8078
   6623SM  C14F 8598   3.968   2.410   5.076 -0.7979 -0.7059  0.4438
   6623SM  H14F 8599   4.063   2.368   5.115 -1.9666 -0.8647  3.3365
   6623SM  H14G 8600   3.979   2.521   5.072 -2.7622 -0.4948 -0.5038
   6623SM  C15F 8601   3.946   2.351   4.935  0.3231  0.4191 -0.5347
   6623SM  H15F 8602   3.850   2.389   4.894  0.3141  1.3842  0.3108
   6623SM  H15G 8603   3.946   2.240   4.935 -2.2042  0.3561  0.5294
   6623SM  C16F 8604   4.070   2.386   4.847 -0.3501 -0.2116 -0.0043
   6623SM  H16F 8605   4.162   2.393   4.909  1.0091 -0.3220 -1.9332
   6623SM  H16G 8606   4.057   2.479   4.788 -0.2124  0.4926  1.0542
   6623SM  C17F 8607   4.109   2.274   4.748  0.6958  0.2004 -0.8330
   6623SM  H17F 8608   4.088   2.172   4.789  1.0753 -0.0126 -1.1692
   6623SM  H17G 8609   4.217   2.288   4.729  0.4727  2.5509 -0.6144
   6623SM  C18F 8610   4.034   2.281   4.622  0.2900 -0.6131  0.1459
   6623SM  H18F 8611   4.019   2.384   4.584 -1.9806 -0.9774 -0.0769
   6623SM  H18G 8612   3.927   2.258   4.644  0.3554 -0.3748  0.7480
   6623SM  C19F 8613   4.099   2.202   4.509 -0.7067  0.1731 -0.1857
   6623SM  H19F 8614   4.026   2.168   4.433 -0.9418  0.2932 -0.0137
   6623SM  H19G 8615   4.139   2.106   4.547  0.4877  1.2019  1.2875
   6623SM  C20F 8616   4.221   2.262   4.446  0.8147 -0.3943  0.8722
   6623SM  H20F 8617   4.293   2.294   4.524  0.0277  0.9590  1.0615
   6623SM  H20G 8618   4.200   2.357   4.392  1.7262 -0.3248  0.6126
   6623SM  C21F 8619   4.295   2.169   4.341 -0.0124 -0.5849  0.2576
   6623SM  H21F 8620   4.213   2.129   4.278 -1.3752  0.5733  1.2310
   6623SM  H21G 8621   4.335   2.077   4.389  1.5881 -1.2153 -2.1134
   6623SM  C22F 8622   4.411   2.244   4.268 -1.0443  0.1915 -0.1964
   6623SM  H22F 8623   4.492   2.267   4.340  0.5773  2.4128 -2.5511
   6623SM  H22G 8624   4.371   2.342   4.236 -0.7018  1.0182  1.8116
   6623SM  C23F 8625   4.469   2.175   4.142  0.5638  0.2894  0.2598
   6623SM  H23F 8626   4.402   2.202   4.057  0.8480 -0.1861 -0.1178
   6623SM  H23G 8627   4.471   2.064   4.148  0.2157  0.3685  3.5180
   6623SM  H23H 8628   4.566   2.216   4.107 -0.4720  0.8932 -2.1363
   6723SM     N 8629   2.932   4.836   7.162 -0.4882  0.4032  0.0171
   6723SM   C15 8630   2.992   4.772   7.044 -0.1601  0.3014 -0.0237
   6723SM  H15A 8631   3.065   4.827   6.986  0.8459  1.2401  2.0227
   6723SM  H15B 8632   2.909   4.740   6.983 -1.9675  1.1312  1.8877
   6723SM  H15C 8633   3.050   4.684   7.067 -1.3749 -0.2703  0.9753
   6723SM   C14 8634   2.840   4.742   7.235  0.2390 -0.4661 -0.0842
   6723SM  H14A 8635   2.895   4.660   7.278 -2.7279 -1.9921  1.0697
   6723SM  H14B 8636   2.768   4.692   7.172 -1.0172 -0.4394  1.2807
   6723SM  H14C 8637   2.791   4.785   7.321 -0.3428 -1.5290  0.1286
   6723SM   C13 8638   3.046   4.864   7.260 -0.9419 -0.4897  1.1672
   6723SM  H13A 8639   3.121   4.786   7.263  2.8416  2.7481 -0.1058
   6723SM  H13B 8640   3.008   4.882   7.360 -1.3283 -1.2793  1.1655
   6723SM  H13C 8641   3.088   4.952   7.214 -3.0733  0.2524  0.5353
   6723SM   C12 8642   2.860   4.959   7.114  0.1921 -0.8144  0.2116
   6723SM  H12A 8643   2.855   5.028   7.197  1.9695  0.1161 -0.4146
   6723SM  H12B 8644   2.761   4.946   7.072 -0.9439 -0.8616  2.7441
   6723SM   C11 8645   2.932   5.045   7.013 -0.1583 -0.0587 -0.4933
   6723SM  H11A 8646   2.869   5.134   6.994  1.2911  0.9402 -0.7585
   6723SM  H11B 8647   2.944   4.994   6.915  2.9765 -1.9934  0.7411
   6723SM     P 8648   3.090   5.226   7.134 -0.1754 -0.4460 -0.2086
   6723SM   O13 8649   2.980   5.264   7.238 -0.1649 -0.0604 -0.0891
   6723SM   O14 8650   3.230   5.218   7.183  0.1655  0.1590  0.2925
   6723SM   O11 8651   3.084   5.328   7.011 -0.0144  0.3293 -0.3669
   6723SM   O12 8652   3.060   5.088   7.061 -0.2005  0.2141  0.7373
   6723SM   C1S 8653   3.118   5.293   6.868  0.6089  1.0109  0.1712
   6723SM   H1S 8654   3.165   5.193   6.864  0.3099  0.7265  2.4755
   6723SM   H1T 8655   3.201   5.360   6.837 -0.4642  2.7758  0.9364
   6723SM    NF 8656   3.051   5.254   6.640  0.1568  0.4287 -0.3219
   6723SM   HNF 8657   3.061   5.323   6.569  1.1968  2.3361  1.5696
   6723SM   C2S 8658   3.007   5.306   6.768 -0.2698  0.2100 -0.2877
   6723SM   H2S 8659   2.915   5.252   6.798 -1.6381  1.5153 -1.9315
   6723SM   C3S 8660   2.967   5.455   6.769  0.0881 -0.2911  0.0896
   6723SM   H3S 8661   3.042   5.520   6.720  1.1989  0.7330  2.9444
   6723SM    O3 8662   2.958   5.519   6.896 -0.2513  0.1807 -0.2327
   6723SM   HO3 8663   3.003   5.455   6.952 -1.8679 -0.2718  0.5960
   6723SM   C4S 8664   2.838   5.472   6.690 -0.4552 -0.0620 -0.3867
   6723SM   H4S 8665   2.748   5.421   6.728 -1.0177 -0.6846 -2.4556
   6723SM   C5S 8666   2.826   5.543   6.577 -0.0316  0.5416 -0.4260
   6723SM   H5S 8667   2.911   5.603   6.541 -0.6974  1.4555 -0.5102
   6723SM   C6S 8668   2.691   5.555   6.509  0.5469  0.5789  0.5470
   6723SM   H6S 8669   2.668   5.662   6.491 -0.3669  0.3309  0.1997
   6723SM   H6T 8670   2.603   5.504   6.554  0.4337 -0.1832 -0.5004
   6723SM   C7S 8671   2.720   5.501   6.368 -0.9004 -0.4006  0.5926
   6723SM   H7S 8672   2.776   5.406   6.382 -0.2667  0.0235  0.9625
   6723SM   H7T 8673   2.783   5.565   6.303 -0.0986 -1.5862  0.1692
   6723SM   C8S 8674   2.597   5.465   6.287 -0.5896  0.4149  0.4255
   6723SM   H8S 8675   2.524   5.548   6.276 -1.2591 -0.2240 -0.0590
   6723SM   H8T 8676   2.537   5.381   6.328 -1.4709  0.0340 -1.5590
   6723SM   C9S 8677   2.637   5.420   6.143 -0.4550 -0.1602  0.1570
   6723SM   H9S 8678   2.707   5.333   6.143 -0.0420  0.1608 -0.3747
   6723SM   H9T 8679   2.697   5.495   6.087  1.0011 -1.3723  0.0046
   6723SM  C10S 8680   2.518   5.386   6.050  0.3593  0.2949  0.2654
   6723SM  H10S 8681   2.448   5.472   6.037  1.1373  0.9807  0.4994
   6723SM  H10T 8682   2.474   5.296   6.099  2.9555 -1.1876  0.0405
   6723SM  C11S 8683   2.557   5.335   5.909  0.2238 -0.9241  0.1105
   6723SM  H11S 8684   2.468   5.298   5.854  1.8343 -0.2153 -3.2754
   6723SM  H11T 8685   2.637   5.257   5.910  0.5421 -0.6008  1.2099
   6723SM  C12S 8686   2.600   5.458   5.825 -0.1053  0.1439 -0.1071
   6723SM  H12S 8687   2.699   5.485   5.869 -0.0948 -2.3046  1.5423
   6723SM  H12T 8688   2.525   5.540   5.835  0.2368  0.2592  1.7544
   6723SM  C13S 8689   2.621   5.426   5.676  0.0953 -0.9913  0.3072
   6723SM  H13S 8690   2.718   5.373   5.669  0.4225 -0.6328  1.8123
   6723SM  H13T 8691   2.627   5.523   5.622 -1.5151 -1.6919 -1.2174
   6723SM  C14S 8692   2.513   5.342   5.619  0.2130 -0.4677 -0.1182
   6723SM  H14S 8693   2.412   5.385   5.636 -0.5821 -0.8878 -3.2138
   6723SM  H14T 8694   2.513   5.243   5.670 -0.7089  0.2148  1.2579
   6723SM  C15S 8695   2.518   5.313   5.469  0.3338  0.0217 -0.4407
   6723SM  H15S 8696   2.447   5.230   5.447  1.2705 -1.1720  0.8803
   6723SM  H15T 8697   2.617   5.266   5.454  0.1923 -1.3501  2.2032
   6723SM  C16S 8698   2.493   5.438   5.395  0.5077 -0.6130 -0.1158
   6723SM  H16S 8699   2.581   5.506   5.408  2.9532 -3.1370 -2.1953
   6723SM  H16T 8700   2.401   5.485   5.437  1.1960 -0.6146  1.4538
   6723SM  C17S 8701   2.485   5.407   5.247  0.5833 -0.5113 -0.7824
   6723SM  H17S 8702   2.403   5.331   5.240 -0.8656  1.0725 -1.6952
   6723SM  H17T 8703   2.578   5.357   5.213  1.0476 -0.3126  0.1697
   6723SM  C18S 8704   2.456   5.538   5.168 -0.0949  1.3024  0.1658
   6723SM  H18S 8705   2.371   5.589   5.216 -0.3951 -0.0296  1.1186
   6723SM  H18T 8706   2.438   5.526   5.059  1.7262 -0.7346  0.0141
   6723SM  H18U 8707   2.546   5.602   5.154 -0.4564  1.2484 -3.1189
   6723SM   C1F 8708   3.059   5.127   6.603  0.4084  0.8759  0.4985
   6723SM    OF 8709   3.029   5.032   6.674 -0.7007 -0.2806 -0.3421
   6723SM   C2F 8710   3.115   5.097   6.460 -0.1175 -0.2266 -0.6723
   6723SM   H2F 8711   3.208   5.035   6.463 -0.6744 -1.0641 -0.1469
   6723SM   H2G 8712   3.132   5.194   6.409  0.6237 -0.1641 -0.3297
   6723SM   C3F 8713   3.011   5.012   6.387  0.6122  0.4650  0.1962
   6723SM   H3F 8714   3.012   4.908   6.426 -0.6014  0.6133  0.6665
   6723SM   H3G 8715   3.033   4.994   6.280  0.7530  0.3448  0.2440
   6723SM   C4F 8716   2.866   5.062   6.403 -0.4753 -0.4731  0.1431
   6723SM   H4F 8717   2.867   5.173   6.411 -1.0116 -0.4695  0.1980
   6723SM   H4G 8718   2.826   5.027   6.501  2.1223 -0.6716  1.2298
   6723SM   C5F 8719   2.781   5.005   6.297  0.2611 -0.1120 -0.1800
   6723SM   H5F 8720   2.788   4.895   6.312 -1.1058 -0.3751 -1.2625
   6723SM   H5G 8721   2.833   5.030   6.201  2.5992 -2.1781  0.4370
   6723SM   C6F 8722   2.641   5.054   6.304  0.0849  0.3956  0.5044
   6723SM   H6F 8723   2.627   5.164   6.297  0.7645  0.4911  0.6282
   6723SM   H6G 8724   2.604   5.038   6.407  4.2557  0.4660  2.2003
   6723SM   C7F 8725   2.554   5.004   6.192  0.2892 -0.0808 -0.3284
   6723SM   H7F 8726   2.576   4.896   6.182  1.0927 -0.1297  1.5119
   6723SM   H7G 8727   2.579   5.055   6.097  0.0289  1.0831  0.2070
   6723SM   C8F 8728   2.404   5.031   6.215 -0.5550 -0.6831 -0.8152
   6723SM   H8F 8729   2.398   5.135   6.254  1.7866 -0.0810 -1.8811
   6723SM   H8G 8730   2.364   4.967   6.296  0.0740 -0.0203  0.0295
   6723SM   C9F 8731   2.325   5.006   6.087 -0.2921  0.0934 -0.8243
   6723SM   H9F 8732   2.316   4.895   6.079  1.2777 -0.3664  2.1072
   6723SM   H9G 8733   2.381   5.029   5.994  3.0987 -2.0926  0.4551
   6723SM  C10F 8734   2.188   5.078   6.091  0.5790 -0.4287  0.3811
   6723SM  H10F 8735   2.200   5.189   6.096  0.4395 -0.4456  1.1722
   6723SM  H10G 8736   2.132   5.042   6.180 -0.7115  0.2240 -0.1476
   6723SM  C11F 8737   2.105   5.050   5.961 -0.3685  0.4279  0.2336
   6723SM  H11F 8738   2.013   5.110   5.979  0.9790  2.5306  0.4373
   6723SM  H11G 8739   2.071   4.944   5.949 -0.2960  0.4443 -0.1094
   6723SM  C12F 8740   2.173   5.091   5.832  0.7223 -0.1445  0.8985
   6723SM  H12F 8741   2.208   4.997   5.787  3.4407 -0.5428  3.5224
   6723SM  H12G 8742   2.262   5.152   5.858  0.9053  0.0047 -0.0770
   6723SM  C13F 8743   2.083   5.167   5.734 -0.2954  0.5351  0.0043
   6723SM  H13F 8744   2.055   5.268   5.771  0.3720  0.9618 -0.6139
   6723SM  H13G 8745   1.982   5.122   5.724  0.1018 -0.2419 -0.5961
   6723SM  C14F 8746   2.142   5.184   5.592  0.0764  0.0471 -0.1062
   6723SM  H14F 8747   2.186   5.089   5.555  1.3490  0.8661 -0.7763
   6723SM  H14G 8748   2.224   5.257   5.609 -2.4524  2.9488  0.6112
   6723SM  C15F 8749   2.050   5.239   5.483 -0.3912  0.5886 -0.2912
   6723SM  H15F 8750   2.008   5.338   5.509 -1.2639  0.0037  0.6016
   6723SM  H15G 8751   1.965   5.168   5.487  0.9346 -1.0625 -0.3511
   6723SM  C16F 8752   2.113   5.245   5.348 -0.2195  0.0102 -0.7144
   6723SM  H16F 8753   2.195   5.172   5.331  0.2764 -0.1393  1.8994
   6723SM  H16G 8754   2.161   5.345   5.343 -0.2461  0.0503 -0.1899
   6723SM  C17F 8755   2.004   5.240   5.244 -0.4132  0.4472 -0.6305
   6723SM  H17F 8756   1.943   5.332   5.230  0.3025  1.3799  1.8624
   6723SM  H17G 8757   1.939   5.155   5.275  1.3516 -0.3772  0.9736
   6723SM  C18F 8758   2.066   5.210   5.107 -0.1266 -0.3384 -0.1466
   6723SM  H18F 8759   2.131   5.120   5.110  0.3052 -0.0341  2.7658
   6723SM  H18G 8760   2.122   5.300   5.074 -0.2834 -0.3476 -0.4483
   6723SM  C19F 8761   1.955   5.185   5.001 -0.1628  0.6634  0.8192
   6723SM  H19F 8762   1.885   5.271   5.011 -1.6573 -0.2410 -1.0897
   6723SM  H19G 8763   1.890   5.098   5.027 -1.0901  1.2078  0.3934
   6723SM  C20F 8764   2.017   5.176   4.854 -0.0670  0.1712  0.2166
   6723SM  H20F 8765   2.093   5.095   4.855 -2.0371 -1.7741 -0.3731
   6723SM  H20G 8766   2.064   5.274   4.832 -0.2335 -0.1519 -1.7946
   6723SM  C21F 8767   1.904   5.134   4.756  0.5171 -0.3629  0.1264
   6723SM  H21F 8768   1.814   5.193   4.785  0.2088 -0.6100 -0.2971
   6723SM  H21G 8769   1.880   5.027   4.775 -1.3000 -0.0101  0.0426
   6723SM  C22F 8770   1.939   5.154   4.607 -0.1671 -0.6273  0.4249
   6723SM  H22F 8771   1.923   5.262   4.586 -1.9437 -0.9593 -0.1723
   6723SM  H22G 8772   1.871   5.103   4.536 -0.8733  0.6274  0.1639
   6723SM  C23F 8773   2.085   5.113   4.582  0.3820  1.0745 -0.1415
   6723SM  H23F 8774   2.108   5.011   4.619  3.7976  1.7322 -0.1003
   6723SM  H23G 8775   2.156   5.179   4.637 -0.4086  1.0295  0.9707
   6723SM  H23H 8776   2.107   5.105   4.474  0.8451 -0.7192  0.0645
   6823SM     N 8777   2.514   1.523   7.256  0.2114  0.2926 -0.2566
   6823SM   C15 8778   2.444   1.658   7.283  0.2883  0.6103  0.2669
   6823SM  H15A 8779   2.338   1.654   7.262  0.3132  0.6769  0.1274
   6823SM  H15B 8780   2.483   1.742   7.227  1.9387  0.1996  0.7412
   6823SM  H15C 8781   2.457   1.687   7.386 -0.2116  0.8605  0.2604
   6823SM   C14 8782   2.654   1.538   7.291  0.1351  0.2902 -0.0624
   6823SM  H14A 8783   2.673   1.549   7.397 -0.6358 -0.5272  0.1782
   6823SM  H14B 8784   2.697   1.610   7.224 -1.6564 -0.3224 -1.9952
   6823SM  H14C 8785   2.697   1.443   7.262  0.0563 -0.0999  1.0535
   6823SM   C13 8786   2.445   1.425   7.345  0.3089  0.3890  0.3430
   6823SM  H13A 8787   2.468   1.330   7.298  0.8925  0.6091  0.1718
   6823SM  H13B 8788   2.338   1.441   7.344 -0.0900 -1.8109 -1.5874
   6823SM  H13C 8789   2.484   1.429   7.445  0.7761 -1.0103  0.2394
   6823SM   C12 8790   2.497   1.489   7.104  0.7270  0.2902  0.3097
   6823SM  H12A 8791   2.392   1.497   7.079  0.3421  0.7711  1.9845
   6823SM  H12B 8792   2.528   1.388   7.081  1.2349  0.7543 -1.1601
   6823SM   C11 8793   2.571   1.591   7.008 -0.0899  0.6619 -0.0824
   6823SM  H11A 8794   2.563   1.694   7.049  2.1714  0.3575  1.2939
   6823SM  H11B 8795   2.526   1.583   6.907 -1.1254 -0.3739  0.4377
   6823SM     P 8796   2.771   1.455   6.899 -0.2936 -0.3813 -0.0775
   6823SM   O13 8797   2.918   1.478   6.887  0.0566  0.8833 -0.1817
   6823SM   O14 8798   2.726   1.321   6.939  0.6727  0.5022  0.3803
   6823SM   O11 8799   2.710   1.500   6.758  0.1624  0.5307 -0.0311
   6823SM   O12 8800   2.712   1.565   7.000  0.2174  1.2042  0.4260
   6823SM   C1S 8801   2.752   1.625   6.703 -0.5200  0.7842  0.0741
   6823SM   H1S 8802   2.857   1.656   6.724  0.0543  0.0888 -1.5761
   6823SM   H1T 8803   2.681   1.698   6.748 -3.3134 -1.5144 -0.3043
   6823SM    NF 8804   2.761   1.774   6.507  0.6041  0.6206  0.2400
   6823SM   HNF 8805   2.686   1.823   6.464  0.8226  1.5007  0.8300
   6823SM   C2S 8806   2.732   1.633   6.548 -0.5429 -0.2765  0.1576
   6823SM   H2S 8807   2.799   1.558   6.501 -1.9301 -2.0485  0.8833
   6823SM   C3S 8808   2.589   1.591   6.500  0.1273  0.4256  0.4220
   6823SM   H3S 8809   2.527   1.679   6.525  0.6939  1.7491 -2.5159
   6823SM    O3 8810   2.538   1.468   6.558  0.0800 -0.7180  0.0439
   6823SM   HO3 8811   2.584   1.461   6.642 -0.1087  0.0559  0.2192
   6823SM   C4S 8812   2.588   1.575   6.353 -0.8036  0.4686 -0.6807
   6823SM   H4S 8813   2.640   1.483   6.320 -1.9146 -0.1756 -0.6909
   6823SM   C5S 8814   2.541   1.660   6.258 -0.0297  0.1355  0.0992
   6823SM   H5S 8815   2.485   1.746   6.298 -0.4728 -1.0930  2.3157
   6823SM   C6S 8816   2.544   1.634   6.111 -0.2281 -0.4107 -0.4614
   6823SM   H6S 8817   2.454   1.684   6.070 -1.5977 -1.2649  1.3465
   6823SM   H6T 8818   2.533   1.524   6.108 -0.9090 -0.3289 -1.0123
   6823SM   C7S 8819   2.675   1.680   6.029  0.2609 -0.1333 -0.3394
   6823SM   H7S 8820   2.763   1.619   6.059  2.3012  1.3131 -2.9044
   6823SM   H7T 8821   2.705   1.784   6.058  0.5090 -0.7097  1.6084
   6823SM   C8S 8822   2.658   1.679   5.879 -0.2880 -0.5117  0.8068
   6823SM   H8S 8823   2.581   1.757   5.859  0.4489 -0.3580 -1.7995
   6823SM   H8T 8824   2.603   1.586   5.850  0.0330  0.2173 -2.5822
   6823SM   C9S 8825   2.785   1.701   5.792  0.0889 -0.1821 -0.0577
   6823SM   H9S 8826   2.863   1.626   5.816 -1.8451 -2.8412 -1.5525
   6823SM   H9T 8827   2.823   1.804   5.814 -1.0214  0.3143 -0.4215
   6823SM  C10S 8828   2.754   1.690   5.640 -0.2222  0.3351 -0.4441
   6823SM  H10S 8829   2.644   1.706   5.630 -0.8688 -0.8741  3.1617
   6823SM  H10T 8830   2.759   1.583   5.610 -0.7569  0.0040  0.5975
   6823SM  C11S 8831   2.836   1.782   5.549  0.5955 -0.5445  0.0100
   6823SM  H11S 8832   2.944   1.765   5.569  1.0507  0.7678 -1.1578
   6823SM  H11T 8833   2.813   1.888   5.574 -1.7392 -0.6757 -1.3232
   6823SM  C12S 8834   2.814   1.744   5.405  0.1109  0.0924  0.0246
   6823SM  H12S 8835   2.826   1.829   5.334 -1.1851 -0.0303 -0.3720
   6823SM  H12T 8836   2.707   1.720   5.386 -0.1497  1.5213 -0.4497
   6823SM  C13S 8837   2.906   1.630   5.354  0.0262 -0.2102 -0.5519
   6823SM  H13S 8838   2.859   1.602   5.257  2.8771 -1.2318 -1.7217
   6823SM  H13T 8839   2.898   1.543   5.422  0.4212 -0.4916 -0.8636
   6823SM  C14S 8840   3.054   1.662   5.306  0.3900 -0.6035 -0.4725
   6823SM  H14S 8841   3.116   1.670   5.398  0.9387 -2.9096 -0.5742
   6823SM  H14T 8842   3.059   1.762   5.258  2.4412 -1.8926 -3.1911
   6823SM  C15S 8843   3.124   1.559   5.228  0.3025 -0.3149 -0.4572
   6823SM  H15S 8844   3.224   1.607   5.221  0.1321 -0.1599 -2.2128
   6823SM  H15T 8845   3.066   1.553   5.133 -1.3424  0.9388  0.4252
   6823SM  C16S 8846   3.134   1.424   5.294  0.2643 -0.0979  0.2957
   6823SM  H16S 8847   3.038   1.375   5.318  1.9682 -3.4467  0.8521
   6823SM  H16T 8848   3.189   1.425   5.391  0.8669 -0.1021 -0.0410
   6823SM  C17S 8849   3.226   1.347   5.207  0.4562 -0.0354  0.0690
   6823SM  H17S 8850   3.321   1.402   5.194  1.7920 -2.4459 -1.0543
   6823SM  H17T 8851   3.177   1.323   5.110 -0.4979 -1.9589  0.9560
   6823SM  C18S 8852   3.260   1.209   5.268  0.4268  0.7408  0.0297
   6823SM  H18S 8853   3.168   1.157   5.302 -1.1645  2.5947 -1.2376
   6823SM  H18T 8854   3.305   1.229   5.367  0.8665 -1.0891  0.2407
   6823SM  H18U 8855   3.333   1.147   5.212  1.2334  0.7854  0.9961
   6823SM   C1F 8856   2.882   1.822   6.532 -0.5943 -0.1339  0.0789
   6823SM    OF 8857   2.977   1.745   6.540  0.4035  0.1930 -0.0929
   6823SM   C2F 8858   2.901   1.968   6.536 -0.0561 -0.2034  0.0845
   6823SM   H2F 8859   2.921   2.012   6.636  0.4214  1.4837 -0.7155
   6823SM   H2G 8860   2.808   2.020   6.503  0.9285  1.1102 -0.7499
   6823SM   C3F 8861   3.014   2.008   6.440  0.6875 -0.4454  0.2075
   6823SM   H3F 8862   2.979   1.981   6.338 -0.1518  0.5589  0.2113
   6823SM   H3G 8863   3.110   1.959   6.465  0.2175 -0.7604  1.4760
   6823SM   C4F 8864   3.048   2.158   6.445 -0.3656 -0.0067  0.3760
   6823SM   H4F 8865   3.094   2.185   6.542  0.3034  0.8907 -0.1785
   6823SM   H4G 8866   2.959   2.222   6.428  0.5537  1.1332 -0.2702
   6823SM   C5F 8867   3.150   2.201   6.335  0.0287 -0.2125 -0.4307
   6823SM   H5F 8868   3.226   2.121   6.329 -0.6134 -0.7460 -2.1873
   6823SM   H5G 8869   3.189   2.304   6.353  0.8263 -0.2732 -1.6871
   6823SM   C6F 8870   3.077   2.209   6.201 -0.1962 -0.1107  0.5209
   6823SM   H6F 8871   3.003   2.291   6.201 -1.7912 -1.4207 -1.4838
   6823SM   H6G 8872   3.022   2.115   6.179 -1.1766  0.5887 -0.0633
   6823SM   C7F 8873   3.172   2.231   6.084  0.2081  0.0355 -0.0991
   6823SM   H7F 8874   3.271   2.184   6.102  1.1085  1.3990 -1.2855
   6823SM   H7G 8875   3.192   2.340   6.087  0.0317  0.0614  0.1939
   6823SM   C8F 8876   3.126   2.200   5.943 -0.6093  0.3115  0.1146
   6823SM   H8F 8877   3.044   2.272   5.918 -1.4606 -0.9746 -0.9580
   6823SM   H8G 8878   3.088   2.096   5.944  1.5536 -0.5901  3.0252
   6823SM   C9F 8879   3.240   2.220   5.844 -0.2353  0.2989 -0.4497
   6823SM   H9F 8880   3.220   2.145   5.765 -2.0814  1.8512 -1.5439
   6823SM   H9G 8881   3.335   2.199   5.898 -0.0120  0.4667 -0.7768
   6823SM  C10F 8882   3.239   2.359   5.784  0.7688  0.2212  0.4923
   6823SM  H10F 8883   3.286   2.436   5.849  0.1465  1.3476 -0.3393
   6823SM  H10G 8884   3.134   2.396   5.780  0.5725 -0.3870 -0.4782
   6823SM  C11F 8885   3.301   2.370   5.647 -0.1367 -0.4926 -0.0850
   6823SM  H11F 8886   3.229   2.319   5.578  0.6659  0.5848 -1.7825
   6823SM  H11G 8887   3.399   2.322   5.628 -0.1697 -0.5290 -0.1688
   6823SM  C12F 8888   3.302   2.518   5.619  0.9370 -0.8421 -0.4544
   6823SM  H12F 8889   3.373   2.569   5.688  0.4661 -0.3424 -0.3315
   6823SM  H12G 8890   3.204   2.567   5.639  1.2955 -0.1344 -0.3763
   6823SM  C13F 8891   3.346   2.549   5.478  0.2437 -0.0285  0.0875
   6823SM  H13F 8892   3.285   2.490   5.406 -1.2048 -0.2104  1.3999
   6823SM  H13G 8893   3.451   2.517   5.462  0.6289 -0.2068  2.5665
   6823SM  C14F 8894   3.321   2.694   5.432  0.0738 -0.1668  0.1127
   6823SM  H14F 8895   3.370   2.769   5.498 -0.3467 -0.4025  0.6906
   6823SM  H14G 8896   3.213   2.720   5.430  0.0717  0.3073  2.9000
   6823SM  C15F 8897   3.379   2.726   5.290  0.4036 -0.2382  0.0856
   6823SM  H15F 8898   3.339   2.646   5.224 -1.4194 -1.5958  2.6220
   6823SM  H15G 8899   3.490   2.716   5.291  0.6009  1.5071  1.5961
   6823SM  C16F 8900   3.355   2.866   5.238  0.0612 -0.6659 -0.0720
   6823SM  H16F 8901   3.381   2.941   5.315  0.1805 -0.2253 -0.5429
   6823SM  H16G 8902   3.251   2.887   5.206  0.2075  2.0255  0.9542
   6823SM  C17F 8903   3.439   2.897   5.115 -0.0263 -0.2592 -0.9469
   6823SM  H17F 8904   3.405   2.824   5.038  0.0501 -1.0014 -0.2816
   6823SM  H17G 8905   3.544   2.883   5.146  0.0735  2.5032  0.2354
   6823SM  C18F 8906   3.407   3.039   5.061 -0.5565  0.0620  0.3376
   6823SM  H18F 8907   3.444   3.116   5.133  1.2265 -0.5810  0.1737
   6823SM  H18G 8908   3.297   3.055   5.058 -0.5687  0.1391  1.0222
   6823SM  C19F 8909   3.467   3.076   4.921  0.3586 -0.2708 -0.4773
   6823SM  H19F 8910   3.411   3.016   4.846  0.6026  0.1678 -1.0153
   6823SM  H19G 8911   3.576   3.058   4.912  0.6785  0.9413  0.6438
   6823SM  C20F 8912   3.466   3.232   4.891  0.4514  0.0522  0.1027
   6823SM  H20F 8913   3.529   3.282   4.967 -0.8608  0.0715  1.2210
   6823SM  H20G 8914   3.362   3.271   4.897  0.4870 -0.0561  1.7852
   6823SM  C21F 8915   3.527   3.270   4.759 -0.9016 -0.9276  0.2128
   6823SM  H21F 8916   3.635   3.287   4.776 -1.3393 -0.3558  3.0885
   6823SM  H21G 8917   3.495   3.372   4.728  0.4227  0.5372  3.2072
   6823SM  C22F 8918   3.506   3.176   4.645  0.0235  0.4597  0.3619
   6823SM  H22F 8919   3.397   3.157   4.641 -0.1623  1.6228 -0.5879
   6823SM  H22G 8920   3.558   3.078   4.653 -1.2433 -0.3515 -0.8307
   6823SM  C23F 8921   3.559   3.231   4.509 -0.4048 -0.2195 -0.7885
   6823SM  H23F 8922   3.574   3.145   4.440 -4.3137 -1.9251  0.2606
   6823SM  H23G 8923   3.655   3.283   4.531  1.7350 -3.3685 -2.0331
   6823SM  H23H 8924   3.483   3.300   4.466  0.3590  1.3865  0.3567
   6923SM     N 8925   5.355   1.709   7.303  0.3742 -0.1374 -0.8508
   6923SM   C15 8926   5.420   1.836   7.343  0.4450 -1.0856 -0.2443
   6923SM  H15A 8927   5.444   1.848   7.448 -0.6086  0.7116 -0.1755
   6923SM  H15B 8928   5.362   1.923   7.317 -1.6210 -1.1811  3.3802
   6923SM  H15C 8929   5.512   1.852   7.290  0.8491  0.0826  0.7473
   6923SM   C14 8930   5.451   1.602   7.342 -0.3178  0.7629  0.6817
   6923SM  H14A 8931   5.409   1.510   7.305  2.5303 -0.1645 -0.5666
   6923SM  H14B 8932   5.451   1.582   7.448 -3.5519  0.4118  0.6966
   6923SM  H14C 8933   5.544   1.611   7.287 -2.2545  0.1002 -2.9857
   6923SM   C13 8934   5.225   1.691   7.378  0.0724  0.2247  0.3875
   6923SM  H13A 8935   5.248   1.669   7.481 -1.2079 -2.4759  0.1703
   6923SM  H13B 8936   5.178   1.599   7.347  1.2831 -0.6493  1.0640
   6923SM  H13C 8937   5.166   1.781   7.369  2.1890  1.7233  0.6769
   6923SM   C12 8938   5.321   1.704   7.149  0.5828  0.2580  0.2859
   6923SM  H12A 8939   5.272   1.612   7.124 -1.0888  0.6411  1.9606
   6923SM  H12B 8940   5.421   1.709   7.108  1.0321  1.1950  1.4529
   6923SM   C11 8941   5.217   1.803   7.095  0.2695 -0.2476  0.3590
   6923SM  H11A 8942   5.118   1.781   7.142  0.3091 -0.9386  0.1420
   6923SM  H11B 8943   5.204   1.781   6.987  1.8429  0.7880 -0.0762
   6923SM     P 8944   5.353   2.004   7.013  0.0344  0.1609  0.0451
   6923SM   O13 8945   5.380   2.142   7.056 -0.2777  0.1641 -0.6917
   6923SM   O14 8946   5.461   1.908   6.990 -0.8366  0.3648  0.1487
   6923SM   O11 8947   5.271   2.020   6.877  0.5816  0.2747 -0.2836
   6923SM   O12 8948   5.256   1.939   7.117  0.2706 -0.3392 -0.0982
   6923SM   C1S 8949   5.137   2.078   6.887  0.3733  0.3383 -0.1265
   6923SM   H1S 8950   5.123   2.160   6.962 -3.2732 -1.3069  1.2620
   6923SM   H1T 8951   5.066   1.999   6.920  1.8718 -0.8149  0.3976
   6923SM    NF 8952   4.961   2.192   6.762 -0.1477 -0.4772 -0.3784
   6923SM   HNF 8953   4.881   2.133   6.750 -0.7713  0.0919  0.7977
   6923SM   C2S 8954   5.087   2.125   6.751  0.1235 -0.4616  0.9053
   6923SM   H2S 8955   5.163   2.199   6.718  0.7538 -1.5553 -0.1614
   6923SM   C3S 8956   5.095   2.008   6.644 -0.1912 -0.0485  0.5140
   6923SM   H3S 8957   5.011   1.939   6.667 -0.8155  0.9487  1.2431
   6923SM    O3 8958   5.209   1.924   6.660  0.3567  0.1865 -0.1036
   6923SM   HO3 8959   5.240   1.946   6.748 -2.6062 -0.7437  1.3203
   6923SM   C4S 8960   5.083   2.068   6.509  0.0579 -0.1949  0.4654
   6923SM   H4S 8961   5.150   2.153   6.491  0.1337 -0.2005  0.7169
   6923SM   C5S 8962   4.995   2.027   6.413 -0.0095  0.6417  0.5506
   6923SM   H5S 8963   4.932   1.938   6.432  0.3748  0.4313  0.8441
   6923SM   C6S 8964   4.990   2.084   6.277  0.6616 -0.4241  0.1944
   6923SM   H6S 8965   5.091   2.121   6.251  0.5300  0.0518  0.3537
   6923SM   H6T 8966   4.921   2.171   6.279 -0.8275 -1.5599 -0.3527
   6923SM   C7S 8967   4.930   1.981   6.179 -0.5781 -0.4463 -0.0141
   6923SM   H7S 8968   4.824   1.952   6.200 -1.4632  0.4081 -2.8947
   6923SM   H7T 8969   4.980   1.882   6.188 -1.3523 -0.8175  0.3241
   6923SM   C8S 8970   4.934   2.015   6.030  0.1326  0.2731  0.3697
   6923SM   H8S 8971   4.924   1.915   5.984  0.7576  1.0193 -1.5177
   6923SM   H8T 8972   5.039   2.043   6.004  0.4698 -1.1311  0.1802
   6923SM   C9S 8973   4.824   2.117   5.982 -0.0449 -0.4050 -0.3074
   6923SM   H9S 8974   4.816   2.107   5.872 -1.1251 -1.0526 -0.1821
   6923SM   H9T 8975   4.860   2.219   6.007  0.1774 -0.4831 -0.3080
   6923SM  C10S 8976   4.699   2.110   6.065  0.1985  0.1658  0.2423
   6923SM  H10S 8977   4.731   2.138   6.167 -2.1291  0.8713  0.8495
   6923SM  H10T 8978   4.655   2.008   6.061  1.5023 -0.3717 -1.3196
   6923SM  C11S 8979   4.591   2.204   6.014 -0.5755 -0.5295 -0.4212
   6923SM  H11S 8980   4.549   2.176   5.915  0.9298 -0.1921 -1.1843
   6923SM  H11T 8981   4.640   2.300   5.987 -0.2073 -1.0591 -1.7226
   6923SM  C12S 8982   4.470   2.230   6.105  0.5476  0.7493  0.5013
   6923SM  H12S 8983   4.417   2.141   6.145 -0.0198  0.0203 -1.7294
   6923SM  H12T 8984   4.396   2.285   6.043 -2.1469 -0.7986  2.1661
   6923SM  C13S 8985   4.513   2.323   6.214 -0.3919 -0.9557 -0.8238
   6923SM  H13S 8986   4.561   2.411   6.167 -0.3001 -1.0568 -0.9217
   6923SM  H13T 8987   4.585   2.268   6.278  0.2451  0.1423 -0.5694
   6923SM  C14S 8988   4.387   2.360   6.295  0.0913  0.0194 -0.3565
   6923SM  H14S 8989   4.325   2.271   6.319  0.1385  0.2134  0.5210
   6923SM  H14T 8990   4.322   2.427   6.235 -2.1188 -0.9601  0.8313
   6923SM  C15S 8991   4.429   2.429   6.423  0.7923  0.4348  0.1298
   6923SM  H15S 8992   4.489   2.521   6.406  0.6119  0.9938  2.2300
   6923SM  H15T 8993   4.496   2.357   6.474 -0.2962 -0.8519 -0.1985
   6923SM  C16S 8994   4.307   2.462   6.506 -0.2032  0.9101  0.0438
   6923SM  H16S 8995   4.236   2.377   6.496 -0.2278  0.9126  0.1974
   6923SM  H16T 8996   4.250   2.542   6.454 -0.8056 -0.1381 -0.9518
   6923SM  C17S 8997   4.345   2.491   6.651 -0.8945 -0.0265 -0.1197
   6923SM  H17S 8998   4.400   2.402   6.690  0.0179  0.6927  0.2546
   6923SM  H17T 8999   4.248   2.499   6.704 -1.1811 -1.6147 -0.3341
   6923SM  C18S 9000   4.431   2.618   6.658  0.1186 -0.2739 -0.5458
   6923SM  H18S 9001   4.521   2.620   6.592  0.7327 -1.0434  0.2323
   6923SM  H18T 9002   4.482   2.623   6.757 -0.5844  1.0542 -0.2395
   6923SM  H18U 9003   4.368   2.708   6.647 -0.6644 -1.0147 -2.4873
   6923SM   C1F 9004   4.949   2.315   6.823  0.4734  0.3812  0.2480
   6923SM    OF 9005   5.046   2.375   6.870  0.2738  0.7883 -0.8545
   6923SM   C2F 9006   4.813   2.362   6.858  0.5836 -0.2772 -0.5550
   6923SM   H2F 9007   4.801   2.454   6.798 -0.2181 -1.0907 -1.6979
   6923SM   H2G 9008   4.803   2.396   6.963  1.2661 -1.2887 -0.1454
   6923SM   C3F 9009   4.700   2.257   6.832 -0.4868  0.9651 -0.1801
   6923SM   H3F 9010   4.604   2.285   6.880 -0.3551  0.9917  0.0746
   6923SM   H3G 9011   4.726   2.160   6.880 -1.1938  1.6582  1.6906
   6923SM   C4F 9012   4.672   2.234   6.686 -0.7688  0.0545  0.6756
   6923SM   H4F 9013   4.766   2.217   6.630 -0.9002  0.2578  0.3937
   6923SM   H4G 9014   4.627   2.329   6.650  2.3699  1.0885 -0.9296
   6923SM   C5F 9015   4.591   2.102   6.661 -0.7543 -0.4982 -0.2420
   6923SM   H5F 9016   4.492   2.104   6.710 -0.2412 -0.4119  0.8137
   6923SM   H5G 9017   4.641   2.019   6.714 -0.8767  0.0632  0.7737
   6923SM   C6F 9018   4.568   2.063   6.512 -0.9825 -0.6333 -0.7463
   6923SM   H6F 9019   4.662   2.086   6.458 -1.0228 -0.1762 -0.6208
   6923SM   H6G 9020   4.480   2.122   6.478 -1.0000 -0.3323 -0.1750
   6923SM   C7F 9021   4.548   1.914   6.502  1.0371 -0.3389 -1.0657
   6923SM   H7F 9022   4.459   1.875   6.556  1.1422 -2.6854 -2.4339
   6923SM   H7G 9023   4.637   1.857   6.537 -0.7853 -1.7516  1.5967
   6923SM   C8F 9024   4.523   1.865   6.355  0.1744  0.3310  0.1324
   6923SM   H8F 9025   4.617   1.877   6.297 -0.1149  2.5270  0.0190
   6923SM   H8G 9026   4.441   1.927   6.313 -1.7113 -0.6401  2.1346
   6923SM   C9F 9027   4.497   1.712   6.355 -0.5212  0.2034  0.8522
   6923SM   H9F 9028   4.394   1.711   6.397 -0.4920  1.8930  1.0581
   6923SM   H9G 9029   4.566   1.671   6.432  1.5653 -0.6625 -1.3706
   6923SM  C10F 9030   4.532   1.651   6.218 -0.0678 -0.4001 -0.2379
   6923SM  H10F 9031   4.509   1.543   6.235 -2.5788  0.1955  0.4606
   6923SM  H10G 9032   4.641   1.663   6.198  0.9467 -2.3183  3.2634
   6923SM  C11F 9033   4.446   1.699   6.102  0.2263  0.2963  1.3708
   6923SM  H11F 9034   4.471   1.806   6.082  0.6284 -0.1701 -0.9027
   6923SM  H11G 9035   4.340   1.689   6.133  0.3733 -2.2514  1.2573
   6923SM  C12F 9036   4.473   1.618   5.973  0.2300 -0.2640 -0.4912
   6923SM  H12F 9037   4.583   1.604   5.973  0.4651  1.4482  0.0323
   6923SM  H12G 9038   4.454   1.687   5.888 -0.2961  0.1621 -0.0268
   6923SM  C13F 9039   4.394   1.486   5.968 -0.6152 -0.5692 -0.1275
   6923SM  H13F 9040   4.366   1.449   6.070  1.5264  0.6631  0.9725
   6923SM  H13G 9041   4.458   1.408   5.922 -0.3248 -0.3644 -0.0677
   6923SM  C14F 9042   4.263   1.501   5.881 -0.6117  0.5715 -0.1876
   6923SM  H14F 9043   4.203   1.575   5.937 -1.9788 -0.8158  0.2585
   6923SM  H14G 9044   4.196   1.413   5.890 -2.5881  1.7494 -2.4397
   6923SM  C15F 9045   4.270   1.533   5.730 -0.4918 -0.2981 -0.3789
   6923SM  H15F 9046   4.322   1.454   5.671 -0.1674 -1.4519  1.3663
   6923SM  H15G 9047   4.340   1.619   5.724 -0.3111 -0.4731 -0.8068
   6923SM  C16F 9048   4.143   1.578   5.663  0.1418 -0.2458  0.5216
   6923SM  H16F 9049   4.084   1.654   5.719  0.2763  0.5011 -0.3312
   6923SM  H16G 9050   4.079   1.488   5.648 -1.0296  0.4418  1.1541
   6923SM  C17F 9051   4.155   1.620   5.513 -0.3711 -0.1315 -0.8981
   6923SM  H17F 9052   4.192   1.530   5.460 -0.1820  0.1428 -1.2317
   6923SM  H17G 9053   4.230   1.701   5.502 -0.2650 -0.2048 -0.6992
   6923SM  C18F 9054   4.017   1.659   5.457 -0.9099 -0.0472 -0.4857
   6923SM  H18F 9055   3.979   1.751   5.509 -1.6351 -0.0021 -1.0802
   6923SM  H18G 9056   3.948   1.576   5.483  0.0404 -0.9005 -0.6335
   6923SM  C19F 9057   4.023   1.666   5.304 -0.0500  0.6269  0.2046
   6923SM  H19F 9058   4.092   1.587   5.268  0.8690  1.5280 -0.0555
   6923SM  H19G 9059   4.074   1.761   5.278 -0.2436  0.4754 -0.7946
   6923SM  C20F 9060   3.888   1.656   5.236  0.2721  0.0634 -0.1396
   6923SM  H20F 9061   3.869   1.752   5.183  1.3142  0.2644 -0.1794
   6923SM  H20G 9062   3.805   1.650   5.309 -0.0341 -0.8683 -0.5539
   6923SM  C21F 9063   3.881   1.545   5.139 -0.3178  0.1683 -0.0151
   6923SM  H21F 9064   3.778   1.534   5.099  0.4889  0.0393 -2.1813
   6923SM  H21G 9065   3.915   1.449   5.181  2.3113  0.5272 -1.1717
   6923SM  C22F 9066   3.964   1.562   5.013  0.1057 -0.6446 -0.1934
   6923SM  H22F 9067   4.070   1.539   5.036  1.5645  2.4426 -2.8997
   6923SM  H22G 9068   3.972   1.666   4.975  4.3985 -0.3895  0.9024
   6923SM  C23F 9069   3.913   1.480   4.899  0.8506  0.1702  0.0706
   6923SM  H23F 9070   3.921   1.370   4.914 -1.9098  0.0945  1.7616
   6923SM  H23G 9071   3.969   1.502   4.806  0.8547  0.0169  0.0348
   6923SM  H23H 9072   3.808   1.501   4.868  0.8832 -0.5055 -0.5402
   7023SM     N 9073   4.441   1.807   6.996  0.5860  0.6419 -0.5908
   7023SM   C15 9074   4.454   1.953   6.992  0.2714  0.1746 -0.3764
   7023SM  H15A 9075   4.388   1.999   6.919  1.1556  0.3269 -1.1069
   7023SM  H15B 9076   4.556   1.979   6.964  0.7543 -0.3909  0.7846
   7023SM  H15C 9077   4.436   2.004   7.085  3.3749  1.3642 -0.2839
   7023SM   C14 9078   4.310   1.756   7.037  0.7803 -0.4131 -0.1302
   7023SM  H14A 9079   4.327   1.654   7.068  1.6909 -0.1648  0.2243
   7023SM  H14B 9080   4.233   1.761   6.961  1.6927 -2.1607 -1.2374
   7023SM  H14C 9081   4.282   1.810   7.126  4.2644 -0.7184  1.2965
   7023SM   C13 9082   4.466   1.754   6.853 -0.4954 -0.3137 -1.0525
   7023SM  H13A 9083   4.569   1.725   6.839 -0.5242  0.2468 -2.5586
   7023SM  H13B 9084   4.436   1.823   6.775  0.3258 -0.6244 -1.6522
   7023SM  H13C 9085   4.404   1.669   6.830 -1.8571  0.7525 -1.4360
   7023SM   C12 9086   4.540   1.747   7.089  0.9893  0.2617  0.2628
   7023SM  H12A 9087   4.505   1.774   7.187  1.0561  2.2599 -0.2374
   7023SM  H12B 9088   4.635   1.796   7.072  0.8332  0.3937 -0.2416
   7023SM   C11 9089   4.573   1.587   7.092 -0.1058  0.5219 -0.3280
   7023SM  H11A 9090   4.647   1.588   7.175  2.0273 -0.5408 -2.0885
   7023SM  H11B 9091   4.622   1.556   6.997 -0.8449  1.4136 -1.0161
   7023SM     P 9092   4.460   1.365   7.150  0.3286  0.2442  0.0867
   7023SM   O13 9093   4.506   1.371   7.286  0.4919 -0.3999  0.1849
   7023SM   O14 9094   4.327   1.301   7.121 -0.2081  0.3237 -0.3258
   7023SM   O11 9095   4.566   1.311   7.047 -0.1902 -0.0980 -0.3919
   7023SM   O12 9096   4.454   1.518   7.103 -0.4989  0.6631 -0.0266
   7023SM   C1S 9097   4.527   1.305   6.909  0.0715 -0.0508 -0.0845
   7023SM   H1S 9098   4.484   1.400   6.872 -0.0778  0.1311  0.5391
   7023SM   H1T 9099   4.461   1.217   6.889  1.1999 -0.5045 -2.0842
   7023SM    NF 9100   4.613   1.277   6.683  0.3730  0.2424  0.3698
   7023SM   HNF 9101   4.562   1.201   6.643  0.6922  0.5778 -0.7092
   7023SM   C2S 9102   4.652   1.275   6.818 -0.2367  0.6675 -0.9071
   7023SM   H2S 9103   4.735   1.345   6.839  0.7803 -1.0683  1.3775
   7023SM   C3S 9104   4.712   1.132   6.855  0.4527  0.3021 -0.3062
   7023SM   H3S 9105   4.645   1.053   6.814 -1.5142  0.7079  1.9001
   7023SM    O3 9106   4.727   1.119   6.994  1.4718  0.2621 -0.0459
   7023SM   HO3 9107   4.676   1.194   7.025  0.9436  0.0895 -0.4941
   7023SM   C4S 9108   4.848   1.117   6.779  0.5265  0.3222  0.3182
   7023SM   H4S 9109   4.927   1.176   6.828 -0.4874  0.7463  1.4830
   7023SM   C5S 9110   4.871   1.048   6.664  0.0288 -0.3940 -0.0270
   7023SM   H5S 9111   4.795   0.979   6.626  0.4950 -0.4641 -0.8471
   7023SM   C6S 9112   4.997   1.034   6.589  0.4090  0.3163 -0.2285
   7023SM   H6S 9113   5.006   0.930   6.550  1.7138  1.1951 -2.5168
   7023SM   H6T 9114   5.092   1.051   6.643 -0.3937  0.8832  1.0431
   7023SM   C7S 9115   4.986   1.122   6.464 -0.1135  0.6520 -0.3639
   7023SM   H7S 9116   4.981   1.226   6.504 -1.1172  1.0980 -1.5661
   7023SM   H7T 9117   4.894   1.099   6.407  1.3095 -2.4454 -1.6432
   7023SM   C8S 9118   5.108   1.116   6.371 -0.3057 -0.4785 -0.4114
   7023SM   H8S 9119   5.199   1.149   6.425 -0.8874 -0.8708  0.8280
   7023SM   H8T 9120   5.082   1.191   6.294 -1.1282  0.5671  0.8447
   7023SM   C9S 9121   5.124   0.975   6.304 -0.4597  0.1407 -0.2384
   7023SM   H9S 9122   5.029   0.961   6.249  0.0693  3.5099 -2.3361
   7023SM   H9T 9123   5.146   0.900   6.383  2.6231 -0.9167 -1.9185
   7023SM  C10S 9124   5.236   0.977   6.200  0.2625 -0.4283 -0.0229
   7023SM  H10S 9125   5.240   1.075   6.148 -0.9393 -0.6422 -0.5557
   7023SM  H10T 9126   5.195   0.909   6.122 -3.1495  0.0772  1.1802
   7023SM  C11S 9127   5.370   0.923   6.238 -0.1136  0.4028  0.2604
   7023SM  H11S 9128   5.356   0.824   6.285 -1.1136 -0.5777 -1.9404
   7023SM  H11T 9129   5.425   0.986   6.311  2.5969 -0.1090 -1.2041
   7023SM  C12S 9130   5.466   0.898   6.119 -0.7586 -0.1498  0.2570
   7023SM  H12S 9131   5.554   0.861   6.175 -0.1638  0.0394 -0.5421
   7023SM  H12T 9132   5.504   0.995   6.080  0.1448  0.5052  2.5733
   7023SM  C13S 9133   5.417   0.798   6.017 -0.3842  0.1303 -1.1008
   7023SM  H13S 9134   5.350   0.848   5.944  0.4641  1.3993 -1.0529
   7023SM  H13T 9135   5.350   0.722   6.062 -0.9229 -0.0906 -2.2528
   7023SM  C14S 9136   5.540   0.735   5.946  0.4452  0.0239  0.0103
   7023SM  H14S 9137   5.607   0.675   6.012  2.1030  2.0797  0.3411
   7023SM  H14T 9138   5.608   0.816   5.910 -0.9344  1.5567  0.7010
   7023SM  C15S 9139   5.492   0.637   5.840  0.0667 -0.2096 -0.7206
   7023SM  H15S 9140   5.417   0.685   5.773 -1.1414 -1.8320 -0.6028
   7023SM  H15T 9141   5.452   0.548   5.893 -0.0141  1.4676  2.2588
   7023SM  C16S 9142   5.608   0.593   5.753 -0.0181 -0.0756 -0.2472
   7023SM  H16S 9143   5.688   0.538   5.807 -0.0301 -0.2846 -0.4431
   7023SM  H16T 9144   5.664   0.682   5.716  0.8127 -0.6161 -0.3213
   7023SM  C17S 9145   5.576   0.501   5.635  0.6087 -0.0782 -0.1496
   7023SM  H17S 9146   5.501   0.540   5.563 -0.1447  0.3629  0.8588
   7023SM  H17T 9147   5.528   0.409   5.673  1.1563 -1.2378 -2.0948
   7023SM  C18S 9148   5.708   0.477   5.558  0.1154  0.0994 -0.1880
   7023SM  H18S 9149   5.701   0.446   5.451  0.0879 -2.2289  0.4307
   7023SM  H18T 9150   5.768   0.410   5.623 -0.1632  0.9859  1.0006
   7023SM  H18U 9151   5.763   0.573   5.549  0.2336  0.0377 -0.1299
   7023SM   C1F 9152   4.602   1.380   6.607  0.0853 -0.2566  0.2282
   7023SM    OF 9153   4.641   1.486   6.650  0.1517 -0.4889  0.3112
   7023SM   C2F 9154   4.529   1.368   6.478 -0.1286 -0.3227 -0.0389
   7023SM   H2F 9155   4.497   1.469   6.446 -2.0811 -0.4973  1.1889
   7023SM   H2G 9156   4.443   1.298   6.476  0.2022 -0.7792  0.8013
   7023SM   C3F 9157   4.634   1.312   6.374 -0.1944 -0.1813 -0.0557
   7023SM   H3F 9158   4.681   1.223   6.421 -1.9281 -1.6448 -0.9758
   7023SM   H3G 9159   4.722   1.379   6.363 -1.1814  0.7980 -2.9018
   7023SM   C4F 9160   4.565   1.267   6.241 -0.7544 -0.1281  0.0151
   7023SM   H4F 9161   4.480   1.336   6.225  0.4433  1.1862 -0.9453
   7023SM   H4G 9162   4.532   1.161   6.246 -2.3925  0.3387 -0.3122
   7023SM   C5F 9163   4.646   1.276   6.111 -0.3835 -0.3171 -0.1523
   7023SM   H5F 9164   4.671   1.382   6.088  0.5287 -0.4892  0.0353
   7023SM   H5G 9165   4.589   1.233   6.026 -0.3515 -0.8580  0.1000
   7023SM   C6F 9166   4.776   1.198   6.119 -0.8600  0.7406  0.1838
   7023SM   H6F 9167   4.754   1.092   6.144  1.5510  0.1768  0.1338
   7023SM   H6G 9168   4.846   1.232   6.199  0.3461  0.3702 -0.6889
   7023SM   C7F 9169   4.859   1.208   5.992 -0.2755  0.1748 -0.1246
   7023SM   H7F 9170   4.887   1.313   5.967 -0.7985  0.3503  0.0276
   7023SM   H7G 9171   4.798   1.175   5.905 -0.1029 -2.0605  0.5572
   7023SM   C8F 9172   4.986   1.130   6.002 -0.0978  0.1568  0.3102
   7023SM   H8F 9173   4.959   1.038   6.058  0.9004 -1.6505 -2.0170
   7023SM   H8G 9174   5.059   1.178   6.071 -1.2815 -0.3842  1.9983
   7023SM   C9F 9175   5.041   1.078   5.867 -0.1045  0.0630  0.6837
   7023SM   H9F 9176   4.955   1.051   5.802  0.1786 -1.8546  1.0573
   7023SM   H9G 9177   5.104   0.988   5.885  1.5846  0.7595 -1.2328
   7023SM  C10F 9178   5.125   1.182   5.802 -0.2605 -0.4112  0.4794
   7023SM  H10F 9179   5.204   1.212   5.874  0.0362  0.6558 -0.2765
   7023SM  H10G 9180   5.054   1.266   5.789  0.3455 -0.0253 -0.4711
   7023SM  C11F 9181   5.189   1.141   5.667 -0.0618  0.0681 -0.5831
   7023SM  H11F 9182   5.241   1.044   5.679  1.0227  0.7835  0.8141
   7023SM  H11G 9183   5.267   1.216   5.640 -2.4385  2.8166 -0.2734
   7023SM  C12F 9184   5.087   1.129   5.557  0.4063  0.1878 -0.1449
   7023SM  H12F 9185   5.050   1.231   5.531 -1.5845 -0.3247  0.4913
   7023SM  H12G 9186   4.995   1.073   5.586  0.1945  1.0528  0.9262
   7023SM  C13F 9187   5.144   1.059   5.435 -0.1148 -0.8454 -0.1951
   7023SM  H13F 9188   5.199   0.966   5.461  1.3100  0.2598  0.8892
   7023SM  H13G 9189   5.227   1.119   5.390  0.6006 -1.1945  0.6374
   7023SM  C14F 9190   5.048   1.031   5.320  0.1023 -0.3077  0.5204
   7023SM  H14F 9191   4.971   1.108   5.299  1.5250  0.5883 -1.8357
   7023SM  H14G 9192   5.003   0.941   5.366  1.4560 -1.0335  0.4697
   7023SM  C15F 9193   5.125   0.982   5.186 -0.0066 -0.0368 -0.6937
   7023SM  H15F 9194   5.042   0.934   5.129 -0.6420  2.0205 -1.6245
   7023SM  H15G 9195   5.189   0.900   5.224  0.9086  1.9688  2.4370
   7023SM  C16F 9196   5.184   1.086   5.081 -0.3454  0.2192 -0.5001
   7023SM  H16F 9197   5.270   1.136   5.131  1.1865 -2.0979 -0.6619
   7023SM  H16G 9198   5.110   1.165   5.058  0.6315  1.4556  0.5002
   7023SM  C17F 9199   5.239   1.001   4.964 -0.2613 -0.5745  0.6920
   7023SM  H17F 9200   5.158   0.948   4.909 -1.1477  1.3943 -0.0148
   7023SM  H17G 9201   5.315   0.930   5.004  0.3998 -0.7787 -0.8232
   7023SM  C18F 9202   5.303   1.092   4.859  0.1699 -0.1842  0.0578
   7023SM  H18F 9203   5.391   1.150   4.893  0.5328  0.5902 -2.0758
   7023SM  H18G 9204   5.237   1.178   4.835  1.5991  0.6782 -0.9124
   7023SM  C19F 9205   5.337   1.020   4.722 -0.5121  0.1412 -0.3062
   7023SM  H19F 9206   5.365   1.098   4.648  2.9905  0.3717  1.0997
   7023SM  H19G 9207   5.240   0.989   4.677  0.2134  0.3532 -2.0889
   7023SM  C20F 9208   5.428   0.900   4.744  0.1126 -0.2720 -0.0252
   7023SM  H20F 9209   5.445   0.867   4.639  0.2970  1.4273 -0.5635
   7023SM  H20G 9210   5.362   0.822   4.787 -1.4199  0.8386 -0.2969
   7023SM  C21F 9211   5.556   0.930   4.818 -0.0173  0.0593 -0.1343
   7023SM  H21F 9212   5.601   0.830   4.840  0.2050  0.3994  1.0047
   7023SM  H21G 9213   5.535   0.985   4.912 -2.4333 -1.8831  0.5921
   7023SM  C22F 9214   5.654   1.013   4.734 -0.1727  0.5240  0.3581
   7023SM  H22F 9215   5.603   1.102   4.691 -0.3852  0.6859  0.9298
   7023SM  H22G 9216   5.688   0.949   4.650 -0.2028  0.3662  0.4652
   7023SM  C23F 9217   5.769   1.072   4.819  0.6611  0.0292 -0.3620
   7023SM  H23F 9218   5.712   1.129   4.895  1.0848 -1.7032  1.3214
   7023SM  H23G 9219   5.840   1.127   4.754  0.0271 -0.8315 -1.8520
   7023SM  H23H 9220   5.830   0.999   4.875  2.8588  0.8508 -1.5789
   7123SM     N 9221   4.900   0.108   7.211  0.0307  0.3514  0.2398
   7123SM   C15 9222   4.954   0.131   7.071  0.4621  0.2063 -0.0957
   7123SM  H15A 9223   4.877   0.156   7.000  0.0173 -0.5750  0.1031
   7123SM  H15B 9224   5.013   0.047   7.036  0.0315  0.7387 -2.2687
   7123SM  H15C 9225   5.028   0.210   7.068  0.0828  0.5420 -1.6613
   7123SM   C14 9226   4.828  -0.028   7.208  0.2009 -0.0369 -0.8599
   7123SM  H14A 9227   4.755  -0.014   7.130 -0.5109 -1.4414 -0.4774
   7123SM  H14B 9228   4.775  -0.051   7.299 -3.2574  0.0291 -2.6767
   7123SM  H14C 9229   4.892  -0.112   7.183 -0.0862  0.0648 -2.0001
   7123SM   C13 9230   5.016   0.090   7.301 -0.3434 -0.8970  0.0235
   7123SM  H13A 9231   4.986   0.036   7.390  1.7932 -1.1931  0.6281
   7123SM  H13B 9232   5.063   0.183   7.331 -0.2574 -0.9787  0.1445
   7123SM  H13C 9233   5.100   0.040   7.256  0.6913 -0.6987  1.6422
   7123SM   C12 9234   4.817   0.224   7.251  0.0692  0.0758 -0.5270
   7123SM  H12A 9235   4.886   0.304   7.269  0.0365  0.0260 -0.1630
   7123SM  H12B 9236   4.771   0.197   7.345  0.8370 -2.8426 -0.8814
   7123SM   C11 9237   4.708   0.273   7.155 -0.0482 -0.5848  0.3119
   7123SM  H11A 9238   4.749   0.309   7.058 -0.3847  2.0733  1.0908
   7123SM  H11B 9239   4.650   0.351   7.207 -0.7646 -2.5034  2.5493
   7123SM     P 9240   4.509   0.170   7.018 -0.4279  0.2473  0.0152
   7123SM   O13 9241   4.490   0.024   6.985 -0.5457  0.0963 -0.0549
   7123SM   O14 9242   4.394   0.254   7.059  0.2731 -0.2890  0.0221
   7123SM   O11 9243   4.590   0.251   6.897 -0.3076 -0.2207 -0.4177
   7123SM   O12 9244   4.612   0.172   7.138  0.5861 -0.3946 -0.0912
   7123SM   C1S 9245   4.523   0.357   6.822  0.1186 -0.0507  0.0146
   7123SM   H1S 9246   4.539   0.454   6.874 -0.1617 -0.5215  1.0078
   7123SM   H1T 9247   4.413   0.345   6.832  0.0911  0.6612  0.6392
   7123SM    NF 9248   4.518   0.497   6.611  0.7305  0.8880  0.3146
   7123SM   HNF 9249   4.427   0.482   6.571  0.2241  1.5763  1.1578
   7123SM   C2S 9250   4.569   0.371   6.671 -0.2612  0.2737 -0.0992
   7123SM   H2S 9251   4.680   0.383   6.674 -0.3790  2.0746 -1.1673
   7123SM   C3S 9252   4.527   0.246   6.588 -0.0883  0.0251 -0.1480
   7123SM   H3S 9253   4.419   0.234   6.568  0.3137 -1.9350 -1.4563
   7123SM    O3 9254   4.558   0.127   6.656  0.0306 -0.3829  0.4025
   7123SM   HO3 9255   4.595   0.154   6.740 -3.0187 -0.1095  1.8234
   7123SM   C4S 9256   4.593   0.254   6.456  0.2225  0.2538  0.5672
   7123SM   H4S 9257   4.693   0.207   6.457  0.2949  0.2380 -1.6729
   7123SM   C5S 9258   4.544   0.290   6.334  0.4265 -0.4385 -0.2192
   7123SM   H5S 9259   4.441   0.327   6.323  0.9283  1.6539  1.4618
   7123SM   C6S 9260   4.612   0.288   6.200  0.2563 -0.3715 -0.3787
   7123SM   H6S 9261   4.718   0.269   6.227  0.2101  0.8685  0.7731
   7123SM   H6T 9262   4.595   0.385   6.148 -2.1790 -0.1198  0.7419
   7123SM   C7S 9263   4.553   0.189   6.102 -0.3542  0.2180  0.0780
   7123SM   H7S 9264   4.444   0.206   6.090 -0.5090  1.2498  2.4931
   7123SM   H7T 9265   4.567   0.085   6.138 -1.1023  0.1552  0.2055
   7123SM   C8S 9266   4.633   0.198   5.971  0.2870 -0.4033  0.0149
   7123SM   H8S 9267   4.580   0.128   5.903 -1.3880  1.2244 -0.4449
   7123SM   H8T 9268   4.739   0.165   5.977  0.1354 -1.5053 -2.3725
   7123SM   C9S 9269   4.635   0.338   5.904 -0.5446 -0.2609 -0.5405
   7123SM   H9S 9270   4.693   0.414   5.960  0.1990 -1.6826  0.6964
   7123SM   H9T 9271   4.529   0.372   5.908 -0.3860  0.1070  0.9135
   7123SM  C10S 9272   4.688   0.329   5.759  0.0180 -0.7964  0.7105
   7123SM  H10S 9273   4.680   0.425   5.704 -1.0235 -1.0153  0.4445
   7123SM  H10T 9274   4.599   0.283   5.711 -0.6766  1.6369 -0.5190
   7123SM  C11S 9275   4.835   0.288   5.739  0.2774 -0.1012 -0.0905
   7123SM  H11S 9276   4.874   0.200   5.794  1.3638  0.7008  0.4487
   7123SM  H11T 9277   4.904   0.374   5.758  0.6949 -0.4492 -0.0199
   7123SM  C12S 9278   4.864   0.260   5.582 -0.1329  0.3385 -0.0501
   7123SM  H12S 9279   4.973   0.268   5.564  0.2059 -0.2829  1.4980
   7123SM  H12T 9280   4.822   0.342   5.521  1.4437  0.3072 -1.2240
   7123SM  C13S 9281   4.822   0.119   5.521  0.5524 -1.0102 -0.4757
   7123SM  H13S 9282   4.801   0.038   5.594 -2.2734 -0.0007 -0.0543
   7123SM  H13T 9283   4.907   0.085   5.457  1.7178  0.3830  0.2604
   7123SM  C14S 9284   4.696   0.110   5.433  0.0956  0.0616  0.0834
   7123SM  H14S 9285   4.707   0.175   5.344  0.3367  2.3878  1.7048
   7123SM  H14T 9286   4.609   0.148   5.491 -1.8210 -2.6791 -0.8025
   7123SM  C15S 9287   4.656  -0.036   5.409 -0.0321 -0.0789  0.0308
   7123SM  H15S 9288   4.674  -0.096   5.501  0.8174 -0.1070 -0.1496
   7123SM  H15T 9289   4.728  -0.081   5.338  1.3157  1.1965  0.5484
   7123SM  C16S 9290   4.511  -0.064   5.368  0.0825 -0.1749  0.1926
   7123SM  H16S 9291   4.492  -0.020   5.268  0.2626  1.0209  0.6697
   7123SM  H16T 9292   4.435  -0.016   5.433  0.2714  0.8512 -0.3206
   7123SM  C17S 9293   4.491  -0.219   5.377 -0.4700  0.1161  0.3319
   7123SM  H17S 9294   4.529  -0.249   5.477 -1.2742 -0.4289  0.4846
   7123SM  H17T 9295   4.549  -0.268   5.295 -0.3126  0.3810  0.2835
   7123SM  C18S 9296   4.349  -0.258   5.369 -0.1218 -0.2813 -0.1607
   7123SM  H18S 9297   4.284  -0.186   5.314 -1.8852 -1.0100  0.8647
   7123SM  H18T 9298   4.319  -0.246   5.476 -2.2581  0.0189 -0.7474
   7123SM  H18U 9299   4.319  -0.362   5.342 -0.3483  0.2568 -2.0671
   7123SM   C1F 9300   4.555   0.619   6.648  0.2475 -0.0134 -0.1538
   7123SM    OF 9301   4.662   0.624   6.705  0.6027 -0.2979  0.2854
   7123SM   C2F 9302   4.469   0.726   6.629  0.2590  0.0152 -0.0957
   7123SM   H2F 9303   4.459   0.789   6.720 -1.6794  1.3442 -1.1584
   7123SM   H2G 9304   4.366   0.693   6.605 -0.0511 -1.1682  2.4958
   7123SM   C3F 9305   4.528   0.813   6.508 -0.3926 -0.2748  0.2566
   7123SM   H3F 9306   4.632   0.847   6.527 -0.4926  1.2201 -1.6054
   7123SM   H3G 9307   4.465   0.904   6.497  0.6982  0.7784  2.1515
   7123SM   C4F 9308   4.529   0.738   6.377 -0.0291  0.4120  0.0987
   7123SM   H4F 9309   4.423   0.713   6.353  0.4814 -1.1387 -0.6689
   7123SM   H4G 9310   4.585   0.643   6.368  0.7007  0.8964 -0.6793
   7123SM   C5F 9311   4.576   0.829   6.260 -0.4001  0.3848 -0.2065
   7123SM   H5F 9312   4.682   0.844   6.290  0.1301 -1.7085 -0.8491
   7123SM   H5G 9313   4.524   0.925   6.242  0.3421  0.6334 -1.0840
   7123SM   C6F 9314   4.570   0.750   6.128  0.1126  0.4476 -0.4453
   7123SM   H6F 9315   4.464   0.720   6.112  0.5150 -0.7793 -0.9946
   7123SM   H6G 9316   4.633   0.661   6.152 -1.0549 -0.0953  0.6810
   7123SM   C7F 9317   4.601   0.831   6.006 -0.4309  0.5854 -0.6370
   7123SM   H7F 9318   4.705   0.868   6.020 -0.0391 -1.3011  2.1920
   7123SM   H7G 9319   4.544   0.926   5.998 -1.9560 -0.1265  1.2210
   7123SM   C8F 9320   4.583   0.750   5.884  0.1299 -0.2913  0.4129
   7123SM   H8F 9321   4.473   0.745   5.867 -0.0094 -1.8761  1.5212
   7123SM   H8G 9322   4.623   0.646   5.883 -0.2065 -0.4193 -1.0351
   7123SM   C9F 9323   4.647   0.833   5.764  0.2054  0.0762 -0.2629
   7123SM   H9F 9324   4.628   0.772   5.673 -0.6325 -0.6350  0.3724
   7123SM   H9G 9325   4.758   0.834   5.775  0.2653  0.6688 -0.7993
   7123SM  C10F 9326   4.603   0.976   5.751  0.0144 -0.2805  0.4201
   7123SM  H10F 9327   4.633   1.048   5.831 -1.9350  1.4361 -0.2823
   7123SM  H10G 9328   4.492   0.963   5.748  0.1206 -1.1609 -0.1375
   7123SM  C11F 9329   4.648   1.039   5.617  0.0946  0.0369  0.1219
   7123SM  H11F 9330   4.757   1.024   5.601  0.1549  1.2238 -0.6808
   7123SM  H11G 9331   4.632   1.149   5.622  2.0842  0.3510  3.8110
   7123SM  C12F 9332   4.585   0.981   5.489  0.4469 -0.3455  0.1601
   7123SM  H12F 9333   4.476   1.002   5.497  0.4292 -0.7757  1.3741
   7123SM  H12G 9334   4.604   0.873   5.473 -0.8726 -0.4005 -1.2283
   7123SM  C13F 9335   4.653   1.042   5.363  0.4859 -0.3055 -1.1008
   7123SM  H13F 9336   4.760   1.012   5.363  0.3372 -0.9917  1.0293
   7123SM  H13G 9337   4.643   1.153   5.361 -1.9839 -0.4326  0.2653
   7123SM  C14F 9338   4.590   0.988   5.237 -0.3813 -0.3133  0.0886
   7123SM  H14F 9339   4.480   0.999   5.236 -0.4554 -0.9384  0.5595
   7123SM  H14G 9340   4.615   0.881   5.221  0.5276  0.2099 -2.4579
   7123SM  C15F 9341   4.644   1.048   5.111 -0.0183 -0.6560  1.0148
   7123SM  H15F 9342   4.754   1.035   5.103 -0.1876 -1.1602 -1.2241
   7123SM  H15G 9343   4.624   1.158   5.113  0.8339 -0.4943  1.0553
   7123SM  C16F 9344   4.573   0.987   4.986 -0.0541 -0.0220 -0.1490
   7123SM  H16F 9345   4.465   1.014   4.986  0.2973  1.4716  1.1640
   7123SM  H16G 9346   4.578   0.876   4.997 -2.6591 -0.2667 -0.6449
   7123SM  C17F 9347   4.644   1.032   4.862 -0.0485 -0.3936 -0.0647
   7123SM  H17F 9348   4.755   1.028   4.857  0.0091  0.7189  0.1129
   7123SM  H17G 9349   4.606   1.133   4.835 -0.1322 -0.3687  0.1445
   7123SM  C18F 9350   4.596   0.957   4.736 -0.2102 -0.0985 -0.2770
   7123SM  H18F 9351   4.487   0.972   4.745 -0.0178  1.3756 -0.2245
   7123SM  H18G 9352   4.635   0.854   4.756 -1.8573 -0.4140  1.5910
   7123SM  C19F 9353   4.657   1.003   4.594 -0.5522  0.0578 -0.3245
   7123SM  H19F 9354   4.767   0.993   4.600 -0.0426  3.3936 -1.8247
   7123SM  H19G 9355   4.634   1.111   4.582 -1.4404  0.1112  1.5296
   7123SM  C20F 9356   4.591   0.936   4.480 -0.1793  0.6492  0.8336
   7123SM  H20F 9357   4.480   0.940   4.489 -0.2314  0.9521  0.1720
   7123SM  H20G 9358   4.620   0.830   4.489 -0.7539  0.5026  0.9874
   7123SM  C21F 9359   4.637   0.981   4.340  0.5755  0.5776  0.2414
   7123SM  H21F 9360   4.625   0.916   4.251  1.9506  1.5853 -0.7371
   7123SM  H21G 9361   4.746   1.005   4.337  0.1585  2.5186 -0.6913
   7123SM  C22F 9362   4.580   1.117   4.293 -0.7395 -0.0738 -0.2910
   7123SM  H22F 9363   4.644   1.149   4.207  0.6441 -0.7215  0.4614
   7123SM  H22G 9364   4.575   1.194   4.373 -0.1735 -1.9794  1.6778
   7123SM  C23F 9365   4.442   1.103   4.228 -0.2736 -0.3751  0.1545
   7123SM  H23F 9366   4.437   1.031   4.144  2.0551 -1.2678  0.7104
   7123SM  H23G 9367   4.435   1.203   4.180 -0.7219 -0.9636 -1.0380
   7123SM  H23H 9368   4.357   1.090   4.299 -0.5421 -1.0766 -0.2873
   7223SM     N 9369   6.729   3.539   7.490  0.3909 -0.4173 -0.4952
   7223SM   C15 9370   6.815   3.645   7.556 -0.5569 -0.5500  0.4152
   7223SM  H15A 9371   6.873   3.702   7.484 -1.4003  0.3715  0.4442
   7223SM  H15B 9372   6.872   3.593   7.631  0.3637  0.7298  0.6358
   7223SM  H15C 9373   6.758   3.713   7.616  0.5194  1.0735 -0.3228
   7223SM   C14 9374   6.650   3.461   7.596 -0.6117 -0.3354 -0.2397
   7223SM  H14A 9375   6.577   3.523   7.646 -1.5865 -0.8918 -0.9445
   7223SM  H14B 9376   6.713   3.419   7.673 -1.9459 -0.0582  1.0450
   7223SM  H14C 9377   6.604   3.376   7.547 -0.1568  0.4535 -2.1138
   7223SM   C13 9378   6.617   3.614   7.410 -0.3828 -0.3031 -0.5653
   7223SM  H13A 9379   6.652   3.708   7.370 -1.0131  0.4871  0.6848
   7223SM  H13B 9380   6.534   3.648   7.470  0.9412  0.5602  0.8607
   7223SM  H13C 9381   6.580   3.557   7.326  1.8173 -0.3130 -1.6134
   7223SM   C12 9382   6.812   3.465   7.392 -0.1106  0.5833 -0.0607
   7223SM  H12A 9383   6.894   3.412   7.440  1.2341  3.3552  0.9112
   7223SM  H12B 9384   6.861   3.534   7.325  0.5064 -0.1567 -0.3864
   7223SM   C11 9385   6.739   3.346   7.307 -0.5844  0.4447 -0.0994
   7223SM  H11A 9386   6.811   3.319   7.228  0.9001  0.6136  1.1523
   7223SM  H11B 9387   6.655   3.400   7.258 -0.1525  0.1552 -1.1761
   7223SM     P 9388   6.784   3.126   7.437  0.4464  0.0210 -0.1666
   7223SM   O13 9389   6.881   3.194   7.522  0.4215 -0.0598 -0.0830
   7223SM   O14 9390   6.694   3.020   7.495 -0.9169 -0.1043 -0.3945
   7223SM   O11 9391   6.847   3.076   7.303  0.3379  0.3136 -0.1958
   7223SM   O12 9392   6.686   3.242   7.392 -0.9002  0.3666  0.0939
   7223SM   C1S 9393   6.749   3.003   7.215  0.3764  0.5669 -0.4672
   7223SM   H1S 9394   6.644   3.001   7.251  0.5562 -1.6878  0.0650
   7223SM   H1T 9395   6.782   2.898   7.204 -0.8245  0.4290 -4.1018
   7223SM    NF 9396   6.657   2.989   6.989  0.1400  0.0721  0.1087
   7223SM   HNF 9397   6.693   2.929   6.918 -1.5958  0.0001 -0.7799
   7223SM   C2S 9398   6.757   3.058   7.069  0.1748 -0.1652  0.1403
   7223SM   H2S 9399   6.736   3.167   7.065  0.0286 -0.1922  0.1630
   7223SM   C3S 9400   6.902   3.037   7.013 -0.4057 -0.0209 -0.2570
   7223SM   H3S 9401   6.931   2.930   7.002  2.0214  0.4721  0.7217
   7223SM    O3 9402   7.005   3.083   7.106 -0.6760  0.2656 -0.1314
   7223SM   HO3 9403   6.955   3.070   7.187 -0.2405 -2.1266 -0.1888
   7223SM   C4S 9404   6.915   3.102   6.883 -0.2005 -0.1422  0.0634
   7223SM   H4S 9405   6.917   3.022   6.807 -3.0568  1.0071 -1.4007
   7223SM   C5S 9406   6.944   3.235   6.855 -0.3894 -0.0371  0.6424
   7223SM   H5S 9407   6.943   3.301   6.943  0.8882 -1.7534  2.0201
   7223SM   C6S 9408   6.960   3.287   6.716 -0.6602  0.3332  0.5732
   7223SM   H6S 9409   7.045   3.355   6.698 -1.3424  0.8639 -0.8714
   7223SM   H6T 9410   6.882   3.365   6.707  0.2774  1.1376 -1.0876
   7223SM   C7S 9411   6.940   3.191   6.591 -0.2558 -0.0590 -0.1769
   7223SM   H7S 9412   6.845   3.133   6.601 -1.0285  1.5098  2.8556
   7223SM   H7T 9413   7.024   3.118   6.592 -1.9003 -2.0334  0.0980
   7223SM   C8S 9414   6.930   3.275   6.452 -0.2475  0.4445 -0.0910
   7223SM   H8S 9415   7.031   3.319   6.433  0.1834 -0.6210 -0.3562
   7223SM   H8T 9416   6.853   3.355   6.453  1.0916  1.9146 -2.9266
   7223SM   C9S 9417   6.903   3.183   6.326  0.0945 -0.7224  1.3140
   7223SM   H9S 9418   6.814   3.121   6.346  1.4798 -2.6816  1.7187
   7223SM   H9T 9419   6.994   3.120   6.319  0.5837  0.0978 -0.1626
   7223SM  C10S 9420   6.904   3.262   6.197 -0.2081 -0.2069  0.7014
   7223SM  H10S 9421   7.000   3.316   6.184  0.3274 -1.4609 -0.7720
   7223SM  H10T 9422   6.816   3.329   6.197  0.6361  0.9363  0.3955
   7223SM  C11S 9423   6.897   3.168   6.074  0.4794  0.0396  0.7167
   7223SM  H11S 9424   6.798   3.119   6.061  1.7005 -2.0079 -1.8293
   7223SM  H11T 9425   6.967   3.089   6.109  0.1159  0.0178  1.4195
   7223SM  C12S 9426   6.929   3.237   5.943 -0.0073 -0.0965 -0.1323
   7223SM  H12S 9427   7.024   3.290   5.965 -0.2201  0.8476 -1.4056
   7223SM  H12T 9428   6.856   3.314   5.911  0.0887  0.0783  0.0641
   7223SM  C13S 9429   6.964   3.137   5.823  0.6819 -0.5123 -0.7672
   7223SM  H13S 9430   6.876   3.123   5.756  0.5147  1.5880 -1.0551
   7223SM  H13T 9431   6.997   3.040   5.866 -0.8705 -0.2620  1.1468
   7223SM  C14S 9432   7.084   3.191   5.746 -0.2990 -0.6368 -0.0063
   7223SM  H14S 9433   7.131   3.118   5.677 -0.7751 -0.4199 -0.5777
   7223SM  H14T 9434   7.164   3.228   5.813  1.4713 -1.1859 -1.7235
   7223SM  C15S 9435   7.037   3.304   5.655  0.0450 -0.2013  0.6976
   7223SM  H15S 9436   6.983   3.381   5.714 -0.9250 -0.8233  0.6557
   7223SM  H15T 9437   6.964   3.264   5.580  1.3319 -0.3013 -0.5521
   7223SM  C16S 9438   7.151   3.379   5.580  0.3693  0.2506  0.1409
   7223SM  H16S 9439   7.189   3.310   5.502 -1.1491 -0.1783 -0.2549
   7223SM  H16T 9440   7.233   3.399   5.653  1.7688 -2.1715 -0.6574
   7223SM  C17S 9441   7.102   3.508   5.516  0.4151  0.3779 -0.8252
   7223SM  H17S 9442   7.055   3.579   5.586  0.7992  2.1816 -2.3129
   7223SM  H17T 9443   7.022   3.487   5.442 -0.4489 -1.1743  0.4776
   7223SM  C18S 9444   7.220   3.585   5.445  0.6333  0.1844 -0.9572
   7223SM  H18S 9445   7.291   3.587   5.530 -1.0574 -2.0597  0.6300
   7223SM  H18T 9446   7.187   3.686   5.412  0.3377 -0.0308 -1.3399
   7223SM  H18U 9447   7.241   3.521   5.356 -3.4141 -0.8247 -1.3959
   7223SM   C1F 9448   6.527   3.022   6.986 -0.0152  0.4337  0.3864
   7223SM    OF 9449   6.489   3.116   7.062 -0.1933  0.1316  0.3711
   7223SM   C2F 9450   6.436   2.938   6.898  0.1675  0.0582  0.0692
   7223SM   H2F 9451   6.428   2.832   6.930  0.0059 -0.0422 -0.2928
   7223SM   H2G 9452   6.462   2.952   6.790  0.4800 -0.9355  0.0095
   7223SM   C3F 9453   6.299   3.000   6.905 -0.6073  0.4488 -0.0171
   7223SM   H3F 9454   6.284   3.095   6.850 -0.1447  1.1077  0.9557
   7223SM   H3G 9455   6.264   3.007   7.011  0.0902  1.4809  0.1618
   7223SM   C4F 9456   6.192   2.916   6.834  0.5470 -0.0319 -0.5702
   7223SM   H4F 9457   6.100   2.971   6.862  1.0374  0.4794  0.0916
   7223SM   H4G 9458   6.182   2.811   6.869  0.4450  0.2815  0.3727
   7223SM   C5F 9459   6.186   2.923   6.684 -0.1994  0.9857  0.3336
   7223SM   H5F 9460   6.260   2.851   6.643 -1.1132 -0.3656  0.9831
   7223SM   H5G 9461   6.225   3.026   6.667 -1.6132  1.7028  1.2543
   7223SM   C6F 9462   6.047   2.916   6.622  0.0598  0.2016  0.9950
   7223SM   H6F 9463   5.973   2.986   6.665 -0.5874  0.3540 -0.3381
   7223SM   H6G 9464   6.010   2.813   6.638 -0.4424  0.0543 -0.8963
   7223SM   C7F 9465   6.058   2.937   6.469 -0.3298  0.2339 -0.5149
   7223SM   H7F 9466   6.122   2.856   6.426  1.8675  1.2618  0.6621
   7223SM   H7G 9467   6.107   3.032   6.440  1.3399 -0.8411 -1.3694
   7223SM   C8F 9468   5.922   2.945   6.394  0.0220  0.3502  0.7660
   7223SM   H8F 9469   5.872   3.027   6.450  0.5096  0.1337  1.5334
   7223SM   H8G 9470   5.874   2.846   6.385 -0.3646  0.5254  0.8916
   7223SM   C9F 9471   5.926   2.993   6.241  0.1065 -0.0236 -0.0690
   7223SM   H9F 9472   5.962   3.098   6.247 -0.6363  0.1913  0.8690
   7223SM   H9G 9473   5.819   2.997   6.211 -1.1534  2.2078  3.9246
   7223SM  C10F 9474   6.039   2.929   6.154  1.0955 -0.2292  0.7476
   7223SM  H10F 9475   6.136   2.937   6.207  1.8114 -1.1085 -0.3941
   7223SM  H10G 9476   6.050   2.993   6.064 -2.0008  1.1048  1.1768
   7223SM  C11F 9477   6.012   2.786   6.110 -0.5945  0.0235  0.4884
   7223SM  H11F 9478   6.035   2.712   6.190  0.2548 -1.3553 -0.9574
   7223SM  H11G 9479   6.091   2.757   6.038 -1.2963 -0.8787  0.0604
   7223SM  C12F 9480   5.888   2.751   6.033  0.1011 -0.6740 -0.0052
   7223SM  H12F 9481   5.803   2.759   6.104  0.8202  1.4556  0.6952
   7223SM  H12G 9482   5.890   2.653   5.980  0.9763 -0.6610 -0.0118
   7223SM  C13F 9483   5.858   2.859   5.925 -0.4199 -0.6756 -0.1754
   7223SM  H13F 9484   5.943   2.869   5.854 -1.6409 -1.3468 -1.7763
   7223SM  H13G 9485   5.838   2.962   5.964 -1.1549 -0.7893 -0.2381
   7223SM  C14F 9486   5.736   2.833   5.839 -0.4317  0.7199  0.0540
   7223SM  H14F 9487   5.710   2.923   5.780 -1.5921  1.4367  1.5891
   7223SM  H14G 9488   5.640   2.801   5.885 -0.2143 -0.4178 -0.2765
   7223SM  C15F 9489   5.770   2.722   5.728  0.1702 -0.2886  0.2079
   7223SM  H15F 9490   5.814   2.627   5.764  1.4255  0.5378  0.9081
   7223SM  H15G 9491   5.848   2.767   5.663  0.0426 -1.0462 -0.4833
   7223SM  C16F 9492   5.652   2.686   5.628 -0.0471 -0.3954 -0.8677
   7223SM  H16F 9493   5.598   2.781   5.609  3.1231  2.1709  1.8520
   7223SM  H16G 9494   5.595   2.612   5.689  0.2481 -0.3816 -0.5728
   7223SM  C17F 9495   5.695   2.617   5.500  0.3271 -0.5080  0.3401
   7223SM  H17F 9496   5.783   2.553   5.524 -0.5258 -1.5769  0.6531
   7223SM  H17G 9497   5.718   2.694   5.422 -1.5812 -1.3371 -1.1353
   7223SM  C18F 9498   5.592   2.518   5.447 -0.0792  0.3943 -0.0878
   7223SM  H18F 9499   5.493   2.565   5.435  0.6333  2.0304  0.1439
   7223SM  H18G 9500   5.590   2.433   5.519  1.0978  0.3016 -0.1401
   7223SM  C19F 9501   5.639   2.470   5.306  0.2123  0.3336  0.6300
   7223SM  H19F 9502   5.744   2.433   5.302  0.9832  2.4467 -0.3128
   7223SM  H19G 9503   5.643   2.557   5.237  1.6200 -0.8817 -0.9113
   7223SM  C20F 9504   5.555   2.354   5.256  1.0115 -0.1871  0.6418
   7223SM  H20F 9505   5.455   2.392   5.226  0.4722 -1.1661  1.1499
   7223SM  H20G 9506   5.534   2.275   5.331 -0.6521 -0.3608  0.0263
   7223SM  C21F 9507   5.623   2.287   5.137  0.6856 -0.1618 -0.6352
   7223SM  H21F 9508   5.556   2.203   5.106  0.9834 -0.4892 -0.3999
   7223SM  H21G 9509   5.709   2.233   5.182  1.1853  1.5711  0.5863
   7223SM  C22F 9510   5.642   2.373   5.011  0.0449 -0.5850 -0.1630
   7223SM  H22F 9511   5.719   2.452   5.025  0.4934 -1.0472 -0.0230
   7223SM  H22G 9512   5.549   2.427   4.982 -0.3255 -1.3805 -0.4769
   7223SM  C23F 9513   5.676   2.294   4.886  0.4376  0.2770 -0.1060
   7223SM  H23F 9514   5.770   2.236   4.893 -0.3188 -0.8609  1.0737
   7223SM  H23G 9515   5.679   2.357   4.794 -0.1703  1.5402  0.7110
   7223SM  H23H 9516   5.604   2.213   4.863  0.0276  0.4205  0.6286
   7323SM     N 9517   5.062   0.881   7.128 -0.3534  0.0292 -0.1684
   7323SM   C15 9518   5.195   0.895   7.187 -0.4953 -0.0614  0.1368
   7323SM  H15A 9519   5.250   0.981   7.152  2.6386 -1.8180  0.3816
   7323SM  H15B 9520   5.267   0.819   7.160  0.5631  1.3715 -1.2882
   7323SM  H15C 9521   5.190   0.905   7.295 -2.5528 -0.6034  0.1280
   7323SM   C14 9522   5.094   0.853   6.981 -0.2260 -0.7216 -0.4331
   7323SM  H14A 9523   5.155   0.765   6.967 -0.0684 -0.7721  0.5057
   7323SM  H14B 9524   5.124   0.946   6.934 -2.1686  1.3862  2.1578
   7323SM  H14C 9525   5.004   0.836   6.924 -0.5433 -0.4560 -0.0180
   7323SM   C13 9526   4.997   0.764   7.196 -0.0699 -0.5613 -0.4521
   7323SM  H13A 9527   5.063   0.679   7.202  1.0008  0.3558  1.6819
   7323SM  H13B 9528   4.908   0.725   7.148 -0.0506 -0.4024 -0.6181
   7323SM  H13C 9529   4.973   0.784   7.299  1.1344  0.1605 -0.2888
   7323SM   C12 9530   4.982   1.012   7.137  0.5425  0.1901  0.2126
   7323SM  H12A 9531   4.951   1.022   7.241  0.5587 -2.1593  0.4968
   7323SM  H12B 9532   4.887   0.997   7.088  2.1304 -2.1313 -2.4341
   7323SM   C11 9533   5.050   1.143   7.102 -0.0197 -0.0348  0.4055
   7323SM  H11A 9534   4.964   1.213   7.090 -0.4092 -0.8194 -2.1070
   7323SM  H11B 9535   5.103   1.132   7.005  2.0474  0.8262  1.3915
   7323SM     P 9536   5.198   1.332   7.215  0.1452  0.0486  0.3003
   7323SM   O13 9537   5.105   1.407   7.301  0.0041 -0.6674 -0.4014
   7323SM   O14 9538   5.342   1.331   7.255  0.8685  0.8247 -0.2606
   7323SM   O11 9539   5.183   1.406   7.075  0.0115  0.6030 -0.6205
   7323SM   O12 9540   5.139   1.181   7.206  0.0202  0.3181 -0.4387
   7323SM   C1S 9541   5.264   1.380   6.960  0.1149 -0.3149  0.2040
   7323SM   H1S 9542   5.323   1.287   6.951  2.6171  1.0869  1.0439
   7323SM   H1T 9543   5.339   1.462   6.954  0.6461 -0.6175  2.0432
   7323SM    NF 9544   5.270   1.351   6.718  0.5154  0.1746  0.0488
   7323SM   HNF 9545   5.309   1.430   6.671  1.0245 -0.5084 -0.7156
   7323SM   C2S 9546   5.182   1.372   6.829 -0.0139 -0.3982 -0.1957
   7323SM   H2S 9547   5.112   1.286   6.837  0.2413 -0.4430  2.1387
   7323SM   C3S 9548   5.091   1.500   6.821  0.0804 -0.1949 -0.2082
   7323SM   H3S 9549   5.158   1.589   6.827 -0.8188  0.4109  2.6880
   7323SM    O3 9550   4.990   1.512   6.927  0.5124 -0.1089 -0.3650
   7323SM   HO3 9551   5.024   1.463   7.002 -1.0431  1.3002  1.3446
   7323SM   C4S 9552   5.016   1.502   6.696 -0.0521  0.5286  0.3376
   7323SM   H4S 9553   4.951   1.414   6.685  1.2654 -0.7586  2.3349
   7323SM   C5S 9554   5.010   1.604   6.609 -0.9129 -0.3844 -0.6650
   7323SM   H5S 9555   5.052   1.702   6.632 -1.9364  0.2537 -1.4017
   7323SM   C6S 9556   4.928   1.588   6.484  0.4275  0.5328 -0.1369
   7323SM   H6S 9557   4.863   1.677   6.471  1.4223  1.6292  1.9632
   7323SM   H6T 9558   4.856   1.504   6.496  1.8767 -0.8437 -0.6741
   7323SM   C7S 9559   5.014   1.572   6.359 -0.5953 -0.3637 -0.2659
   7323SM   H7S 9560   5.051   1.467   6.367  1.6097  0.4606  1.3339
   7323SM   H7T 9561   5.105   1.636   6.360 -0.5352 -0.4490  1.2002
   7323SM   C8S 9562   4.925   1.592   6.236  0.0480  0.2836 -0.1659
   7323SM   H8S 9563   4.870   1.688   6.248 -0.5439 -0.1164  0.4011
   7323SM   H8T 9564   4.847   1.513   6.229 -0.0242  0.2781  0.6076
   7323SM   C9S 9565   4.996   1.602   6.101 -0.1591  0.2616 -0.5184
   7323SM   H9S 9566   5.067   1.520   6.074 -0.0882  0.8792 -2.3934
   7323SM   H9T 9567   5.064   1.687   6.124  1.0827 -0.3037 -1.9411
   7323SM  C10S 9568   4.904   1.622   5.981 -1.0258  0.2215  0.3695
   7323SM  H10S 9569   4.837   1.708   6.004 -2.7420 -0.6441 -1.1375
   7323SM  H10T 9570   4.852   1.531   5.943  1.0492 -0.2882 -1.5318
   7323SM  C11S 9571   4.985   1.659   5.862  0.2824 -0.4732 -0.2237
   7323SM  H11S 9572   5.027   1.563   5.824 -0.1619 -1.2557  1.2000
   7323SM  H11T 9573   5.063   1.736   5.875  0.2288 -0.0451 -2.1935
   7323SM  C12S 9574   4.899   1.719   5.745 -0.2161 -0.0074 -0.2021
   7323SM  H12S 9575   4.869   1.818   5.786  0.1672 -0.0652  0.2287
   7323SM  H12T 9576   4.815   1.650   5.725 -0.7860  1.0597 -1.6245
   7323SM  C13S 9577   4.981   1.746   5.615 -0.1949  0.0126  0.4701
   7323SM  H13S 9578   5.021   1.649   5.578  0.0713 -0.4923  1.9984
   7323SM  H13T 9579   5.076   1.795   5.646  1.4640 -2.1163 -0.9424
   7323SM  C14S 9580   4.906   1.822   5.509 -0.0046 -0.1886  0.4997
   7323SM  H14S 9581   4.852   1.909   5.553 -1.1619  0.4488 -1.9397
   7323SM  H14T 9582   4.827   1.747   5.485  0.0014  0.1663 -0.7303
   7323SM  C15S 9583   4.983   1.857   5.378 -0.1058  0.1496  0.2564
   7323SM  H15S 9584   5.023   1.769   5.325 -1.5482  0.4446 -1.4148
   7323SM  H15T 9585   5.071   1.910   5.419 -0.6397  1.4848 -0.2433
   7323SM  C16S 9586   4.902   1.954   5.287 -0.2413  0.4526  1.1903
   7323SM  H16S 9587   4.973   2.020   5.232 -1.4228 -0.1761 -1.1820
   7323SM  H16T 9588   4.855   2.032   5.350 -2.0617  1.5622 -1.3825
   7323SM  C17S 9589   4.810   1.891   5.190  0.1624 -0.0547  0.3807
   7323SM  H17S 9590   4.714   1.865   5.241 -0.4319 -0.6497 -0.9814
   7323SM  H17T 9591   4.861   1.800   5.152  1.7941  1.4666 -1.2445
   7323SM  C18S 9592   4.779   1.987   5.068 -0.8990  0.9067 -0.4702
   7323SM  H18S 9593   4.726   2.075   5.109 -1.0249  0.9080 -0.6357
   7323SM  H18T 9594   4.718   1.938   4.989 -1.1925 -1.0019  0.8749
   7323SM  H18U 9595   4.873   2.019   5.017  0.3539 -3.5408 -1.4278
   7323SM   C1F 9596   5.320   1.231   6.685 -0.5332 -0.0298  0.7058
   7323SM    OF 9597   5.300   1.125   6.743 -0.1012 -0.1702  0.4423
   7323SM   C2F 9598   5.422   1.240   6.576  0.5043 -0.1384 -0.6057
   7323SM   H2F 9599   5.416   1.140   6.527  2.4882 -0.3624 -0.4437
   7323SM   H2G 9600   5.517   1.256   6.630 -1.9943  2.4026  3.5176
   7323SM   C3F 9601   5.392   1.349   6.462  0.4633 -0.0723  0.2260
   7323SM   H3F 9602   5.429   1.444   6.505  0.3888  1.1509 -2.2350
   7323SM   H3G 9603   5.283   1.360   6.446  0.7689  0.4210 -1.7638
   7323SM   C4F 9604   5.448   1.334   6.326  0.1162 -0.5694  0.3427
   7323SM   H4F 9605   5.424   1.231   6.292  2.8062 -0.7714 -1.2636
   7323SM   H4G 9606   5.559   1.343   6.335 -0.0767 -0.2771  4.2138
   7323SM   C5F 9607   5.382   1.423   6.218  0.0254 -0.7588  0.0195
   7323SM   H5F 9608   5.397   1.527   6.255 -0.4642 -0.7495  0.1995
   7323SM   H5G 9609   5.272   1.414   6.222 -0.1041  0.9493  1.4967
   7323SM   C6F 9610   5.446   1.414   6.087  0.6062  0.6477  0.3756
   7323SM   H6F 9611   5.546   1.459   6.072  1.4707 -1.3525 -0.2153
   7323SM   H6G 9612   5.370   1.450   6.014 -2.4114 -1.6512  2.1498
   7323SM   C7F 9613   5.471   1.268   6.030 -0.4094  0.2680  0.2837
   7323SM   H7F 9614   5.375   1.213   6.041 -0.1142 -0.2919  0.0414
   7323SM   H7G 9615   5.537   1.210   6.098 -0.8111 -0.9393 -0.3305
   7323SM   C8F 9616   5.517   1.264   5.893 -1.0260 -0.8957  0.2100
   7323SM   H8F 9617   5.616   1.314   5.899 -1.8444  0.8854 -0.3070
   7323SM   H8G 9618   5.448   1.315   5.822 -0.5301 -1.4101 -0.6484
   7323SM   C9F 9619   5.539   1.125   5.843  0.3652 -0.0577 -0.4266
   7323SM   H9F 9620   5.443   1.069   5.851  0.7055 -0.7354 -1.0027
   7323SM   H9G 9621   5.617   1.070   5.899 -0.2966  1.5182  2.2261
   7323SM  C10F 9622   5.584   1.114   5.690  0.3817 -0.0787 -0.4403
   7323SM  H10F 9623   5.688   1.152   5.680  0.7218 -0.5625  1.1248
   7323SM  H10G 9624   5.508   1.182   5.644 -0.4923 -0.5736  0.2512
   7323SM  C11F 9625   5.571   0.969   5.630  0.0876 -0.1426  0.1790
   7323SM  H11F 9626   5.486   0.922   5.683  0.0696 -1.3164 -0.8573
   7323SM  H11G 9627   5.665   0.914   5.647 -1.1028 -1.5342  2.6494
   7323SM  C12F 9628   5.521   0.973   5.489  0.0818 -1.1040 -0.7108
   7323SM  H12F 9629   5.579   1.041   5.423 -0.1098 -0.9496 -0.7181
   7323SM  H12G 9630   5.419   1.016   5.492  0.4490 -0.2572  0.3552
   7323SM  C13F 9631   5.510   0.833   5.429 -0.0088  0.0502 -0.4054
   7323SM  H13F 9632   5.432   0.773   5.481 -0.1868  0.6348  0.0108
   7323SM  H13G 9633   5.609   0.786   5.448  0.2725  0.4464 -0.8716
   7323SM  C14F 9634   5.477   0.827   5.282  0.0874  0.0067  0.0638
   7323SM  H14F 9635   5.542   0.895   5.223 -1.8568  2.1835  0.3196
   7323SM  H14G 9636   5.374   0.862   5.262  0.2479 -0.1745 -1.1555
   7323SM  C15F 9637   5.482   0.683   5.226  0.1025  0.5216  0.3712
   7323SM  H15F 9638   5.432   0.608   5.292 -1.0016  0.9891  0.0869
   7323SM  H15G 9639   5.590   0.657   5.229  0.0427  0.2385  2.9001
   7323SM  C16F 9640   5.428   0.674   5.081 -0.0970  0.2809  0.1477
   7323SM  H16F 9641   5.476   0.759   5.027 -0.5190  0.4346  0.0107
   7323SM  H16G 9642   5.321   0.703   5.085  0.0640  0.7685  3.4475
   7323SM  C17F 9643   5.434   0.537   5.014 -0.3856  0.1351  0.1420
   7323SM  H17F 9644   5.364   0.477   5.076 -0.0269 -1.4174 -0.9035
   7323SM  H17G 9645   5.533   0.490   5.029  0.2897  1.6845  0.7030
   7323SM  C18F 9646   5.391   0.541   4.866  0.5404 -0.3003 -0.2412
   7323SM  H18F 9647   5.478   0.582   4.811  0.9299  2.3691  2.1157
   7323SM  H18G 9648   5.308   0.613   4.850  0.1608 -0.6648  0.0820
   7323SM  C19F 9649   5.328   0.412   4.809  0.5200  0.1654  0.1153
   7323SM  H19F 9650   5.312   0.422   4.699  2.0179 -0.7271 -0.2098
   7323SM  H19G 9651   5.223   0.405   4.846  0.2380 -1.0478 -0.8396
   7323SM  C20F 9652   5.397   0.272   4.837  0.5773  0.0929  0.2474
   7323SM  H20F 9653   5.425   0.271   4.944  1.3464  0.9018  0.0673
   7323SM  H20G 9654   5.488   0.275   4.772  0.7393  1.0056  0.5060
   7323SM  C21F 9655   5.308   0.150   4.812  0.3531  0.4059  0.0811
   7323SM  H21F 9656   5.267   0.152   4.709 -0.3038 -4.1160  0.0710
   7323SM  H21G 9657   5.231   0.153   4.893 -0.2278  0.5309 -0.4700
   7323SM  C22F 9658   5.392   0.026   4.829  0.5913 -0.3891 -0.3381
   7323SM  H22F 9659   5.319  -0.054   4.854 -0.4999  0.5459 -0.4865
   7323SM  H22G 9660   5.450   0.032   4.924 -0.6207 -1.3867  0.4981
   7323SM  C23F 9661   5.489  -0.004   4.721 -0.0685 -0.4835 -0.1448
   7323SM  H23F 9662   5.561  -0.084   4.750 -0.3074 -0.5115  0.3881
   7323SM  H23G 9663   5.542   0.092   4.706 -3.5176  1.6260  0.0416
   7323SM  H23H 9664   5.438  -0.029   4.626 -1.9367  0.9560  0.4176
   7423SM     N 9665   0.768   4.452   7.083 -0.1556  0.6102 -0.6726
   7423SM   C15 9666   0.669   4.459   6.975 -0.4145  0.1635  0.0188
   7423SM  H15A 9667   0.653   4.362   6.929 -1.2434  0.4944 -0.4178
   7423SM  H15B 9668   0.700   4.528   6.898 -0.2418  1.0860  0.8996
   7423SM  H15C 9669   0.578   4.505   7.010  0.7274  4.0644 -1.6713
   7423SM   C14 9670   0.728   4.370   7.200 -0.2111  0.2807  0.2135
   7423SM  H14A 9671   0.719   4.266   7.170  0.9990  0.5471 -1.1835
   7423SM  H14B 9672   0.634   4.395   7.246 -1.1056 -3.0179  0.4327
   7423SM  H14C 9673   0.806   4.371   7.274 -0.8961 -0.0028  0.9614
   7423SM   C13 9674   0.894   4.405   7.015  0.5987  0.3823  0.1410
   7423SM  H13A 9675   0.922   4.460   6.926  2.2302 -0.7481 -0.0946
   7423SM  H13B 9676   0.880   4.302   6.986 -0.6076  0.4479  0.4538
   7423SM  H13C 9677   0.977   4.414   7.084  1.1329  0.8021 -0.5322
   7423SM   C12 9678   0.787   4.597   7.136 -0.0980  0.3556 -0.2683
   7423SM  H12A 9679   0.853   4.592   7.222 -0.0375 -0.6839 -0.3606
   7423SM  H12B 9680   0.692   4.634   7.171  0.4721  0.6496  1.0268
   7423SM   C11 9681   0.852   4.706   7.040  0.4459  1.2414  0.2698
   7423SM  H11A 9682   0.955   4.676   7.009  0.7130  2.8004 -0.4871
   7423SM  H11B 9683   0.851   4.791   7.112  1.6047  0.4157  1.3059
   7423SM     P 9684   0.852   4.803   6.800  0.2941  0.7486 -0.0927
   7423SM   O13 9685   0.917   4.926   6.848 -0.2752  0.4315 -0.2764
   7423SM   O14 9686   0.941   4.703   6.735  0.1456 -0.0460  0.0792
   7423SM   O11 9687   0.737   4.850   6.706  0.2209  0.1418  0.1012
   7423SM   O12 9688   0.770   4.729   6.917  0.1915  0.3958 -0.3089
   7423SM   C1S 9689   0.645   4.769   6.642 -0.3875 -0.1285  0.1846
   7423SM   H1S 9690   0.558   4.762   6.712 -0.2638  4.2962  1.0863
   7423SM   H1T 9691   0.684   4.667   6.624 -0.4855 -0.2080  0.4085
   7423SM    NF 9692   0.489   4.752   6.455 -0.1367 -1.0615 -0.0442
   7423SM   HNF 9693   0.515   4.672   6.402  0.1722 -1.3907  0.5887
   7423SM   C2S 9694   0.599   4.832   6.506  0.7577 -0.0253 -0.2843
   7423SM   H2S 9695   0.568   4.939   6.516  1.2717 -0.1028  3.5140
   7423SM   C3S 9696   0.726   4.834   6.412  0.5504 -0.1152  0.0519
   7423SM   H3S 9697   0.750   4.726   6.403  1.6308  0.2309 -1.7186
   7423SM    O3 9698   0.842   4.899   6.466  0.3808 -0.1650  0.2756
   7423SM   HO3 9699   0.827   4.893   6.560  1.8140  1.1350  0.6267
   7423SM   C4S 9700   0.682   4.891   6.282 -0.1882  1.0831  0.1813
   7423SM   H4S 9701   0.613   4.976   6.270 -0.1999  1.2877  1.5249
   7423SM   C5S 9702   0.726   4.830   6.167  0.2214  0.4031 -0.3675
   7423SM   H5S 9703   0.791   4.741   6.165  1.0690  1.0109 -2.1657
   7423SM   C6S 9704   0.691   4.865   6.024  0.1955 -0.1408 -0.2413
   7423SM   H6S 9705   0.668   4.973   6.017  1.0480  0.0314 -0.3892
   7423SM   H6T 9706   0.606   4.816   5.972 -0.0382  0.6362 -0.5904
   7423SM   C7S 9707   0.803   4.819   5.935  0.1408  0.8567  0.3475
   7423SM   H7S 9708   0.818   4.710   5.948  0.3889  1.0053  1.4629
   7423SM   H7T 9709   0.893   4.876   5.968 -1.6759  3.7807  0.6430
   7423SM   C8S 9710   0.781   4.863   5.794 -0.0711 -0.1664  0.0129
   7423SM   H8S 9711   0.764   4.973   5.790  0.4890 -0.0688 -4.2748
   7423SM   H8T 9712   0.695   4.823   5.736  1.3309  0.8071 -2.9595
   7423SM   C9S 9713   0.907   4.821   5.716 -0.2201 -0.6646 -0.1027
   7423SM   H9S 9714   0.926   4.716   5.747 -3.2533 -1.0193  0.9476
   7423SM   H9T 9715   0.990   4.888   5.747 -0.5041  0.0050 -0.7487
   7423SM  C10S 9716   0.906   4.830   5.565  0.7197  0.3162 -0.1908
   7423SM  H10S 9717   0.821   4.779   5.515  0.7419 -1.1924  1.2105
   7423SM  H10T 9718   1.004   4.791   5.532  1.0716  1.5742 -0.6902
   7423SM  C11S 9719   0.905   4.977   5.507 -0.6146  0.5832 -0.7460
   7423SM  H11S 9720   0.994   5.030   5.547 -0.4216 -0.4422  0.2307
   7423SM  H11T 9721   0.815   5.025   5.550  0.4666  0.0527  2.3119
   7423SM  C12S 9722   0.892   4.986   5.354  0.4365  0.2851  0.0983
   7423SM  H12S 9723   0.862   5.086   5.319  0.3542  0.2722  0.1310
   7423SM  H12T 9724   0.815   4.909   5.329 -0.1297  0.3559  1.5359
   7423SM  C13S 9725   1.022   4.942   5.286  0.5828 -0.4834  0.3838
   7423SM  H13S 9726   1.052   4.838   5.312  1.6192 -0.4564 -0.5860
   7423SM  H13T 9727   1.098   5.021   5.304 -0.1100  0.1521  0.5442
   7423SM  C14S 9728   1.005   4.932   5.128  0.1171 -0.5848 -0.1009
   7423SM  H14S 9729   1.017   5.031   5.080  1.6673 -0.1869  1.0278
   7423SM  H14T 9730   0.909   4.884   5.098 -0.7913  1.7441 -1.1604
   7423SM  C15S 9731   1.118   4.849   5.060  0.1234 -0.4879  0.1295
   7423SM  H15S 9732   1.121   4.748   5.106 -0.6572  0.4699  2.4063
   7423SM  H15T 9733   1.218   4.894   5.071 -0.5210  0.4958  2.7897
   7423SM  C16S 9734   1.096   4.816   4.913 -0.2383 -0.0368 -0.1143
   7423SM  H16S 9735   1.094   4.916   4.865 -1.3539  0.2074  0.4041
   7423SM  H16T 9736   0.992   4.783   4.895  0.1283 -1.5099  0.3256
   7423SM  C17S 9737   1.197   4.721   4.859  0.5496 -0.4495  0.3620
   7423SM  H17S 9738   1.179   4.628   4.916 -2.4342  1.1651  2.2865
   7423SM  H17T 9739   1.307   4.739   4.865  0.4983  0.0119 -0.0391
   7423SM  C18S 9740   1.156   4.700   4.710  0.1953  0.3617  0.3550
   7423SM  H18S 9741   1.168   4.794   4.651  1.8884 -1.2840 -2.1132
   7423SM  H18T 9742   1.056   4.657   4.691  0.3681  0.4242 -0.7462
   7423SM  H18U 9743   1.234   4.632   4.669  2.3631  0.6275  3.6555
   7423SM   C1F 9744   0.367   4.764   6.505 -0.2398 -0.0789 -0.5133
   7423SM    OF 9745   0.344   4.854   6.588  0.1953  0.8874 -0.0028
   7423SM   C2F 9746   0.256   4.670   6.463 -0.0194  0.3616 -0.4533
   7423SM   H2F 9747   0.163   4.720   6.428 -1.4440 -0.9744  1.2351
   7423SM   H2G 9748   0.236   4.607   6.552  0.3943 -1.0327 -1.3287
   7423SM   C3F 9749   0.293   4.565   6.350 -0.1629 -0.9174 -0.2334
   7423SM   H3F 9750   0.198   4.509   6.355 -0.2142 -0.7471  2.1990
   7423SM   H3G 9751   0.378   4.499   6.377  1.6812  0.9281 -1.1895
   7423SM   C4F 9752   0.324   4.628   6.214 -0.2197 -0.3937  0.0393
   7423SM   H4F 9753   0.430   4.660   6.204 -0.4489 -0.2712 -2.9085
   7423SM   H4G 9754   0.254   4.712   6.194 -0.1363 -0.3274  0.0242
   7423SM   C5F 9755   0.305   4.530   6.095 -0.0735  0.4835 -0.1587
   7423SM   H5F 9756   0.196   4.508   6.091 -0.1787  0.7836  0.8832
   7423SM   H5G 9757   0.351   4.429   6.105 -1.0987 -0.0200 -0.3055
   7423SM   C6F 9758   0.349   4.603   5.964  0.3435  0.3669 -0.0623
   7423SM   H6F 9759   0.457   4.623   5.981  0.8904 -2.9009  1.1975
   7423SM   H6G 9760   0.294   4.694   5.932 -2.2631 -1.2050 -0.4067
   7423SM   C7F 9761   0.337   4.509   5.840  0.5399 -0.4559 -0.3749
   7423SM   H7F 9762   0.235   4.471   5.817  0.1518 -0.2734  0.9703
   7423SM   H7G 9763   0.406   4.425   5.863 -0.4275 -1.5485 -1.3513
   7423SM   C8F 9764   0.409   4.575   5.718 -0.4876  0.2979  0.8993
   7423SM   H8F 9765   0.503   4.614   5.764 -1.5185  0.5022  2.9314
   7423SM   H8G 9766   0.361   4.661   5.668 -1.4079 -0.8856 -0.3159
   7423SM   C9F 9767   0.438   4.476   5.601  0.2019  0.0163  0.5736
   7423SM   H9F 9768   0.339   4.457   5.555 -0.8228  2.2146  1.6896
   7423SM   H9G 9769   0.474   4.386   5.655 -1.2596 -0.8582  0.1373
   7423SM  C10F 9770   0.530   4.537   5.502 -0.5830 -0.5731  0.1644
   7423SM  H10F 9771   0.621   4.573   5.555  0.0288 -3.1019  0.9923
   7423SM  H10G 9772   0.484   4.627   5.456 -1.2425 -1.4366 -0.9344
   7423SM  C11F 9773   0.563   4.446   5.380 -0.0950  0.3299 -0.0439
   7423SM  H11F 9774   0.466   4.411   5.339  1.7285 -5.0406 -0.4430
   7423SM  H11G 9775   0.614   4.351   5.404 -0.3669  0.2533  0.2494
   7423SM  C12F 9776   0.663   4.511   5.285  0.0948 -0.1691 -0.1019
   7423SM  H12F 9777   0.696   4.432   5.214  0.5360  1.4613 -1.7783
   7423SM  H12G 9778   0.760   4.548   5.324  0.2430  1.4709 -1.8816
   7423SM  C13F 9779   0.599   4.606   5.179 -0.0028  0.6244  0.1563
   7423SM  H13F 9780   0.551   4.695   5.226 -3.5157 -0.2232 -1.5534
   7423SM  H13G 9781   0.518   4.548   5.130 -1.2994  2.3661  0.1414
   7423SM  C14F 9782   0.697   4.651   5.060  0.2805 -0.1077  0.7617
   7423SM  H14F 9783   0.794   4.692   5.095  0.5469 -0.7638  0.8064
   7423SM  H14G 9784   0.640   4.730   5.006  0.5494 -0.5571 -0.2164
   7423SM  C15F 9785   0.728   4.547   4.951  0.6989 -0.2681  0.0768
   7423SM  H15F 9786   0.629   4.507   4.919 -1.5539  3.9196  1.0807
   7423SM  H15G 9787   0.792   4.463   4.984  0.8964 -0.4535 -0.7440
   7423SM  C16F 9788   0.793   4.619   4.828  0.7667  0.8686  0.2923
   7423SM  H16F 9789   0.899   4.588   4.820  0.3115 -0.5353 -1.0211
   7423SM  H16G 9790   0.790   4.730   4.835 -3.1616  0.9973 -0.6157
   7423SM  C17F 9791   0.719   4.577   4.692 -0.1257  0.0458  0.7455
   7423SM  H17F 9792   0.734   4.661   4.621 -0.3669  0.3934  1.0991
   7423SM  H17G 9793   0.609   4.573   4.700 -0.1429 -0.6756  0.1571
   7423SM  C18F 9794   0.777   4.452   4.623 -0.4626  0.2746 -0.3716
   7423SM  H18F 9795   0.741   4.360   4.674  0.6956  0.7033  1.2894
   7423SM  H18G 9796   0.887   4.446   4.633 -0.4236 -1.6069 -1.4451
   7423SM  C19F 9797   0.752   4.458   4.473 -0.2006 -0.2626  0.4986
   7423SM  H19F 9798   0.829   4.524   4.427  0.3165 -1.1440  0.0568
   7423SM  H19G 9799   0.651   4.499   4.453 -0.0662 -0.1833 -0.0405
   7423SM  C20F 9800   0.775   4.313   4.421  0.7873 -0.0790 -0.1126
   7423SM  H20F 9801   0.698   4.251   4.470  1.5071 -0.2525  0.8185
   7423SM  H20G 9802   0.875   4.273   4.449 -0.1420 -0.5034  2.9788
   7423SM  C21F 9803   0.758   4.306   4.275 -1.1164  0.0610  0.1447
   7423SM  H21F 9804   0.834   4.361   4.216 -0.7885 -1.3678 -0.8176
   7423SM  H21G 9805   0.656   4.333   4.241 -1.3901  0.4567  1.2210
   7423SM  C22F 9806   0.776   4.162   4.225  0.3235 -0.0310 -0.2252
   7423SM  H22F 9807   0.785   4.091   4.310 -1.6352 -0.2784 -0.1801
   7423SM  H22G 9808   0.870   4.152   4.166  0.8995  1.9657  0.2834
   7423SM  C23F 9809   0.648   4.116   4.155 -0.3014 -0.2367 -0.0946
   7423SM  H23F 9810   0.667   4.017   4.108 -1.0206 -0.8432  0.8483
   7423SM  H23G 9811   0.622   4.185   4.073  2.2292  1.7253  0.6303
   7423SM  H23H 9812   0.569   4.108   4.233  0.8915  1.6304  1.3947
   7523SM     N 9813   6.650   6.450   7.339  0.7172 -0.5675  0.4087
   7523SM   C15 9814   6.536   6.358   7.330 -0.1738  0.0626 -0.0735
   7523SM  H15A 9815   6.558   6.262   7.374 -1.1615 -0.4663 -0.6826
   7523SM  H15B 9816   6.525   6.343   7.223  2.9436 -0.1593 -0.4498
   7523SM  H15C 9817   6.448   6.406   7.372  1.4795  3.5552 -0.2421
   7523SM   C14 9818   6.601   6.580   7.269  0.4153  0.2669 -0.6811
   7523SM  H14A 9819   6.570   6.566   7.167 -1.1337 -2.3066  0.0071
   7523SM  H14B 9820   6.663   6.667   7.278  1.5393 -0.6686  1.3014
   7523SM  H14C 9821   6.526   6.618   7.337  1.2319  0.6007  0.0545
   7523SM   C13 9822   6.682   6.489   7.477  0.5030  0.2919 -0.1015
   7523SM  H13A 9823   6.720   6.409   7.538 -1.6327  1.2278  2.6684
   7523SM  H13B 9824   6.588   6.503   7.529 -0.0657 -0.6963 -0.8150
   7523SM  H13C 9825   6.753   6.569   7.485  0.3707  0.3818  0.1670
   7523SM   C12 9826   6.775   6.396   7.274  0.6463  0.4349 -0.1923
   7523SM  H12A 9827   6.816   6.325   7.344  0.4943 -0.2849 -0.8278
   7523SM  H12B 9828   6.850   6.473   7.258  0.0311  1.5127  1.8210
   7523SM   C11 9829   6.766   6.335   7.123  0.5399 -0.1853 -1.1815
   7523SM  H11A 9830   6.869   6.327   7.082  0.8480 -3.1734 -0.0818
   7523SM  H11B 9831   6.723   6.409   7.052  0.6260 -1.3054 -2.4295
   7523SM     P 9832   6.761   6.081   7.180 -0.2308  0.4087 -0.0644
   7523SM   O13 9833   6.854   6.123   7.292 -0.0879 -1.0018 -0.0372
   7523SM   O14 9834   6.651   5.983   7.221 -0.3087 -0.2607  0.3605
   7523SM   O11 9835   6.849   6.031   7.058 -0.4215  0.3092  0.0666
   7523SM   O12 9836   6.696   6.210   7.108  0.0578  0.0724 -0.4872
   7523SM   C1S 9837   6.794   5.940   6.965 -0.2964 -0.2489  0.1075
   7523SM   H1S 9838   6.703   5.887   7.000  0.5299 -0.8768  1.3766
   7523SM   H1T 9839   6.864   5.859   6.935 -0.5988 -2.2346  4.0543
   7523SM    NF 9840   6.672   5.923   6.756  0.0165  0.4764  0.1969
   7523SM   HNF 9841   6.702   5.870   6.677 -0.1103  0.5180  0.1192
   7523SM   C2S 9842   6.764   6.014   6.822  0.0825  0.6089 -0.0944
   7523SM   H2S 9843   6.708   6.107   6.847 -0.8894 -0.6650  3.0480
   7523SM   C3S 9844   6.898   6.031   6.759  0.0334 -0.3165 -0.6439
   7523SM   H3S 9845   6.947   5.931   6.756 -0.5803 -0.7015  1.1004
   7523SM    O3 9846   6.981   6.113   6.842  0.0314  0.5851  0.2098
   7523SM   HO3 9847   6.945   6.101   6.930  0.0639  1.5575  0.3633
   7523SM   C4S 9848   6.887   6.093   6.621  0.2235 -0.4183 -0.1146
   7523SM   H4S 9849   6.905   6.026   6.536 -0.0031 -0.4330 -0.1527
   7523SM   C5S 9850   6.860   6.224   6.599  0.4014  0.8798  0.5453
   7523SM   H5S 9851   6.843   6.289   6.686 -1.0483 -0.8581  1.6513
   7523SM   C6S 9852   6.842   6.291   6.468 -0.3082  0.0917  0.2513
   7523SM   H6S 9853   6.852   6.212   6.390 -0.0527  1.0222 -0.6893
   7523SM   H6T 9854   6.921   6.366   6.444 -0.8408 -0.5316 -4.4425
   7523SM   C7S 9855   6.707   6.367   6.454  0.1548  0.5776  0.0312
   7523SM   H7S 9856   6.705   6.434   6.543  2.8311 -0.7559  1.2279
   7523SM   H7T 9857   6.631   6.287   6.464  1.6338 -0.7600  1.1157
   7523SM   C8S 9858   6.685   6.434   6.317  0.6158 -0.0763  0.6494
   7523SM   H8S 9859   6.670   6.362   6.234 -1.1113  0.9188  0.0518
   7523SM   H8T 9860   6.781   6.484   6.294 -0.5154  1.3905 -1.2098
   7523SM   C9S 9861   6.569   6.528   6.301  0.0510  0.1656  0.4520
   7523SM   H9S 9862   6.593   6.595   6.386  0.7469 -1.6591  1.7698
   7523SM   H9T 9863   6.472   6.477   6.320  0.7336 -0.5947  2.1694
   7523SM  C10S 9864   6.570   6.597   6.169  0.3561 -0.0425 -0.2779
   7523SM  H10S 9865   6.503   6.535   6.104  0.8909 -0.2255 -0.6626
   7523SM  H10T 9866   6.675   6.598   6.132 -0.3326 -1.1037 -2.4264
   7523SM  C11S 9867   6.525   6.745   6.195 -0.3580 -0.0702 -0.0601
   7523SM  H11S 9868   6.578   6.776   6.288  0.2158  1.6391 -0.9106
   7523SM  H11T 9869   6.420   6.737   6.230  0.1861 -0.7080  1.4870
   7523SM  C12S 9870   6.573   6.847   6.088  0.2881  0.4065  0.1297
   7523SM  H12S 9871   6.539   6.807   5.990  0.4302 -0.5283  0.4516
   7523SM  H12T 9872   6.684   6.841   6.093  0.3172 -0.5060 -1.1189
   7523SM  C13S 9873   6.529   6.995   6.118  0.4038 -0.0419  0.6014
   7523SM  H13S 9874   6.419   7.002   6.106  0.4941 -1.9758 -2.7748
   7523SM  H13T 9875   6.567   7.058   6.035  0.8625 -0.9238  0.1252
   7523SM  C14S 9876   6.584   7.030   6.253  0.0248 -0.8464 -0.3231
   7523SM  H14S 9877   6.691   7.002   6.262  0.2567 -0.1784 -0.8807
   7523SM  H14T 9878   6.542   6.974   6.340 -0.1747  1.5065  1.1808
   7523SM  C15S 9879   6.581   7.178   6.284 -0.7182 -0.0685 -0.2046
   7523SM  H15S 9880   6.637   7.232   6.204 -2.9802  0.6537 -1.3830
   7523SM  H15T 9881   6.638   7.194   6.378 -1.7101  1.2121  0.2124
   7523SM  C16S 9882   6.450   7.246   6.310  0.9743 -0.2577  0.2054
   7523SM  H16S 9883   6.393   7.197   6.392 -0.3582 -1.1627 -1.1910
   7523SM  H16T 9884   6.399   7.240   6.212 -0.5890 -2.2341  1.0728
   7523SM  C17S 9885   6.459   7.394   6.353 -0.2349 -0.5644  0.1563
   7523SM  H17S 9886   6.508   7.456   6.275 -0.6931  0.1370  0.4162
   7523SM  H17T 9887   6.534   7.393   6.435  2.0908 -1.9529 -1.8731
   7523SM  C18S 9888   6.330   7.469   6.394  0.2419 -0.4859 -0.6326
   7523SM  H18S 9889   6.296   7.429   6.492  0.7771  2.1301  0.7047
   7523SM  H18T 9890   6.248   7.468   6.318  2.2761  1.3667 -3.0107
   7523SM  H18U 9891   6.344   7.578   6.408 -0.7266 -0.2532 -1.3972
   7523SM   C1F 9892   6.540   5.918   6.779 -0.9657 -0.5134  0.6659
   7523SM    OF 9893   6.494   5.963   6.879 -0.2681 -0.2613  0.3777
   7523SM   C2F 9894   6.463   5.835   6.670  0.0126 -0.0409 -0.2754
   7523SM   H2F 9895   6.507   5.735   6.653 -2.1837 -0.8735 -1.5880
   7523SM   H2G 9896   6.475   5.895   6.577 -1.6197 -1.1716 -1.2863
   7523SM   C3F 9897   6.308   5.836   6.695  0.0662  0.5783  0.2647
   7523SM   H3F 9898   6.267   5.940   6.697 -2.6509 -0.3879  2.3122
   7523SM   H3G 9899   6.284   5.796   6.796  0.4514 -0.8028 -0.1713
   7523SM   C4F 9900   6.233   5.749   6.591  0.4981 -0.2205  0.3807
   7523SM   H4F 9901   6.255   5.646   6.627  0.5720 -0.3291  0.0244
   7523SM   H4G 9902   6.279   5.758   6.491  1.2044 -1.5328  0.5622
   7523SM   C5F 9903   6.082   5.760   6.597  0.8593  0.8425  0.7705
   7523SM   H5F 9904   6.058   5.860   6.554  0.0525 -0.5364 -2.2725
   7523SM   H5G 9905   6.038   5.774   6.698 -1.7861  1.2499 -0.3483
   7523SM   C6F 9906   6.015   5.648   6.508  0.3299 -0.5358  0.2726
   7523SM   H6F 9907   6.025   5.554   6.567  0.6953 -2.4794 -2.6563
   7523SM   H6G 9908   6.074   5.619   6.418  2.3228 -0.1960  1.4048
   7523SM   C7F 9909   5.870   5.668   6.466 -0.2237 -0.5356  0.1395
   7523SM   H7F 9910   5.819   5.714   6.553 -1.8761 -0.0506 -1.0302
   7523SM   H7G 9911   5.811   5.581   6.432 -0.5765 -0.3618  0.2942
   7523SM   C8F 9912   5.860   5.772   6.347 -0.0339 -0.0857  0.5966
   7523SM   H8F 9913   5.900   5.725   6.254 -0.5934  0.9525 -0.1859
   7523SM   H8G 9914   5.929   5.855   6.375 -0.3578  1.3807 -2.4443
   7523SM   C9F 9915   5.729   5.846   6.322  0.8568 -0.9487  0.4601
   7523SM   H9F 9916   5.687   5.867   6.422 -0.5218 -0.9648 -0.0975
   7523SM   H9G 9917   5.667   5.768   6.272  0.3150 -0.1442 -0.1363
   7523SM  C10F 9918   5.739   5.977   6.240 -0.0161  0.6043 -0.3139
   7523SM  H10F 9919   5.821   6.038   6.284 -1.6106  2.1262  0.6718
   7523SM  H10G 9920   5.651   6.044   6.253  0.8324  1.4848  1.1436
   7523SM  C11F 9921   5.750   5.951   6.093  0.2570  0.1249  0.5254
   7523SM  H11F 9922   5.655   5.912   6.050  0.8349  0.2577 -0.9530
   7523SM  H11G 9923   5.808   5.856   6.086 -1.5214 -1.0866  1.5075
   7523SM  C12F 9924   5.812   6.059   6.007 -0.0500 -0.1283  0.2130
   7523SM  H12F 9925   5.825   6.025   5.903 -0.2494  0.7238 -0.1019
   7523SM  H12G 9926   5.911   6.085   6.050  0.2995  1.1853 -1.3025
   7523SM  C13F 9927   5.728   6.187   5.981 -0.1757  0.6431 -0.1274
   7523SM  H13F 9928   5.774   6.261   5.911  2.0279 -1.0811 -0.6417
   7523SM  H13G 9929   5.725   6.248   6.074  1.2403  0.0139  0.3594
   7523SM  C14F 9930   5.582   6.169   5.936 -0.3102  0.0026 -0.7331
   7523SM  H14F 9931   5.534   6.266   5.965  0.0354 -0.5585  2.0323
   7523SM  H14G 9932   5.533   6.085   5.990 -0.3325  1.0722  1.0164
   7523SM  C15F 9933   5.572   6.147   5.786  0.2330  0.1869 -0.5091
   7523SM  H15F 9934   5.582   6.041   5.752 -2.6057 -0.1288 -0.6197
   7523SM  H15G 9935   5.648   6.211   5.737  1.6684  0.7011  2.2214
   7523SM  C16F 9936   5.428   6.187   5.732 -0.2377 -0.0678 -0.5118
   7523SM  H16F 9937   5.397   6.291   5.756  0.4898 -0.0263  0.3272
   7523SM  H16G 9938   5.363   6.126   5.798 -1.1304  1.9372  0.5230
   7523SM  C17F 9939   5.410   6.141   5.583  0.9535  0.4247  0.0671
   7523SM  H17F 9940   5.446   6.037   5.575 -1.9952 -0.6981  0.1472
   7523SM  H17G 9941   5.466   6.194   5.502  1.3633 -1.9901 -1.3354
   7523SM  C18F 9942   5.263   6.123   5.535 -0.2025  0.7169  0.6873
   7523SM  H18F 9943   5.193   6.205   5.561 -0.4816  0.3272  1.1815
   7523SM  H18G 9944   5.229   6.036   5.594  0.5874  0.1167  0.2702
   7523SM  C19F 9945   5.243   6.097   5.386 -0.9927 -0.3248 -0.4940
   7523SM  H19F 9946   5.308   6.012   5.355  0.2245  0.2081  0.5447
   7523SM  H19G 9947   5.276   6.187   5.331 -0.1682 -0.3085  0.0185
   7523SM  C20F 9948   5.099   6.044   5.341  0.3902 -0.9160 -0.7106
   7523SM  H20F 9949   5.023   6.120   5.369  1.0369 -0.5813  0.1795
   7523SM  H20G 9950   5.078   5.950   5.398 -0.9038 -0.8678 -1.0807
   7523SM  C21F 9951   5.087   6.015   5.189  0.2526 -0.8211 -0.0931
   7523SM  H21F 9952   5.090   5.905   5.173  1.2865 -0.7822 -0.2968
   7523SM  H21G 9953   5.185   6.039   5.142  1.3987 -0.8629  2.1357
   7523SM  C22F 9954   4.978   6.105   5.119  0.1782  0.2935  0.2818
   7523SM  H22F 9955   4.881   6.074   5.164  0.5501 -0.2963  0.6788
   7523SM  H22G 9956   4.987   6.066   5.015  1.4102 -1.3386  0.9614
   7523SM  C23F 9957   5.012   6.252   5.130 -0.6891 -0.2968 -0.1491
   7523SM  H23F 9958   5.026   6.283   5.236 -1.2076  0.4021 -0.2723
   7523SM  H23G 9959   4.938   6.322   5.086 -0.4093  0.8073  1.0599
   7523SM  H23H 9960   5.099   6.282   5.069 -0.6138 -0.5305 -0.1561
   7623SM     N 9961   0.544   5.037   6.961  1.0607 -0.3539  0.8226
   7623SM   C15 9962   0.543   5.051   6.812 -0.0688 -0.4114  0.5692
   7623SM  H15A 9963   0.552   5.151   6.773  0.1694 -0.6172  0.0795
   7623SM  H15B 9964   0.451   5.012   6.771  0.3495 -0.1183 -0.7282
   7623SM  H15C 9965   0.622   4.993   6.766 -0.2848 -0.3357  0.0880
   7623SM   C14 9966   0.524   4.898   7.010 -0.1136 -0.5845 -0.6353
   7623SM  H14A 9967   0.540   4.902   7.117  0.7475 -1.6506 -0.7004
   7623SM  H14B 9968   0.594   4.827   6.969  0.3801 -0.3183 -0.2654
   7623SM  H14C 9969   0.425   4.871   6.978 -0.6460 -0.6263  0.9617
   7623SM   C13 9970   0.670   5.079   7.010 -0.3338  0.5894 -0.2098
   7623SM  H13A 9971   0.746   5.003   6.997 -0.7830 -0.7186  3.5475
   7623SM  H13B 9972   0.670   5.084   7.118  0.6403 -1.4997 -0.0721
   7623SM  H13C 9973   0.697   5.178   6.977  2.5436  0.8510  2.4131
   7623SM   C12 9974   0.440   5.128   7.021  0.1290  0.1553  0.5821
   7623SM  H12A 9975   0.459   5.231   6.994 -2.2117  0.9181  1.5933
   7623SM  H12B 9976   0.453   5.125   7.128 -2.0339 -1.8315  0.8687
   7623SM   C11 9977   0.296   5.102   6.973  0.0048 -0.0020  0.1431
   7623SM  H11A 9978   0.279   5.123   6.865 -0.1089 -1.6571 -0.1867
   7623SM  H11B 9979   0.233   5.181   7.020 -0.0072  0.4738 -0.6445
   7623SM     P 9980   0.126   4.935   7.085  0.0091  0.0994 -0.0706
   7623SM   O13 9981   0.116   4.793   7.096 -0.0389  0.1684  0.7777
   7623SM   O14 9982   0.123   5.010   7.210 -0.8615  0.4803  0.2564
   7623SM   O11 9983   0.003   4.984   6.990 -0.1502  0.1794  0.1223
   7623SM   O12 9984   0.243   4.974   6.997  0.7222  0.3516 -0.4354
   7623SM   C1S 9985   0.007   4.954   6.844  0.0905  0.1239  0.0687
   7623SM   H1S 9986  -0.029   4.849   6.840  1.3816 -0.2978 -1.7522
   7623SM   H1T 9987   0.110   4.954   6.803 -0.1579  1.2875 -0.6110
   7623SM    NF 9988  -0.095   5.000   6.624 -0.1401 -1.4081  0.2711
   7623SM   HNF 9989  -0.028   5.021   6.554 -0.3716  0.6284  0.6009
   7623SM   C2S 9990  -0.076   5.054   6.757  0.1021 -0.1681  0.2003
   7623SM   H2S 9991  -0.177   5.064   6.802  0.4558  1.9265  0.6096
   7623SM   C3S 9992  -0.008   5.195   6.755 -0.2831 -1.1927 -0.3537
   7623SM   H3S 9993   0.098   5.189   6.724 -0.8485 -1.7977 -2.3416
   7623SM    O3 9994   0.009   5.247   6.888  0.1151 -0.6041  0.4897
   7623SM   HO3 9995  -0.017   5.172   6.942  0.3052 -2.6676 -2.0762
   7623SM   C4S 9996  -0.084   5.291   6.672  0.2169  0.1340 -0.7653
   7623SM   H4S 9997  -0.185   5.310   6.711  1.2130 -0.4385  2.3394
   7623SM   C5S 9998  -0.039   5.364   6.562  0.2730 -0.2374  0.4774
   7623SM   H5S 9999   0.068   5.345   6.547 -0.0629 -1.3540 -0.6043
   7623SM   C6S10000  -0.120   5.469   6.478 -0.0332  0.1049 -0.0233
   7623SM   H6S10001  -0.079   5.572   6.483  3.0100 -0.9047 -1.4911
   7623SM   H6T10002  -0.228   5.473   6.501 -0.0628 -3.3524  1.1381
   7623SM   C7S10003  -0.113   5.434   6.327 -0.2642 -0.5029  0.4447
   7623SM   H7S10004  -0.159   5.335   6.306  0.2963 -0.4016 -1.5078
   7623SM   H7T10005  -0.008   5.438   6.290 -0.9575  0.9407 -1.5885
   7623SM   C8S10006  -0.166   5.546   6.240  1.1385  0.5863 -0.2612
   7623SM   H8S10007  -0.111   5.546   6.143 -1.7610  2.1797 -2.0516
   7623SM   H8T10008  -0.154   5.649   6.280  0.4821  0.3333  0.6055
   7623SM   C9S10009  -0.312   5.516   6.209 -0.6144 -0.7873  0.1022
   7623SM   H9S10010  -0.378   5.540   6.295  0.9142 -1.8667  1.6458
   7623SM   H9T10011  -0.334   5.409   6.189 -2.0430 -0.3369 -0.8488
   7623SM  C10S10012  -0.356   5.601   6.085 -0.4902  0.3799 -0.1626
   7623SM  H10S10013  -0.305   5.700   6.089 -0.1168  0.1409  2.5925
   7623SM  H10T10014  -0.462   5.632   6.094 -0.7967 -0.0958 -1.7782
   7623SM  C11S10015  -0.335   5.539   5.951  0.6863 -0.1517  0.7993
   7623SM  H11S10016  -0.415   5.462   5.949  0.6730 -0.1234 -0.0889
   7623SM  H11T10017  -0.236   5.490   5.943  1.0189  0.2109  2.4040
   7623SM  C12S10018  -0.359   5.646   5.843  0.7520 -0.2962  0.2655
   7623SM  H12S10019  -0.287   5.729   5.857  0.4825  0.9173 -3.9278
   7623SM  H12T10020  -0.458   5.692   5.860  1.5688  1.3570  0.7463
   7623SM  C13S10021  -0.358   5.587   5.702  0.3974 -0.4775  0.2268
   7623SM  H13S10022  -0.439   5.511   5.706  1.2425 -1.3473  1.2126
   7623SM  H13T10023  -0.260   5.537   5.683 -0.4546 -1.4699 -1.9343
   7623SM  C14S10024  -0.387   5.678   5.580  0.1747 -0.3520 -0.4523
   7623SM  H14S10025  -0.349   5.780   5.600 -0.6701  0.1675 -1.3708
   7623SM  H14T10026  -0.497   5.691   5.574 -0.1643 -2.8563 -1.1632
   7623SM  C15S10027  -0.337   5.620   5.449 -0.0652 -0.2802  0.7096
   7623SM  H15S10028  -0.229   5.634   5.429 -0.3826  1.4701 -0.0214
   7623SM  H15T10029  -0.392   5.673   5.368 -0.4768 -0.3878  0.9114
   7623SM  C16S10030  -0.384   5.476   5.422  0.2986 -0.2661 -0.6838
   7623SM  H16S10031  -0.494   5.473   5.431  0.2417  0.5203 -1.0190
   7623SM  H16T10032  -0.344   5.412   5.504 -0.8529 -1.7234 -1.2275
   7623SM  C17S10033  -0.337   5.419   5.284 -0.2439 -0.4943 -0.0734
   7623SM  H17S10034  -0.389   5.483   5.210 -0.2970  0.0830  0.4465
   7623SM  H17T10035  -0.368   5.314   5.267  0.3607 -0.9130  1.2046
   7623SM  C18S10036  -0.185   5.433   5.259  0.3619  0.3463 -0.3654
   7623SM  H18S10037  -0.157   5.408   5.154 -0.2974  0.6494 -0.6171
   7623SM  H18T10038  -0.118   5.370   5.320 -0.2204  0.9763  0.9618
   7623SM  H18U10039  -0.155   5.540   5.262 -1.2392  0.8315 -0.5300
   7623SM   C1F10040  -0.176   4.896   6.603 -0.3004 -0.4069  0.0386
   7623SM    OF10041  -0.256   4.866   6.696 -0.1320  0.0993 -0.2804
   7623SM   C2F10042  -0.182   4.819   6.482 -0.3934 -0.5536 -0.1929
   7623SM   H2F10043  -0.120   4.862   6.400 -1.4171  1.1406 -0.1156
   7623SM   H2G10044  -0.284   4.824   6.439 -0.3249  1.8892 -0.1798
   7623SM   C3F10045  -0.153   4.671   6.513  0.0641  0.3690  0.6187
   7623SM   H3F10046  -0.200   4.626   6.603 -1.2947 -0.0401 -0.2621
   7623SM   H3G10047  -0.042   4.660   6.511  0.0709 -0.0117  2.1430
   7623SM   C4F10048  -0.191   4.576   6.397 -0.1795 -0.1671  0.5573
   7623SM   H4F10049  -0.301   4.573   6.409 -0.4234  0.1576 -1.2721
   7623SM   H4G10050  -0.164   4.470   6.416  0.5507  0.4250  3.1659
   7623SM   C5F10051  -0.148   4.622   6.255 -0.2862  0.0471 -1.1636
   7623SM   H5F10052  -0.037   4.618   6.261 -0.1824  1.4832 -1.8077
   7623SM   H5G10053  -0.171   4.727   6.228 -0.1405  0.9655  1.8985
   7623SM   C6F10054  -0.188   4.522   6.141  0.5851 -0.5600 -0.3643
   7623SM   H6F10055  -0.177   4.420   6.185  0.8743  0.5895  2.4761
   7623SM   H6G10056  -0.108   4.522   6.064  0.4057  2.0413 -0.6433
   7623SM   C7F10057  -0.324   4.556   6.080 -0.2444  0.3010 -0.2927
   7623SM   H7F10058  -0.353   4.663   6.087 -1.7806 -0.2155  2.0100
   7623SM   H7G10059  -0.401   4.509   6.145 -1.5623 -1.6149 -3.0245
   7623SM   C8F10060  -0.337   4.497   5.939 -0.1391  0.8222 -0.1804
   7623SM   H8F10061  -0.445   4.508   5.916 -0.1807 -0.6972 -0.8610
   7623SM   H8G10062  -0.314   4.389   5.949 -1.3091  0.6515  0.9967
   7623SM   C9F10063  -0.270   4.567   5.817 -0.0842 -0.5690 -0.2240
   7623SM   H9F10064  -0.219   4.657   5.857 -2.4800 -0.4827  2.9829
   7623SM   H9G10065  -0.353   4.600   5.750  0.6761 -0.7609 -1.2723
   7623SM  C10F10066  -0.189   4.457   5.742 -0.4904 -0.2640  0.1414
   7623SM  H10F10067  -0.253   4.371   5.714 -1.4491  0.6128 -0.4211
   7623SM  H10G10068  -0.111   4.420   5.813 -0.2360  1.1988  0.6561
   7623SM  C11F10069  -0.129   4.505   5.606 -0.5203 -0.0825  0.1814
   7623SM  H11F10070  -0.069   4.598   5.613  0.1603 -0.4600 -0.5488
   7623SM  H11G10071  -0.194   4.527   5.518  1.4745 -0.5824 -1.4952
   7623SM  C12F10072  -0.019   4.401   5.569  0.2378  0.0624  0.5768
   7623SM  H12F10073  -0.058   4.301   5.599  1.1629 -0.8379 -1.0797
   7623SM  H12G10074   0.066   4.426   5.636 -1.4160  0.8097  2.5149
   7623SM  C13F10075   0.008   4.402   5.418  0.4794  0.3070  0.0796
   7623SM  H13F10076  -0.087   4.411   5.360  0.7910 -0.9860 -0.6697
   7623SM  H13G10077   0.060   4.314   5.376 -0.9421 -0.8192  0.6125
   7623SM  C14F10078   0.096   4.525   5.372 -0.8327 -0.0716  0.9711
   7623SM  H14F10079   0.192   4.531   5.427 -1.8584 -2.4920  3.2819
   7623SM  H14G10080   0.033   4.614   5.390  0.6720  0.6796  2.7341
   7623SM  C15F10081   0.142   4.514   5.221  0.7638  0.1154 -0.2398
   7623SM  H15F10082   0.054   4.491   5.157  0.4795 -1.1973  0.5914
   7623SM  H15G10083   0.208   4.425   5.212  1.1328  0.5596 -2.6621
   7623SM  C16F10084   0.221   4.643   5.179 -0.4367  0.6844  0.1485
   7623SM  H16F10085   0.309   4.656   5.245  0.1190 -0.5451 -0.3308
   7623SM  H16G10086   0.148   4.727   5.185 -1.3399 -0.1507  1.4276
   7623SM  C17F10087   0.273   4.630   5.030 -0.2768 -0.3032  0.3397
   7623SM  H17F10088   0.188   4.589   4.972  0.5982 -1.4610 -0.1617
   7623SM  H17G10089   0.345   4.546   5.022  0.2829  0.2361 -0.4409
   7623SM  C18F10090   0.336   4.758   4.969  0.2615 -0.5157 -0.9495
   7623SM  H18F10091   0.427   4.794   5.021  0.1664 -1.0107 -0.4310
   7623SM  H18G10092   0.270   4.848   4.976  2.3235  1.0831 -1.0819
   7623SM  C19F10093   0.367   4.746   4.825 -0.2294 -0.3382 -0.1321
   7623SM  H19F10094   0.426   4.654   4.806  0.9313  0.2035  0.7097
   7623SM  H19G10095   0.405   4.844   4.789 -1.6539  0.1542 -0.3680
   7623SM  C20F10096   0.230   4.726   4.750 -0.4110  0.4082  0.0406
   7623SM  H20F10097   0.148   4.763   4.815  0.6465 -0.6816  2.0708
   7623SM  H20G10098   0.209   4.619   4.730 -0.0374  0.7317 -2.4019
   7623SM  C21F10099   0.231   4.792   4.606 -0.3113 -0.0181 -0.1722
   7623SM  H21F10100   0.252   4.901   4.611  1.0123 -0.0326 -3.1195
   7623SM  H21G10101   0.130   4.767   4.567  0.3213 -3.5440  0.1401
   7623SM  C22F10102   0.334   4.721   4.519 -0.2274 -0.2726  0.1451
   7623SM  H22F10103   0.372   4.629   4.568  1.5152  0.8060  0.9128
   7623SM  H22G10104   0.416   4.795   4.514 -0.7286  0.4761  2.0635
   7623SM  C23F10105   0.270   4.682   4.378 -0.1155  0.1841  0.2166
   7623SM  H23F10106   0.165   4.652   4.398  0.1760 -0.7364  0.4063
   7623SM  H23G10107   0.320   4.600   4.321 -0.8309 -0.4649  0.5040
   7623SM  H23H10108   0.279   4.780   4.326 -1.3073  0.8455  1.2206
   7723SM     N10109   0.378   2.125   6.939  0.2067  0.6653 -0.2312
   7723SM   C1510110   0.364   2.156   6.795 -0.2593 -0.6292 -0.4401
   7723SM  H15A10111   0.453   2.184   6.740 -0.0248 -0.8950 -0.2005
   7723SM  H15B10112   0.289   2.234   6.788  1.2436  0.9513  0.2750
   7723SM  H15C10113   0.330   2.069   6.740  0.0011 -0.7360 -0.4369
   7723SM   C1410114   0.458   1.999   6.955 -0.0084  0.5565  0.3442
   7723SM  H14A10115   0.412   1.916   6.904 -2.1732  1.0243  1.4400
   7723SM  H14B10116   0.447   1.974   7.060 -2.9705  0.2720  0.0312
   7723SM  H14C10117   0.560   2.007   6.921 -0.4315  2.8685 -0.5680
   7723SM   C1310118   0.444   2.240   7.004  0.2830 -0.1575  0.1997
   7723SM  H13A10119   0.466   2.222   7.108  0.7864 -0.0103  0.1189
   7723SM  H13B10120   0.385   2.327   6.983 -0.6292 -0.8751 -0.3098
   7723SM  H13C10121   0.535   2.269   6.954  0.5240  0.4784  0.9914
   7723SM   C1210122   0.250   2.093   6.999 -0.3388  0.6271 -0.0733
   7723SM  H12A10123   0.262   2.088   7.107 -2.8930  1.1957  0.2978
   7723SM  H12B10124   0.217   1.995   6.968  0.6494  0.4538 -0.6087
   7723SM   C1110125   0.127   2.196   6.981 -0.7661 -0.8071 -0.1730
   7723SM  H11A10126   0.036   2.157   7.031 -0.4477  0.4876  1.4790
   7723SM  H11B10127   0.110   2.194   6.871  1.7947  1.6520 -0.7522
   7723SM     P10128   0.130   2.454   6.924 -0.1165 -0.0678 -0.0255
   7723SM   O1310129   0.082   2.571   7.005 -0.0039  0.1732  0.1481
   7723SM   O1410130   0.257   2.485   6.860 -0.6443 -0.0265  0.3755
   7723SM   O1110131   0.014   2.407   6.818 -0.3260 -0.6101 -0.6435
   7723SM   O1210132   0.147   2.332   7.027 -1.0202 -0.0339  0.1955
   7723SM   C1S10133  -0.029   2.516   6.731 -0.5701 -1.1307  0.0457
   7723SM   H1S10134   0.047   2.597   6.721  0.7267 -2.1929  0.8824
   7723SM   H1T10135  -0.121   2.570   6.760 -0.1277  0.1151 -0.7690
   7723SM    NF10136  -0.074   2.561   6.499 -0.4397 -0.3769 -0.2826
   7723SM   HNF10137  -0.154   2.621   6.498 -0.0146  0.3090  1.4335
   7723SM   C2S10138  -0.063   2.456   6.593  0.0778  0.2293 -0.2606
   7723SM   H2S10139   0.019   2.387   6.562 -0.0473 -0.8307  1.6573
   7723SM   C3S10140  -0.200   2.379   6.608 -0.8294  0.8577  0.3366
   7723SM   H3S10141  -0.276   2.456   6.630 -0.4494  1.3767 -0.1500
   7723SM    O310142  -0.192   2.284   6.711  0.6054  0.9568 -0.3883
   7723SM   HO310143  -0.120   2.317   6.765  0.5916  1.7951 -0.8634
   7723SM   C4S10144  -0.248   2.309   6.485 -0.5691  0.6452  0.4683
   7723SM   H4S10145  -0.303   2.384   6.428 -0.0322  0.1507 -0.7378
   7723SM   C5S10146  -0.231   2.183   6.436 -0.5791  0.8088 -0.9563
   7723SM   H5S10147  -0.199   2.108   6.509 -2.5671  0.0523 -0.7988
   7723SM   C6S10148  -0.293   2.137   6.301  0.3437  0.1588  0.0610
   7723SM   H6S10149  -0.378   2.205   6.275  1.5358  2.3370  1.5434
   7723SM   H6T10150  -0.343   2.039   6.309  1.7147 -0.5874 -0.3183
   7723SM   C7S10151  -0.195   2.136   6.184  0.4014  0.3857  0.1232
   7723SM   H7S10152  -0.097   2.089   6.206  1.0335 -1.2657 -4.9867
   7723SM   H7T10153  -0.180   2.242   6.156  1.7120  0.0311 -0.5950
   7723SM   C8S10154  -0.255   2.080   6.051  0.8844  0.4974  0.1503
   7723SM   H8S10155  -0.345   2.134   6.013 -0.0765 -1.5907 -0.6643
   7723SM   H8T10156  -0.302   1.984   6.082 -1.6164  1.0775 -1.5161
   7723SM   C9S10157  -0.149   2.071   5.941 -0.1641  0.1221 -0.1289
   7723SM   H9S10158  -0.056   2.029   5.984 -0.3236 -0.6984 -0.5679
   7723SM   H9T10159  -0.145   2.169   5.888 -0.3230  0.2955  0.1754
   7723SM  C10S10160  -0.189   1.974   5.826  0.0945 -0.3442 -0.3190
   7723SM  H10S10161  -0.291   2.000   5.791 -0.1122 -1.2757 -0.4489
   7723SM  H10T10162  -0.192   1.877   5.880 -0.1683 -0.1095  0.0948
   7723SM  C11S10163  -0.092   1.958   5.713 -0.4066  0.3234  0.2534
   7723SM  H11S10164   0.000   1.903   5.740 -1.6557 -1.2685  1.4249
   7723SM  H11T10165  -0.078   2.057   5.663 -0.9199  0.7731  0.9819
   7723SM  C12S10166  -0.142   1.866   5.600 -0.6205  0.2047 -0.2108
   7723SM  H12S10167  -0.233   1.906   5.548  0.6714  0.2843 -2.5678
   7723SM  H12T10168  -0.172   1.766   5.637 -1.3916  0.5563  0.1585
   7723SM  C13S10169  -0.026   1.847   5.499  0.4757 -0.4106 -0.3569
   7723SM  H13S10170   0.062   1.822   5.562  1.5207  1.8010 -0.8318
   7723SM  H13T10171  -0.026   1.949   5.455 -0.8340  0.0147  0.5598
   7723SM  C14S10172  -0.053   1.739   5.398 -0.3399 -0.2357  0.8183
   7723SM  H14S10173   0.044   1.724   5.346  1.1188  0.2899  3.2451
   7723SM  H14T10174  -0.131   1.782   5.332  0.3379 -1.7083 -1.0544
   7723SM  C15S10175  -0.106   1.602   5.455 -0.8131  0.6460  0.5202
   7723SM  H15S10176  -0.208   1.597   5.499  0.2416 -0.1132  3.1048
   7723SM  H15T10177  -0.033   1.574   5.534 -1.6283  0.4779  1.2338
   7723SM  C16S10178  -0.108   1.490   5.353 -0.1032 -0.1445  0.3217
   7723SM  H16S10179  -0.150   1.394   5.389 -1.2621 -0.0334 -0.6818
   7723SM  H16T10180  -0.005   1.478   5.313  0.3699  1.0317  1.1403
   7723SM  C17S10181  -0.203   1.527   5.235 -1.0697 -0.4158 -0.2425
   7723SM  H17S10182  -0.178   1.624   5.186  1.4629  0.1311  1.9472
   7723SM  H17T10183  -0.306   1.529   5.276 -0.3460  2.2988  1.6718
   7723SM  C18S10184  -0.208   1.427   5.120 -0.9653 -0.3359  0.0639
   7723SM  H18S10185  -0.281   1.349   5.152  0.2807 -0.7545  2.0755
   7723SM  H18T10186  -0.107   1.382   5.112 -1.0223 -0.3648 -0.5469
   7723SM  H18U10187  -0.237   1.485   5.030 -0.3467 -0.5522 -0.2804
   7723SM   C1F10188   0.036   2.605   6.431  0.0302  0.3478  0.0414
   7723SM    OF10189   0.147   2.559   6.463  0.3618 -0.3886 -0.6058
   7723SM   C2F10190   0.018   2.707   6.325 -0.5637 -0.5504 -0.7740
   7723SM   H2F10191   0.033   2.807   6.369 -0.5563 -0.8986  0.0310
   7723SM   H2G10192  -0.088   2.697   6.293 -1.0255 -0.6745  0.7423
   7723SM   C3F10193   0.118   2.691   6.205 -0.1792 -0.3109 -0.1779
   7723SM   H3F10194   0.138   2.582   6.192 -0.2120 -0.1432 -1.9114
   7723SM   H3G10195   0.210   2.751   6.219 -0.7568  0.6694 -0.5123
   7723SM   C4F10196   0.060   2.729   6.069  0.3132  0.3458  0.7991
   7723SM   H4F10197  -0.022   2.657   6.048  0.3776  0.3014  0.6979
   7723SM   H4G10198   0.132   2.712   5.986 -1.1808  0.8831 -0.6843
   7723SM   C5F10199   0.037   2.885   6.055  0.4979  0.1996 -0.6474
   7723SM   H5F10200   0.132   2.940   6.070 -0.0007  0.5668  1.4235
   7723SM   H5G10201  -0.033   2.906   6.139 -0.6911 -2.1454 -0.9737
   7723SM   C6F10202  -0.022   2.928   5.918 -0.4159 -0.4071  0.4345
   7723SM   H6F10203   0.048   2.914   5.832 -2.4725 -1.1879 -1.2058
   7723SM   H6G10204  -0.035   3.038   5.924  0.0460 -0.3300  0.0998
   7723SM   C7F10205  -0.156   2.854   5.892  0.9190  0.4135  0.0797
   7723SM   H7F10206  -0.204   2.838   5.991 -0.6156  1.4939 -0.4499
   7723SM   H7G10207  -0.146   2.751   5.851 -0.1981 -0.8601  2.7795
   7723SM   C8F10208  -0.254   2.935   5.791 -0.6676  0.5803 -0.0248
   7723SM   H8F10209  -0.251   3.042   5.819 -2.0390  0.0157  2.5878
   7723SM   H8G10210  -0.361   2.905   5.797 -0.2350 -0.6908  3.1384
   7723SM   C9F10211  -0.202   2.935   5.641  0.6494  0.5887  0.6104
   7723SM   H9F10212  -0.293   2.933   5.576  0.8342  2.0204  0.2888
   7723SM   H9G10213  -0.147   2.842   5.614 -1.6357 -0.1698 -1.9954
   7723SM  C10F10214  -0.125   3.056   5.600 -0.0902 -0.6278  0.2224
   7723SM  H10F10215  -0.035   3.066   5.664 -0.8718 -1.0656  1.4110
   7723SM  H10G10216  -0.187   3.148   5.610  0.5231 -0.1717 -0.1294
   7723SM  C11F10217  -0.092   3.057   5.445  0.0247  0.3371  0.1601
   7723SM  H11F10218  -0.187   3.039   5.389  0.7285 -2.7058 -0.2563
   7723SM  H11G10219  -0.029   2.971   5.414  0.6357 -0.2461  2.8089
   7723SM  C12F10220  -0.027   3.183   5.407 -0.3459 -0.0932  0.2871
   7723SM  H12F10221   0.077   3.194   5.446 -0.1073  0.2576 -0.4256
   7723SM  H12G10222  -0.096   3.257   5.453 -1.2643  0.4247 -1.7651
   7723SM  C13F10223  -0.016   3.215   5.254 -0.4563  0.5560  0.3176
   7723SM  H13F10224  -0.119   3.218   5.212 -1.2729 -0.5414  2.1199
   7723SM  H13G10225   0.032   3.131   5.198  1.1293  1.9102 -0.4130
   7723SM  C14F10226   0.059   3.347   5.231 -0.4823 -0.0707  0.2099
   7723SM  H14F10227   0.169   3.343   5.244 -0.4473  0.5385  0.1392
   7723SM  H14G10228   0.027   3.424   5.304 -0.7628 -1.8647  2.0725
   7723SM  C15F10229   0.040   3.408   5.085 -0.5487 -0.5012 -0.4798
   7723SM  H15F10230  -0.062   3.451   5.072  0.4006  0.9690 -4.3310
   7723SM  H15G10231   0.057   3.325   5.014  0.4664 -2.0891  1.5066
   7723SM  C16F10232   0.138   3.529   5.068  0.9476 -0.1011  0.3880
   7723SM  H16F10233   0.243   3.492   5.070  1.3615  1.0604  0.7097
   7723SM  H16G10234   0.118   3.600   5.151 -0.3503  0.8884 -0.7222
   7723SM  C17F10235   0.119   3.588   4.931 -0.2876  0.1598  0.6346
   7723SM  H17F10236   0.142   3.695   4.948  2.4468 -0.2269 -0.2639
   7723SM  H17G10237   0.017   3.581   4.888  0.4278  2.7612 -1.7390
   7723SM  C18F10238   0.227   3.542   4.827 -0.3887 -0.1308 -0.5879
   7723SM  H18F10239   0.206   3.439   4.789 -1.5278  0.2972 -1.1620
   7723SM  H18G10240   0.326   3.530   4.875 -0.9584 -0.3820  0.5784
   7723SM  C19F10241   0.226   3.636   4.704  0.0220  0.4218  0.0876
   7723SM  H19F10242   0.313   3.611   4.639  0.8457  0.3146  1.2171
   7723SM  H19G10243   0.248   3.740   4.736 -1.9937  1.1643 -0.8002
   7723SM  C20F10244   0.093   3.636   4.631  0.3409  0.2621  0.2206
   7723SM  H20F10245   0.012   3.680   4.693 -0.9571  0.3784 -1.4765
   7723SM  H20G10246   0.061   3.533   4.604 -1.5587  1.2324 -1.5250
   7723SM  C21F10247   0.094   3.724   4.503  0.1924 -0.7866  0.2195
   7723SM  H21F10248   0.172   3.678   4.438  1.1160 -0.2076  0.8904
   7723SM  H21G10249   0.116   3.832   4.520  0.1184 -0.4164 -1.7169
   7723SM  C22F10250  -0.045   3.731   4.429 -0.6645 -0.3145 -0.2638
   7723SM  H22F10251  -0.074   3.628   4.397 -1.3004 -0.4064  0.5764
   7723SM  H22G10252  -0.014   3.791   4.341  1.9206  1.3232  1.5928
   7723SM  C23F10253  -0.155   3.798   4.511 -0.0372 -0.3413 -0.5077
   7723SM  H23F10254  -0.182   3.741   4.602 -0.3758  0.1528 -0.2954
   7723SM  H23G10255  -0.252   3.813   4.459 -1.1365  2.1237  2.0014
   7723SM  H23H10256  -0.119   3.899   4.538 -0.6714 -0.8341  2.5086
   7823SM     N10257   1.079   6.655   7.318 -0.0632  0.3205 -0.1195
   7823SM   C1510258   0.981   6.677   7.434 -0.3491 -0.0146  0.5359
   7823SM  H15A10259   0.883   6.633   7.418 -0.6339 -0.2154  2.5649
   7823SM  H15B10260   0.965   6.783   7.450 -1.1267  0.3312 -2.0589
   7823SM  H15C10261   1.019   6.632   7.525 -0.7165 -1.3635  0.0482
   7823SM   C1410262   1.074   6.507   7.294 -0.1610  0.1250 -0.3432
   7823SM  H14A10263   1.111   6.451   7.379  2.3276  1.2168 -0.6216
   7823SM  H14B10264   1.148   6.494   7.217 -0.2283  0.5583 -0.4894
   7823SM  H14C10265   0.974   6.481   7.263 -0.7709  2.4236 -0.5518
   7823SM   C1310266   1.016   6.717   7.191  0.2498 -0.1415  0.4489
   7823SM  H13A10267   1.089   6.697   7.113 -2.0363 -0.6866 -1.6930
   7823SM  H13B10268   0.999   6.823   7.197 -0.6086 -0.1986 -0.6482
   7823SM  H13C10269   0.926   6.662   7.169  0.4062 -1.0609  1.9440
   7823SM   C1210270   1.215   6.721   7.347 -1.2528  0.2575 -0.0180
   7823SM  H12A10271   1.245   6.670   7.437 -0.1019  0.6240 -0.1803
   7823SM  H12B10272   1.211   6.828   7.359  1.8437  0.2973  1.5515
   7823SM   C1110273   1.329   6.712   7.240  0.2879 -0.4987  0.2306
   7823SM  H11A10274   1.327   6.609   7.199  1.6601 -0.1322 -0.8631
   7823SM  H11B10275   1.431   6.724   7.283  0.5484 -2.7307  0.3279
   7823SM     P10276   1.347   6.960   7.154  0.3898 -0.0112 -0.0703
   7823SM   O1310277   1.269   7.018   7.272  0.2756 -0.3473  0.5798
   7823SM   O1410278   1.498   6.969   7.149  0.4478 -0.7380  0.5020
   7823SM   O1110279   1.281   7.025   7.015 -0.0884  0.4282 -0.5253
   7823SM   O1210280   1.306   6.806   7.136  0.0863  0.1063  0.0621
   7823SM   C1S10281   1.149   6.997   6.972 -0.0417  0.2261 -0.9123
   7823SM   H1S10282   1.075   7.054   7.033  0.2384 -2.3456  2.1520
   7823SM   H1T10283   1.127   6.890   6.994  1.2597 -0.0845 -1.0393
   7823SM    NF10284   0.998   6.965   6.782 -0.0016  0.0558  0.0477
   7823SM   HNF10285   0.982   6.868   6.765 -2.5763 -0.0131  2.2840
   7823SM   C2S10286   1.136   6.998   6.817 -0.5939  0.3885  0.1828
   7823SM   H2S10287   1.157   7.104   6.792 -1.2399  1.1431  2.6001
   7823SM   C3S10288   1.238   6.903   6.756  0.7550  0.4640 -0.8514
   7823SM   H3S10289   1.201   6.806   6.797  0.3698  0.7894 -0.4094
   7823SM    O310290   1.374   6.927   6.793  0.2062  0.3197  0.9652
   7823SM   HO310291   1.365   6.990   6.864  0.1752  1.7939 -0.3020
   7823SM   C4S10292   1.210   6.902   6.607 -0.7163  0.8639 -0.0275
   7823SM   H4S10293   1.229   6.999   6.558 -0.3337  0.9986  0.3871
   7823SM   C5S10294   1.187   6.787   6.540 -0.5076 -0.5504 -0.4273
   7823SM   H5S10295   1.193   6.697   6.603 -0.7738 -0.7580 -0.6965
   7823SM   C6S10296   1.154   6.753   6.396 -0.3660  0.0210 -0.3401
   7823SM   H6S10297   1.100   6.657   6.386  0.3396 -0.4962  0.6081
   7823SM   H6T10298   1.250   6.732   6.343 -1.6090 -1.7046 -2.0603
   7823SM   C7S10299   1.084   6.872   6.321  0.3313 -0.2736 -0.4390
   7823SM   H7S10300   1.153   6.957   6.341 -0.5321 -0.2059  2.7077
   7823SM   H7T10301   0.989   6.900   6.370  0.4552  1.4107 -1.0863
   7823SM   C8S10302   1.070   6.846   6.176  0.3284 -0.1252 -0.5747
   7823SM   H8S10303   1.045   6.946   6.136  0.1817  0.2553  0.4398
   7823SM   H8T10304   0.985   6.776   6.161 -0.7922  1.0590  0.0494
   7823SM   C9S10305   1.198   6.822   6.097 -0.0446  0.1525 -0.8285
   7823SM   H9S10306   1.229   6.716   6.094 -0.6897 -0.0226 -1.8536
   7823SM   H9T10307   1.276   6.890   6.139  0.2416 -0.1703 -0.8374
   7823SM  C10S10308   1.184   6.850   5.947 -0.4499  0.5658 -0.0229
   7823SM  H10S10309   1.288   6.844   5.909 -0.6031  1.2291 -0.5575
   7823SM  H10T10310   1.149   6.955   5.949 -0.6339  0.5247 -0.8174
   7823SM  C11S10311   1.084   6.755   5.869 -0.0591  0.3660 -0.1266
   7823SM  H11S10312   0.980   6.777   5.903 -1.3988  0.8329 -3.9478
   7823SM  H11T10313   1.114   6.648   5.867 -0.9863  0.0717  0.6980
   7823SM  C12S10314   1.089   6.782   5.715  0.6940 -0.1603 -0.2391
   7823SM  H12S10315   1.194   6.786   5.680  1.0246  1.1791  0.7997
   7823SM  H12T10316   1.051   6.886   5.705 -0.5332 -0.5352  0.3182
   7823SM  C13S10317   0.998   6.690   5.639 -0.8719 -0.4202 -0.8585
   7823SM  H13S10318   0.890   6.706   5.659 -0.1372 -0.0887  3.9901
   7823SM  H13T10319   1.018   6.588   5.679  1.0131  1.3088  3.1486
   7823SM  C14S10320   1.034   6.687   5.491 -0.3854  0.7245 -0.3164
   7823SM  H14S10321   0.967   6.618   5.434 -1.7408  1.3573  0.4410
   7823SM  H14T10322   1.134   6.642   5.479 -1.4212 -1.8106 -0.1263
   7823SM  C15S10323   1.027   6.817   5.420 -0.3222  0.1807  0.4969
   7823SM  H15S10324   1.048   6.908   5.479 -0.9703  1.5857 -1.3223
   7823SM  H15T10325   0.922   6.831   5.384 -0.1727  0.7036  0.2541
   7823SM  C16S10326   1.103   6.796   5.288  0.2916 -0.0463 -0.5330
   7823SM  H16S10327   1.078   6.700   5.237 -0.4880  0.0033 -0.2615
   7823SM  H16T10328   1.211   6.804   5.312 -0.1421  0.2008  1.6278
   7823SM  C17S10329   1.065   6.902   5.182  0.5047 -0.1281 -0.3176
   7823SM  H17S10330   1.071   7.006   5.220  0.2483 -0.3040  0.2035
   7823SM  H17T10331   0.957   6.893   5.161  0.4459  1.1955 -0.7104
   7823SM  C18S10332   1.130   6.888   5.045  0.1109 -0.2252  0.4381
   7823SM  H18S10333   1.239   6.869   5.055  0.0882 -0.3214  0.5062
   7823SM  H18T10334   1.116   6.984   4.992 -2.4010  0.5284  2.2595
   7823SM  H18U10335   1.078   6.809   4.987  2.6424 -2.4414  1.0012
   7823SM   C1F10336   0.906   7.054   6.814 -0.7121  0.1297  0.3765
   7823SM    OF10337   0.937   7.169   6.844 -0.2735  0.9385 -0.4069
   7823SM   C2F10338   0.767   7.013   6.816  0.2894  0.0220  0.1734
   7823SM   H2F10339   0.732   7.013   6.921 -0.2967 -2.6735  0.0547
   7823SM   H2G10340   0.754   6.913   6.769 -1.6603 -0.2422  1.1683
   7823SM   C3F10341   0.670   7.110   6.748 -0.0812 -0.7053  0.5839
   7823SM   H3F10342   0.696   7.213   6.781  0.8837 -0.7763  0.0825
   7823SM   H3G10343   0.568   7.077   6.776  0.4895 -2.8719  0.3254
   7823SM   C4F10344   0.676   7.110   6.592  0.2415 -0.5109  0.4411
   7823SM   H4F10345   0.781   7.095   6.558 -0.5062  1.6835 -3.5377
   7823SM   H4G10346   0.652   7.213   6.558  2.5351 -0.0062  0.1893
   7823SM   C5F10347   0.583   7.008   6.528 -0.1876  0.8083 -0.2693
   7823SM   H5F10348   0.481   7.042   6.554  0.0165  1.2181  0.0151
   7823SM   H5G10349   0.592   6.906   6.570 -2.8097  0.9344  0.7593
   7823SM   C6F10350   0.602   7.004   6.372  0.2849  0.1303 -0.1422
   7823SM   H6F10351   0.707   6.974   6.353 -0.1499 -0.7058 -1.3253
   7823SM   H6G10352   0.588   7.104   6.325 -0.1512 -0.6006 -1.6088
   7823SM   C7F10353   0.504   6.903   6.301 -0.2349  0.6671 -0.6563
   7823SM   H7F10354   0.396   6.928   6.311 -0.2858  1.0030 -1.9012
   7823SM   H7G10355   0.519   6.803   6.346  0.5839  0.0015 -2.3568
   7823SM   C8F10356   0.523   6.904   6.153  0.4925  0.0639 -0.1058
   7823SM   H8F10357   0.630   6.893   6.128  0.3696  0.3121 -0.7637
   7823SM   H8G10358   0.484   6.995   6.101  0.1219 -0.3658 -0.5878
   7823SM   C9F10359   0.444   6.791   6.089 -0.4166 -0.2042  0.1537
   7823SM   H9F10360   0.337   6.821   6.098 -0.0373  1.2879 -0.0420
   7823SM   H9G10361   0.463   6.702   6.153 -1.3892  1.1681  2.4740
   7823SM  C10F10362   0.491   6.770   5.946  0.1876  0.1677  0.3484
   7823SM  H10F10363   0.600   6.754   5.958  1.0835  3.4889 -2.0449
   7823SM  H10G10364   0.471   6.862   5.888 -1.6942 -0.3410  0.1155
   7823SM  C11F10365   0.416   6.654   5.872  0.6221 -0.2074 -0.1880
   7823SM  H11F10366   0.308   6.679   5.884  0.1805  0.4455 -4.1413
   7823SM  H11G10367   0.423   6.556   5.925 -2.3715 -1.2269 -1.4308
   7823SM  C12F10368   0.458   6.621   5.726 -0.4199  0.1068 -0.3896
   7823SM  H12F10369   0.432   6.521   5.684 -0.3170  0.9336 -2.5263
   7823SM  H12G10370   0.569   6.629   5.729 -0.4564  0.3847  1.3208
   7823SM  C13F10371   0.424   6.728   5.626 -0.0709  0.1446 -0.0634
   7823SM  H13F10372   0.469   6.826   5.652 -1.0494  0.3458  0.9475
   7823SM  H13G10373   0.318   6.760   5.629  0.0589  0.7225 -1.0972
   7823SM  C14F10374   0.453   6.674   5.484  0.4365 -0.5811 -0.5393
   7823SM  H14F10375   0.393   6.581   5.475 -2.0732  0.5459  2.7456
   7823SM  H14G10376   0.562   6.654   5.484  0.8619  1.3932 -2.6930
   7823SM  C15F10377   0.411   6.770   5.368 -0.8841  0.0436  1.0467
   7823SM  H15F10378   0.493   6.845   5.367  1.1159 -2.0447  0.5754
   7823SM  H15G10379   0.321   6.831   5.390  0.1310  1.1851  2.2243
   7823SM  C16F10380   0.393   6.684   5.242 -0.1354  0.0247  0.3358
   7823SM  H16F10381   0.293   6.640   5.260 -1.2810  3.2354  2.6965
   7823SM  H16G10382   0.469   6.603   5.230 -0.1767  0.0171  0.1135
   7823SM  C17F10383   0.398   6.769   5.111 -0.4807 -0.5275  0.9529
   7823SM  H17F10384   0.504   6.799   5.101 -0.4536 -0.9759 -0.3484
   7823SM  H17G10385   0.345   6.864   5.133  1.1099  0.0133  2.6780
   7823SM  C18F10386   0.354   6.705   4.980  0.1078 -0.2404  0.0269
   7823SM  H18F10387   0.361   6.783   4.901 -1.4522  0.7815  0.8602
   7823SM  H18G10388   0.250   6.681   5.007  0.3445  0.5246  1.7740
   7823SM  C19F10389   0.436   6.583   4.942  0.5340  0.0672 -0.8244
   7823SM  H19F10390   0.444   6.504   5.020  1.9992  0.9622 -0.0281
   7823SM  H19G10391   0.540   6.618   4.928 -0.5500  2.7347 -3.3482
   7823SM  C20F10392   0.387   6.523   4.806  1.1719  0.3113 -0.0648
   7823SM  H20F10393   0.458   6.443   4.777 -1.5554 -2.3423  0.0725
   7823SM  H20G10394   0.381   6.587   4.715 -2.1040  0.1440 -0.1043
   7823SM  C21F10395   0.245   6.459   4.811 -0.3417 -0.4474 -0.7350
   7823SM  H21F10396   0.171   6.542   4.812 -0.6474 -0.6721  1.5331
   7823SM  H21G10397   0.235   6.400   4.905 -1.0384 -0.4212 -0.7889
   7823SM  C22F10398   0.230   6.373   4.687 -0.1403  0.2515 -0.6744
   7823SM  H22F10399   0.298   6.286   4.701 -0.0669  0.2580 -0.9709
   7823SM  H22G10400   0.270   6.420   4.594  1.4035 -1.9057 -1.1924
   7823SM  C23F10401   0.086   6.336   4.673  0.1558 -0.2351 -0.1873
   7823SM  H23F10402   0.077   6.259   4.594  0.3518 -0.2728 -0.1728
   7823SM  H23G10403   0.016   6.418   4.645 -0.5584 -0.8338 -0.1857
   7823SM  H23H10404   0.042   6.292   4.765  3.0911 -0.2846  1.3130
   7923SM     N10405   0.017   0.548   7.403 -0.0881  0.1330  0.0691
   7923SM   C1510406  -0.090   0.628   7.470  0.2093 -0.3885 -0.5718
   7923SM  H15A10407  -0.153   0.677   7.398  1.1076 -0.4740 -1.4335
   7923SM  H15B10408  -0.045   0.705   7.530 -0.9670 -1.5603  1.9961
   7923SM  H15C10409  -0.157   0.572   7.533 -0.0815  0.3495 -0.2162
   7923SM   C1410410   0.084   0.641   7.318 -0.5575  0.1630  0.0166
   7923SM  H14A10411   0.173   0.605   7.267 -1.0663 -1.0353 -0.0464
   7923SM  H14B10412   0.118   0.726   7.376  2.1789 -0.7406 -0.1051
   7923SM  H14C10413   0.023   0.668   7.233 -0.6381  0.5013  0.1788
   7923SM   C1310414   0.104   0.489   7.509 -0.2609  0.2738  0.8339
   7923SM  H13A10415   0.064   0.409   7.568 -0.5176  0.7813  1.3582
   7923SM  H13B10416   0.149   0.569   7.568  1.3662 -1.7737  2.5273
   7923SM  H13C10417   0.185   0.434   7.463 -1.0235 -1.1129  1.1130
   7923SM   C1210418  -0.037   0.434   7.319  0.3575 -0.7027 -0.4231
   7923SM  H12A10419  -0.108   0.376   7.375 -0.7277  1.3195  0.3626
   7923SM  H12B10420   0.050   0.374   7.293  0.7439 -0.7028  0.8165
   7923SM   C1110421  -0.112   0.479   7.185 -0.0143 -0.7457  0.1828
   7923SM  H11A10422  -0.124   0.388   7.123 -1.0324  1.1188 -2.5917
   7923SM  H11B10423  -0.044   0.543   7.124  0.6223 -1.1556  0.4525
   7923SM     P10424  -0.365   0.474   7.255 -0.3834  0.0856  0.0270
   7923SM   O1310425  -0.324   0.377   7.364  0.0065 -0.1335 -0.1547
   7923SM   O1410426  -0.468   0.567   7.293  0.0045 -0.8749 -0.4092
   7923SM   O1110427  -0.409   0.388   7.128 -0.4874 -0.2975  0.7413
   7923SM   O1210428  -0.241   0.550   7.202 -0.3223  0.0097 -0.0513
   7923SM   C1S10429  -0.475   0.466   7.019  0.3918 -0.2744 -0.7717
   7923SM   H1S10430  -0.482   0.574   7.043  0.1811 -0.5132  0.3001
   7923SM   H1T10431  -0.584   0.441   7.020  1.0132 -3.5616  1.9282
   7923SM    NF10432  -0.514   0.472   6.778 -0.3640 -0.0819 -0.5557
   7923SM   HNF10433  -0.562   0.396   6.733  0.0304 -0.8579  0.3159
   7923SM   C2S10434  -0.421   0.429   6.876 -1.1700 -0.0197  0.1201
   7923SM   H2S10435  -0.321   0.477   6.861 -0.0573 -1.5719  2.0754
   7923SM   C3S10436  -0.386   0.282   6.867 -0.0577  0.2344 -0.7385
   7923SM   H3S10437  -0.475   0.220   6.892  0.2870  0.5576  1.4710
   7923SM    O310438  -0.288   0.238   6.965 -0.2000 -0.0439 -0.1128
   7923SM   HO310439  -0.327   0.282   7.041 -4.9998 -0.8585 -1.7446
   7923SM   C4S10440  -0.324   0.252   6.732 -0.1664 -0.0343  1.0438
   7923SM   H4S10441  -0.235   0.316   6.720 -1.1839  0.9358 -2.2975
   7923SM   C5S10442  -0.361   0.164   6.635 -0.1592  0.1828 -0.6880
   7923SM   H5S10443  -0.455   0.108   6.643  0.8738 -1.8373 -1.9721
   7923SM   C6S10444  -0.281   0.138   6.511  0.0177 -0.6331 -0.6726
   7923SM   H6S10445  -0.181   0.177   6.539 -0.5466  0.4951 -0.1408
   7923SM   H6T10446  -0.315   0.194   6.421 -1.0779  0.3740  0.3399
   7923SM   C7S10447  -0.280  -0.015   6.482  0.2141 -0.3397 -0.0513
   7923SM   H7S10448  -0.384  -0.050   6.461 -0.2905  0.7795  0.4638
   7923SM   H7T10449  -0.238  -0.070   6.570  0.2672 -1.0702 -0.5254
   7923SM   C8S10450  -0.192  -0.059   6.362  0.3925 -0.0353  0.0142
   7923SM   H8S10451  -0.163  -0.165   6.374  0.0277  0.0643  2.3373
   7923SM   H8T10452  -0.100   0.002   6.379  0.4555 -0.2351  0.4034
   7923SM   C9S10453  -0.253  -0.018   6.225  0.2539 -0.5970 -0.5451
   7923SM   H9S10454  -0.310   0.078   6.220  0.2791 -0.5063  0.7614
   7923SM   H9T10455  -0.322  -0.099   6.192  0.1283 -0.5765 -0.3314
   7923SM  C10S10456  -0.148  -0.008   6.124 -0.1990 -0.4650  0.5643
   7923SM  H10S10457  -0.073  -0.089   6.133  0.9111  0.2730 -1.4599
   7923SM  H10T10458  -0.098   0.091   6.133  0.4319 -0.6618 -0.5679
   7923SM  C11S10459  -0.188   0.004   5.973 -0.5398  0.0365  0.0451
   7923SM  H11S10460  -0.287   0.054   5.972  0.2785  1.7254  0.3078
   7923SM  H11T10461  -0.209  -0.093   5.924 -1.4661 -0.1159  0.7347
   7923SM  C12S10462  -0.077   0.078   5.897 -0.3963  0.1869  0.1094
   7923SM  H12S10463   0.026   0.038   5.904 -0.1979  0.2245 -1.9080
   7923SM  H12T10464  -0.074   0.183   5.935 -1.1679  0.5337 -0.7323
   7923SM  C13S10465  -0.105   0.100   5.748  0.6542 -0.5355  0.0906
   7923SM  H13S10466  -0.018   0.144   5.696  0.1000  0.5553  0.0603
   7923SM  H13T10467  -0.191   0.171   5.752  0.3702 -0.9138  1.3055
   7923SM  C14S10468  -0.156  -0.024   5.675  0.4635  0.7052  0.5161
   7923SM  H14S10469  -0.259  -0.056   5.702  1.0655 -0.7273  1.2875
   7923SM  H14T10470  -0.094  -0.114   5.696 -1.4162 -0.6334  0.5482
   7923SM  C15S10471  -0.138   0.016   5.524 -0.5199  0.5820  0.6044
   7923SM  H15S10472  -0.029   0.026   5.506 -0.6426 -1.5223 -1.8138
   7923SM  H15T10473  -0.175   0.120   5.512  1.2569  1.3388  1.3216
   7923SM  C16S10474  -0.206  -0.083   5.430 -0.0928 -0.2553 -0.5635
   7923SM  H16S10475  -0.316  -0.071   5.444  0.0888 -1.0525  2.1584
   7923SM  H16T10476  -0.181  -0.183   5.471  0.5935  0.3047  0.4067
   7923SM  C17S10477  -0.178  -0.059   5.274 -0.9092  0.5153 -0.0504
   7923SM  H17S10478  -0.244   0.021   5.237 -0.6024  0.8720  0.1658
   7923SM  H17T10479  -0.215  -0.147   5.217  0.2038 -0.3897  0.5562
   7923SM  C18S10480  -0.038  -0.033   5.216  0.3307  0.1759  0.4325
   7923SM  H18S10481  -0.044   0.015   5.116  0.7169 -1.5322 -0.4521
   7923SM  H18T10482   0.014  -0.130   5.203 -1.2221 -0.7869  1.1849
   7923SM  H18U10483   0.022   0.021   5.293 -0.3667 -0.6139  1.5457
   7923SM   C1F10484  -0.542   0.598   6.746  0.4664 -0.0530  0.3594
   7923SM    OF10485  -0.480   0.695   6.791 -0.8061  0.5197 -0.3992
   7923SM   C2F10486  -0.661   0.610   6.661 -0.9533 -0.1212 -0.1481
   7923SM   H2F10487  -0.750   0.597   6.726 -1.1723 -3.2328 -0.9218
   7923SM   H2G10488  -0.669   0.533   6.582  2.0033 -0.8418  0.1378
   7923SM   C3F10489  -0.658   0.749   6.592 -0.0593 -0.1911  0.2133
   7923SM   H3F10490  -0.571   0.753   6.523  0.7294  2.6777  1.2073
   7923SM   H3G10491  -0.633   0.825   6.670  0.9668 -1.6543  1.3731
   7923SM   C4F10492  -0.774   0.776   6.496  0.4069  0.1599  0.0535
   7923SM   H4F10493  -0.755   0.881   6.464  0.5762 -0.0608 -0.5803
   7923SM   H4G10494  -0.872   0.765   6.548 -0.6191  0.8660 -1.6418
   7923SM   C5F10495  -0.769   0.694   6.370  0.5723 -0.5405 -0.0575
   7923SM   H5F10496  -0.793   0.588   6.393 -1.1221 -0.2492 -0.3246
   7923SM   H5G10497  -0.673   0.695   6.314  0.2864 -1.2288 -0.5790
   7923SM   C6F10498  -0.883   0.731   6.269 -0.3720 -0.2981  0.2370
   7923SM   H6F10499  -0.873   0.834   6.227 -0.1598 -0.3740  0.0967
   7923SM   H6G10500  -0.987   0.732   6.309 -1.9447  2.1224 -3.3748
   7923SM   C7F10501  -0.866   0.656   6.141 -0.1388 -0.5030  0.1954
   7923SM   H7F10502  -0.866   0.547   6.161  1.8836 -0.4385  0.7564
   7923SM   H7G10503  -0.773   0.681   6.085 -1.0280  3.3589  0.1694
   7923SM   C8F10504  -0.986   0.670   6.055  1.0965  0.7736  0.7818
   7923SM   H8F10505  -0.979   0.773   6.014  1.1361 -0.0071 -1.3110
   7923SM   H8G10506  -1.083   0.670   6.108 -0.2704 -1.3446 -1.4801
   7923SM   C9F10507  -0.992   0.568   5.944 -0.1912 -0.2621  0.0458
   7923SM   H9F10508  -1.022   0.476   5.998  1.1773 -0.7051  0.0990
   7923SM   H9G10509  -0.891   0.549   5.901 -0.0714 -0.6088  0.4781
   7923SM  C10F10510  -1.089   0.599   5.837 -0.5618  0.4353 -0.1553
   7923SM  H10F10511  -1.061   0.696   5.791  0.4521 -0.0952 -0.6844
   7923SM  H10G10512  -1.183   0.617   5.894  0.5404  1.0703  1.5201
   7923SM  C11F10513  -1.099   0.485   5.731 -0.6273 -0.8805 -0.4184
   7923SM  H11F10514  -1.101   0.394   5.794 -1.6005  0.0129  0.8820
   7923SM  H11G10515  -0.998   0.485   5.684 -0.2481  2.9209  0.0616
   7923SM  C12F10516  -1.212   0.500   5.633 -0.5222  0.5769  0.5473
   7923SM  H12F10517  -1.184   0.582   5.565 -1.1980  0.9050  0.6584
   7923SM  H12G10518  -1.302   0.528   5.693 -0.8649 -1.5359  1.1402
   7923SM  C13F10519  -1.235   0.373   5.551  0.2826 -0.7458  0.6559
   7923SM  H13F10520  -1.242   0.283   5.614 -0.5230 -1.0998  0.0887
   7923SM  H13G10521  -1.144   0.354   5.491  0.6847 -0.5295  1.1921
   7923SM  C14F10522  -1.366   0.389   5.471 -0.6553  0.2140  0.1534
   7923SM  H14F10523  -1.352   0.315   5.389  2.2243 -1.6890  2.1583
   7923SM  H14G10524  -1.370   0.492   5.432 -1.5044  0.3221  0.4973
   7923SM  C15F10525  -1.494   0.366   5.548 -0.3387 -0.1090  0.2458
   7923SM  H15F10526  -1.577   0.383   5.477 -2.7352  0.8754  3.0868
   7923SM  H15G10527  -1.502   0.448   5.623 -0.2564  1.1198 -1.0592
   7923SM  C16F10528  -1.503   0.225   5.614 -0.9116  0.1649 -0.2213
   7923SM  H16F10529  -1.415   0.208   5.680 -2.7611  1.8979  2.9111
   7923SM  H16G10530  -1.492   0.140   5.543  0.5607 -1.4320  1.7827
   7923SM  C17F10531  -1.605   0.191   5.720  0.0523 -0.7550 -0.3430
   7923SM  H17F10532  -1.611   0.080   5.729 -0.9603 -0.8968 -2.1588
   7923SM  H17G10533  -1.702   0.229   5.679  1.3732  2.6403 -0.5876
   7923SM  C18F10534  -1.579   0.264   5.852 -0.3746 -0.1232  0.8719
   7923SM  H18F10535  -1.547   0.369   5.831  1.8950 -0.6157  1.5315
   7923SM  H18G10536  -1.494   0.227   5.913  1.6636  0.4819 -1.3969
   7923SM  C19F10537  -1.703   0.248   5.945 -0.4312 -0.3622 -0.2944
   7923SM  H19F10538  -1.737   0.142   5.952  1.6112 -0.9445  2.5357
   7923SM  H19G10539  -1.786   0.308   5.901 -0.7314 -0.9259 -0.5060
   7923SM  C20F10540  -1.674   0.294   6.084  0.8057  0.2212 -0.2202
   7923SM  H20F10541  -1.635   0.397   6.076 -0.2643  0.7222  0.7740
   7923SM  H20G10542  -1.604   0.220   6.129  0.5931 -0.2390 -0.6308
   7923SM  C21F10543  -1.795   0.303   6.175  0.2275 -0.2695  0.6141
   7923SM  H21F10544  -1.770   0.362   6.266 -0.5218  2.6487 -0.9528
   7923SM  H21G10545  -1.831   0.201   6.198  0.2756 -1.0139 -2.2323
   7923SM  C22F10546  -1.920   0.374   6.114  0.1683 -0.0673  0.7902
   7923SM  H22F10547  -1.978   0.315   6.039 -1.3850  0.0838  1.8457
   7923SM  H22G10548  -1.879   0.459   6.055 -3.0976  1.0261 -0.0854
   7923SM  C23F10549  -2.014   0.426   6.220  0.0587  0.4645 -0.1575
   7923SM  H23F10550  -2.028   0.353   6.303  1.1022  0.4091 -0.0075
   7923SM  H23G10551  -2.116   0.446   6.181 -0.1543  1.4493  0.8496
   7923SM  H23H10552  -1.981   0.521   6.267 -1.1058 -0.4462  2.7288
   8023SM     N10553   1.257   7.380   7.222 -0.0362  0.3716 -0.5670
   8023SM   C1510554   1.275   7.344   7.077  0.2510 -0.7402  0.1936
   8023SM  H15A10555   1.361   7.395   7.036 -0.0921  0.1667  0.5986
   8023SM  H15B10556   1.191   7.387   7.026  0.0802  0.5027  1.4872
   8023SM  H15C10557   1.266   7.238   7.058  0.7912 -0.5236 -1.4555
   8023SM   C1410558   1.128   7.319   7.268  0.0581 -0.5260 -0.2389
   8023SM  H14A10559   1.041   7.358   7.219 -0.8468 -0.3888  1.4002
   8023SM  H14B10560   1.119   7.336   7.374  0.8539  2.6759 -0.5853
   8023SM  H14C10561   1.125   7.214   7.241 -0.2799  0.1637 -3.2631
   8023SM   C1310562   1.375   7.310   7.291  0.0261 -0.1770 -0.1165
   8023SM  H13A10563   1.378   7.342   7.394  1.1642 -0.9088  0.0918
   8023SM  H13B10564   1.464   7.345   7.241  1.0681 -0.8544  1.2189
   8023SM  H13C10565   1.354   7.205   7.277 -0.3781  0.0115 -0.9946
   8023SM   C1210566   1.274   7.520   7.251  0.2316 -0.6366 -0.2972
   8023SM  H12A10567   1.268   7.542   7.357  0.1073 -0.0327 -0.4229
   8023SM  H12B10568   1.187   7.567   7.206  1.2016  1.8025  0.2279
   8023SM   C1110569   1.400   7.606   7.195  0.5478 -0.0285 -0.0516
   8023SM  H11A10570   1.492   7.558   7.234  1.4812  2.8390  1.5175
   8023SM  H11B10571   1.395   7.707   7.240  2.3630 -1.2381  3.1942
   8023SM     P10572   1.355   7.717   6.959  0.4540 -0.8118  0.5532
   8023SM   O1310573   1.430   7.845   6.984  0.6803  0.6240  0.4113
   8023SM   O1410574   1.358   7.668   6.819  0.5913 -0.5029 -0.0570
   8023SM   O1110575   1.211   7.744   7.010  0.2336  0.3335  0.1283
   8023SM   O1210576   1.413   7.609   7.051 -0.2430 -0.0201  0.0109
   8023SM   C1S10577   1.132   7.853   6.967 -0.6117  0.3823 -0.0464
   8023SM   H1S10578   1.187   7.915   6.893  2.0303 -2.1348 -0.3689
   8023SM   H1T10579   1.110   7.925   7.048 -0.2764 -0.2668  0.6400
   8023SM    NF10580   0.918   7.925   6.842  0.4212  0.2745  0.5220
   8023SM   HNF10581   0.836   7.951   6.893  1.3379 -0.5534  2.5284
   8023SM   C2S10582   0.995   7.813   6.896  0.2196  0.0242  0.0419
   8023SM   H2S10583   1.020   7.743   6.813  1.0405  0.4214 -0.0612
   8023SM   C3S10584   0.911   7.727   6.991  0.5927  0.5835  0.2990
   8023SM   H3S10585   0.882   7.786   7.080 -0.2915 -0.2437  0.5851
   8023SM    O310586   0.983   7.610   7.028 -0.4950 -0.0082 -0.2186
   8023SM   HO310587   1.072   7.644   7.022  0.2315 -1.3892  1.8774
   8023SM   C4S10588   0.785   7.683   6.919  0.7888 -0.7652 -0.2691
   8023SM   H4S10589   0.801   7.590   6.862 -0.4284 -2.0053  1.3143
   8023SM   C5S10590   0.659   7.734   6.925 -0.0305  0.5980 -0.4996
   8023SM   H5S10591   0.637   7.817   6.993 -0.9196 -0.3990  0.4630
   8023SM   C6S10592   0.539   7.676   6.844  0.5309 -0.9178  0.5740
   8023SM   H6S10593   0.502   7.760   6.782 -0.1639  0.0147  2.1760
   8023SM   H6T10594   0.449   7.665   6.909  0.1995  0.3838  0.3572
   8023SM   C7S10595   0.563   7.563   6.752  0.5440 -0.6688  0.3850
   8023SM   H7S10596   0.566   7.463   6.800  4.2850 -0.1744  1.4975
   8023SM   H7T10597   0.651   7.593   6.690 -0.9501 -0.9036 -1.9702
   8023SM   C8S10598   0.453   7.549   6.655 -0.2733  0.5052  0.0482
   8023SM   H8S10599   0.353   7.560   6.701 -0.6654 -1.3193 -0.2790
   8023SM   H8T10600   0.455   7.450   6.604 -0.1438  0.8848 -0.6924
   8023SM   C9S10601   0.461   7.645   6.534  0.2639  0.0181  0.0471
   8023SM   H9S10602   0.556   7.632   6.479  0.6726  0.3709  0.6618
   8023SM   H9T10603   0.453   7.752   6.565  1.6845  0.3890 -0.7866
   8023SM  C10S10604   0.345   7.616   6.430 -0.0202 -0.2854 -0.4709
   8023SM  H10S10605   0.260   7.677   6.468  1.9251  0.8541  2.3533
   8023SM  H10T10606   0.323   7.507   6.435 -1.2173 -0.0001  2.4026
   8023SM  C11S10607   0.372   7.652   6.277 -0.1948  0.0591 -0.3589
   8023SM  H11S10608   0.458   7.587   6.250 -1.2468 -1.2839 -0.5577
   8023SM  H11T10609   0.409   7.756   6.267  1.5280 -0.6104 -1.3885
   8023SM  C12S10610   0.249   7.647   6.194  0.3265  0.9338 -0.0639
   8023SM  H12S10611   0.169   7.709   6.240  1.3232  2.4250 -0.2928
   8023SM  H12T10612   0.210   7.544   6.210  0.3613  1.2184  2.1361
   8023SM  C13S10613   0.263   7.701   6.054 -0.3181 -0.7897 -0.0753
   8023SM  H13S10614   0.296   7.807   6.057  0.9163 -0.9928 -2.9551
   8023SM  H13T10615   0.165   7.701   6.003  0.6738 -1.8276 -2.1067
   8023SM  C14S10616   0.364   7.615   5.979 -0.2874  0.1265  0.6390
   8023SM  H14S10617   0.337   7.508   5.989 -0.7417  0.3763  2.4745
   8023SM  H14T10618   0.459   7.621   6.036  0.9179 -1.0190 -1.1377
   8023SM  C15S10619   0.395   7.654   5.834  0.6174  0.3794  0.1359
   8023SM  H15S10620   0.480   7.591   5.799 -1.9990 -2.8509 -1.0032
   8023SM  H15T10621   0.421   7.762   5.839 -1.5446  0.9810 -0.5379
   8023SM  C16S10622   0.289   7.625   5.727  0.2279 -0.7536  0.5632
   8023SM  H16S10623   0.189   7.672   5.739  0.7020 -0.0319  1.9565
   8023SM  H16T10624   0.258   7.518   5.736 -2.8658 -0.2538 -2.0874
   8023SM  C17S10625   0.323   7.650   5.580  0.5024 -0.1471  0.1319
   8023SM  H17S10626   0.262   7.582   5.517 -0.2002  2.2951 -1.9868
   8023SM  H17T10627   0.431   7.623   5.573  0.7203  0.0762  2.0235
   8023SM  C18S10628   0.291   7.788   5.527 -0.0187 -0.2392 -0.4764
   8023SM  H18S10629   0.340   7.865   5.591 -0.1529 -1.5775  1.3111
   8023SM  H18T10630   0.183   7.814   5.528  0.6330  2.8562  0.8027
   8023SM  H18U10631   0.328   7.802   5.423 -1.7261  1.4856 -0.9176
   8023SM   C1F10632   0.964   7.992   6.736 -0.6247 -0.4941  0.0816
   8023SM    OF10633   1.078   7.967   6.693  0.0749  0.4016  0.1534
   8023SM   C2F10634   0.884   8.100   6.670  0.2094  1.0013 -0.4007
   8023SM   H2F10635   0.945   8.192   6.662 -0.0375  1.2832  0.8384
   8023SM   H2G10636   0.798   8.122   6.736 -0.2303 -0.5265 -0.4147
   8023SM   C3F10637   0.837   8.051   6.536 -0.5087  0.2754  0.3431
   8023SM   H3F10638   0.926   8.025   6.475 -0.3431 -0.2316  0.7937
   8023SM   H3G10639   0.778   8.128   6.482  0.0017  0.8050  0.5402
   8023SM   C4F10640   0.763   7.915   6.530 -0.2834  0.0282  0.2130
   8023SM   H4F10641   0.661   7.934   6.570  0.5842  0.3601  2.4263
   8023SM   H4G10642   0.803   7.830   6.590  0.5027  0.7677  0.7542
   8023SM   C5F10643   0.778   7.848   6.388 -0.0045  0.4866  0.3022
   8023SM   H5F10644   0.724   7.751   6.392  1.4703 -0.3323  0.9605
   8023SM   H5G10645   0.885   7.826   6.371 -0.0306  0.1702  0.5448
   8023SM   C6F10646   0.726   7.930   6.270 -0.6068 -0.3179  0.1457
   8023SM   H6F10647   0.786   8.023   6.265 -0.0949 -0.6842 -0.8634
   8023SM   H6G10648   0.619   7.957   6.278 -0.7943 -0.0787 -2.2508
   8023SM   C7F10649   0.730   7.854   6.129 -0.5764 -0.1805  0.1013
   8023SM   H7F10650   0.703   7.915   6.040  0.0423 -2.2813 -1.6163
   8023SM   H7G10651   0.663   7.766   6.143 -1.4100  0.8241  3.3034
   8023SM   C8F10652   0.862   7.787   6.098  0.2095 -0.0989 -0.3071
   8023SM   H8F10653   0.878   7.718   6.183 -2.1036  0.8114  0.9743
   8023SM   H8G10654   0.946   7.860   6.095  0.7803 -0.5062  2.7228
   8023SM   C9F10655   0.854   7.696   5.973 -0.0993 -0.2504 -0.2199
   8023SM   H9F10656   0.787   7.610   5.991  0.2004 -0.3944  0.2570
   8023SM   H9G10657   0.959   7.661   5.964  0.5199  1.6219 -0.7460
   8023SM  C10F10658   0.836   7.774   5.837 -0.2439 -0.0554 -0.5371
   8023SM  H10F10659   0.922   7.844   5.826 -0.5708  0.2920 -0.9166
   8023SM  H10G10660   0.736   7.821   5.831  0.3336  1.2202 -0.4453
   8023SM  C11F10661   0.836   7.680   5.722  0.0752  0.2907  0.3264
   8023SM  H11F10662   0.744   7.617   5.719  0.4663 -0.2833 -2.2746
   8023SM  H11G10663   0.914   7.600   5.720 -0.8325 -0.6460 -1.8823
   8023SM  C12F10664   0.843   7.743   5.579 -0.0390 -0.5490 -0.2901
   8023SM  H12F10665   0.827   7.670   5.497  0.5548 -0.1089 -0.8126
   8023SM  H12G10666   0.943   7.790   5.567  0.0388 -1.0332 -1.6971
   8023SM  C13F10667   0.738   7.854   5.562  0.4933  1.1085 -0.2659
   8023SM  H13F10668   0.761   7.950   5.613  3.8168  0.7769 -0.9134
   8023SM  H13G10669   0.639   7.808   5.583  1.2264 -0.7347 -0.6575
   8023SM  C14F10670   0.734   7.901   5.417  0.5680 -0.2966  0.1073
   8023SM  H14F10671   0.665   7.987   5.402 -0.1896 -1.3697 -3.7155
   8023SM  H14G10672   0.701   7.815   5.355 -1.0726 -0.5054  1.1995
   8023SM  C15F10673   0.864   7.955   5.365 -0.2344 -0.6205 -0.1194
   8023SM  H15F10674   0.849   7.980   5.258 -0.8835 -0.3553  0.0277
   8023SM  H15G10675   0.946   7.879   5.368 -0.0774 -0.4491 -0.0195
   8023SM  C16F10676   0.913   8.091   5.420  0.6432  0.2149 -0.1185
   8023SM  H16F10677   0.918   8.089   5.531  0.8151 -2.2726 -0.1205
   8023SM  H16G10678   0.831   8.161   5.393  1.0797  0.2612 -1.4029
   8023SM  C17F10679   1.046   8.146   5.363 -0.0293 -0.2112 -0.1882
   8023SM  H17F10680   1.128   8.090   5.414  0.5458  1.9553  1.4197
   8023SM  H17G10681   1.055   8.250   5.400 -0.2548 -0.1377 -0.3421
   8023SM  C18F10682   1.052   8.148   5.208  0.5765 -0.3968  0.1981
   8023SM  H18F10683   0.979   8.223   5.170 -0.5130 -1.9514 -0.8828
   8023SM  H18G10684   1.035   8.049   5.160  0.2409 -0.0805 -0.3566
   8023SM  C19F10685   1.184   8.204   5.151  0.5292 -0.3047  0.0641
   8023SM  H19F10686   1.203   8.303   5.197 -0.1459 -0.1590  0.0382
   8023SM  H19G10687   1.181   8.220   5.041 -1.4699  1.9094  0.3525
   8023SM  C20F10688   1.311   8.134   5.200 -0.5064 -0.2989  0.0599
   8023SM  H20F10689   1.318   8.138   5.311 -0.2617 -0.3000  0.0434
   8023SM  H20G10690   1.391   8.203   5.165  0.1486  0.3476  2.6572
   8023SM  C21F10691   1.329   7.993   5.151  0.4548 -0.5245  0.3702
   8023SM  H21F10692   1.362   8.000   5.046 -0.5765 -0.8999  0.0089
   8023SM  H21G10693   1.236   7.933   5.158 -0.6781  1.0597 -0.5578
   8023SM  C22F10694   1.434   7.919   5.234  0.3240 -0.8750 -0.3343
   8023SM  H22F10695   1.385   7.901   5.332 -0.8744 -0.2568 -0.7998
   8023SM  H22G10696   1.531   7.968   5.256  0.3128 -1.5542  1.3864
   8023SM  C23F10697   1.468   7.778   5.182 -0.3558  0.4070  1.0861
   8023SM  H23F10698   1.371   7.724   5.171 -1.0253  1.8919 -0.9952
   8023SM  H23G10699   1.527   7.718   5.254 -0.7337  0.1512  1.1902
   8023SM  H23H10700   1.502   7.782   5.076 -2.2041  1.6484  0.4853
   8123SM     N10701   2.869   4.945   2.707 -0.0805 -0.3853 -0.2284
   8123SM   C1510702   2.800   4.815   2.706 -0.1437 -0.2597 -0.8809
   8123SM  H15A10703   2.802   4.760   2.613  0.3123 -0.0856 -0.9758
   8123SM  H15B10704   2.696   4.839   2.724  0.2289  0.4718  0.3964
   8123SM  H15C10705   2.832   4.759   2.793 -1.0925 -1.9881 -1.5852
   8123SM   C1410706   2.826   5.017   2.578  0.4108  0.3207  0.1864
   8123SM  H14A10707   2.862   4.958   2.495 -1.0852  0.1271 -0.3648
   8123SM  H14B10708   2.862   5.118   2.581 -0.4362  0.6056  1.7895
   8123SM  H14C10709   2.718   5.015   2.574  0.3594 -3.1123  0.1240
   8123SM   C1310710   2.827   5.018   2.828 -0.5068 -0.4946  0.0514
   8123SM  H13A10711   2.721   5.013   2.847 -0.2545  0.5978  1.9016
   8123SM  H13B10712   2.845   5.124   2.818 -2.1643 -0.3578 -2.1699
   8123SM  H13C10713   2.877   4.979   2.915  0.7114  0.2213 -0.3082
   8123SM   C1210714   3.021   4.927   2.710 -1.0039 -0.0433 -0.4982
   8123SM  H12A10715   3.072   5.018   2.683 -0.0420 -0.9494 -1.8514
   8123SM  H12B10716   3.058   4.857   2.637 -2.7590  0.5375 -2.0454
   8123SM   C1110717   3.078   4.894   2.851  0.0007  0.5879 -0.1317
   8123SM  H11A10718   3.178   4.849   2.837  0.0627  0.6103  0.2351
   8123SM  H11B10719   3.017   4.815   2.900 -0.7001  0.0787 -1.7463
   8123SM     P10720   3.218   5.100   2.942 -0.1497  0.4132 -0.0800
   8123SM   O1310721   3.277   5.109   2.806 -0.3977 -0.3077  0.2492
   8123SM   O1410722   3.181   5.225   3.019 -0.0210  0.1958  0.1492
   8123SM   O1110723   3.311   5.008   3.032  0.0088 -0.6254  0.1389
   8123SM   O1210724   3.090   5.006   2.941 -0.2661 -0.0584 -0.3258
   8123SM   C1S10725   3.413   5.073   3.110  0.1209 -0.5965 -0.1590
   8123SM   H1S10726   3.370   5.120   3.201  1.5721  1.2973 -0.3825
   8123SM   H1T10727   3.464   5.153   3.052  1.5284 -2.6518 -1.9220
   8123SM    NF10728   3.608   5.048   3.231 -0.6921  0.2117  0.2779
   8123SM   HNF10729   3.694   5.085   3.197  0.7029 -0.9064  2.3564
   8123SM   C2S10730   3.514   4.972   3.150 -0.1157  0.3694 -0.3165
   8123SM   H2S10731   3.457   4.894   3.205 -0.4797 -0.7168 -2.1607
   8123SM   C3S10732   3.582   4.910   3.027  0.3402  0.7871 -0.4057
   8123SM   H3S10733   3.631   4.990   2.967  1.2108  1.1469  0.7490
   8123SM    O310734   3.494   4.834   2.943  0.6270  0.1737  0.0459
   8123SM   HO310735   3.405   4.857   2.971  0.0009 -1.9718  0.0151
   8123SM   C4S10736   3.690   4.818   3.080 -0.3143  1.2957  0.4314
   8123SM   H4S10737   3.788   4.865   3.065  0.1507  0.0821 -0.4715
   8123SM   C5S10738   3.680   4.696   3.134  0.2791 -0.7142 -0.3953
   8123SM   H5S10739   3.586   4.642   3.154  1.4894 -2.0317  2.2346
   8123SM   C6S10740   3.793   4.607   3.182 -0.3650  0.6894 -0.2172
   8123SM   H6S10741   3.881   4.609   3.115 -1.2679 -1.2685 -1.5583
   8123SM   H6T10742   3.764   4.500   3.177 -1.4189  0.9430  0.0547
   8123SM   C7S10743   3.835   4.644   3.323 -0.3891 -0.6311 -0.0830
   8123SM   H7S10744   3.742   4.643   3.383  0.3120  1.1727  1.1079
   8123SM   H7T10745   3.873   4.748   3.318  0.1785 -0.8880 -2.0711
   8123SM   C8S10746   3.945   4.558   3.379 -0.0427 -0.3804 -0.2772
   8123SM   H8S10747   4.029   4.578   3.309 -0.0521  2.1111  0.3283
   8123SM   H8T10748   3.904   4.456   3.368 -0.7459 -0.2880  1.1958
   8123SM   C9S10749   3.987   4.582   3.524  0.1410  0.0331  0.0104
   8123SM   H9S10750   3.997   4.691   3.548  1.5349 -0.5008  2.1916
   8123SM   H9T10751   4.084   4.532   3.543 -0.2437 -0.9220 -0.4811
   8123SM  C10S10752   3.877   4.536   3.618 -0.5731 -0.9462  0.5433
   8123SM  H10S10753   3.858   4.427   3.620 -0.3366 -1.0406 -0.8747
   8123SM  H10T10754   3.789   4.588   3.574  1.8515  1.8226 -1.4401
   8123SM  C11S10755   3.902   4.581   3.764 -0.8074 -0.6615 -0.2927
   8123SM  H11S10756   3.914   4.691   3.767 -0.1021 -0.7219 -0.8353
   8123SM  H11T10757   4.002   4.545   3.795 -0.6601  0.6152  0.8099
   8123SM  C12S10758   3.804   4.524   3.864 -0.4367 -0.0092 -0.1282
   8123SM  H12S10759   3.800   4.413   3.867 -2.4709  0.0426  1.4234
   8123SM  H12T10760   3.707   4.575   3.848 -0.6033 -0.2476  0.0986
   8123SM  C13S10761   3.845   4.571   4.010 -0.0864  0.6690  0.3627
   8123SM  H13S10762   3.887   4.673   3.994 -0.0372  0.3014 -2.5020
   8123SM  H13T10763   3.923   4.499   4.043 -0.0975 -0.5842 -2.0748
   8123SM  C14S10764   3.718   4.560   4.103  0.3627 -0.1054 -0.5743
   8123SM  H14S10765   3.675   4.458   4.093  0.2524 -0.0237 -0.9331
   8123SM  H14T10766   3.642   4.628   4.060 -1.1139 -1.2670  0.0996
   8123SM  C15S10767   3.749   4.597   4.254 -0.3468 -0.2276  0.6338
   8123SM  H15S10768   3.761   4.707   4.258  1.1703 -0.1294 -2.7443
   8123SM  H15T10769   3.847   4.551   4.278  0.4308  1.5385  0.9688
   8123SM  C16S10770   3.638   4.562   4.347 -0.3883  0.1199  0.0592
   8123SM  H16S10771   3.658   4.457   4.377  0.7420  0.4504  0.5373
   8123SM  H16T10772   3.540   4.578   4.299 -0.6116 -1.3496  0.0072
   8123SM  C17S10773   3.631   4.646   4.478 -0.2362  0.8161  0.5114
   8123SM  H17S10774   3.624   4.750   4.440  1.7374  0.9235  0.3358
   8123SM  H17T10775   3.724   4.613   4.528  0.4246  0.2453 -1.0214
   8123SM  C18S10776   3.508   4.607   4.556 -0.1576 -0.4216  0.2315
   8123SM  H18S10777   3.505   4.670   4.648  0.3382  2.3155 -1.5047
   8123SM  H18T10778   3.516   4.503   4.593  0.9720  0.2344  1.9648
   8123SM  H18U10779   3.419   4.632   4.495  0.0725  1.5473  0.6095
   8123SM   C1F10780   3.578   5.069   3.357  0.5266 -0.4011  0.6960
   8123SM    OF10781   3.473   5.040   3.407  0.0345  0.0686  0.6967
   8123SM   C2F10782   3.671   5.149   3.440 -0.3501 -0.1465 -0.0455
   8123SM   H2F10783   3.631   5.167   3.542  1.8650  0.9737  0.6861
   8123SM   H2G10784   3.701   5.245   3.394 -1.3573 -0.0673 -0.5537
   8123SM   C3F10785   3.808   5.072   3.454  0.9894  0.3766 -0.1095
   8123SM   H3F10786   3.863   5.056   3.358  0.8773  2.0776 -0.4853
   8123SM   H3G10787   3.778   4.973   3.494  0.1176  0.6275 -0.1399
   8123SM   C4F10788   3.897   5.130   3.561 -0.9226  0.3455  0.2708
   8123SM   H4F10789   3.835   5.131   3.653 -0.6609 -0.9953  0.4774
   8123SM   H4G10790   3.922   5.232   3.525  2.2406 -0.4710 -0.1220
   8123SM   C5F10791   4.031   5.054   3.579 -0.2075 -0.3353  0.9194
   8123SM   H5F10792   4.072   5.040   3.477 -0.5351 -0.4105  0.7961
   8123SM   H5G10793   4.020   4.945   3.601  0.2911 -0.3424  1.1578
   8123SM   C6F10794   4.116   5.119   3.692  0.0138  0.1722 -0.4414
   8123SM   H6F10795   4.161   5.216   3.660  0.5753 -0.1672 -0.7048
   8123SM   H6G10796   4.205   5.052   3.697  0.5093  0.8189 -0.4311
   8123SM   C7F10797   4.047   5.134   3.827 -0.6664  0.1038 -0.2663
   8123SM   H7F10798   3.990   5.230   3.833 -1.1827  0.0716 -3.1607
   8123SM   H7G10799   4.133   5.139   3.897  0.5385  1.0562 -1.7372
   8123SM   C8F10800   3.966   5.008   3.854  0.7317 -0.5684 -0.6420
   8123SM   H8F10801   4.031   4.920   3.838  0.8081 -1.1284  2.2721
   8123SM   H8G10802   3.873   5.009   3.792 -0.0504 -1.1204  0.4910
   8123SM   C9F10803   3.929   4.976   4.002  0.2104 -0.3001 -0.6667
   8123SM   H9F10804   3.872   4.881   4.000 -2.8195  1.3883 -2.3275
   8123SM   H9G10805   3.865   5.052   4.052 -0.3877 -1.1539 -0.1075
   8123SM  C10F10806   4.048   4.985   4.101  0.6646 -0.0148  0.4661
   8123SM  H10F10807   4.072   5.092   4.119 -1.2790  0.4766  0.3077
   8123SM  H10G10808   4.131   4.938   4.043  0.3429 -1.1542  0.9053
   8123SM  C11F10809   4.023   4.919   4.235 -0.4475 -0.0287  0.0208
   8123SM  H11F10810   4.117   4.873   4.273  0.1903  1.2282  0.0260
   8123SM  H11G10811   3.954   4.836   4.210  2.2798 -2.3744 -0.2254
   8123SM  C12F10812   3.983   5.011   4.345 -0.0090 -0.4275 -0.1077
   8123SM  H12F10813   3.892   5.069   4.322  0.9874  0.2340 -2.7417
   8123SM  H12G10814   4.073   5.070   4.372  1.0372 -2.0397  0.0615
   8123SM  C13F10815   3.946   4.920   4.466  1.0801 -0.4376 -0.5625
   8123SM  H13F10816   4.030   4.848   4.479 -0.8673 -2.8984 -0.9971
   8123SM  H13G10817   3.858   4.863   4.431  1.1881  0.4604 -2.4182
   8123SM  C14F10818   3.903   5.007   4.580  0.2957  0.4860  0.4084
   8123SM  H14F10819   3.836   5.093   4.556 -3.0410 -1.7010  1.2446
   8123SM  H14G10820   4.006   5.047   4.595  1.8614 -3.0957  0.1791
   8123SM  C15F10821   3.857   4.924   4.704 -0.3301  0.0120  0.0541
   8123SM  H15F10822   3.918   4.832   4.715  1.7211  1.2196 -0.5699
   8123SM  H15G10823   3.760   4.876   4.681  0.5798 -2.4403  1.0057
   8123SM  C16F10824   3.855   5.008   4.841 -0.2949  0.1874 -0.2374
   8123SM  H16F10825   3.791   5.094   4.811  1.3698  1.5771  0.0901
   8123SM  H16G10826   3.952   5.055   4.868  0.1998  0.5443 -2.4732
   8123SM  C17F10827   3.787   4.933   4.956  0.0693 -0.0546 -0.3085
   8123SM  H17F10828   3.703   4.878   4.908  0.2849 -1.3771  0.7788
   8123SM  H17G10829   3.747   5.004   5.031  0.7319  0.3869 -0.3652
   8123SM  C18F10830   3.885   4.842   5.024  0.5421  0.3266  0.6673
   8123SM  H18F10831   3.983   4.891   5.044  0.7370 -0.4681  1.7322
   8123SM  H18G10832   3.896   4.746   4.970 -0.0889  0.1363  0.8729
   8123SM  C19F10833   3.835   4.784   5.158  0.1429  0.0035 -0.3520
   8123SM  H19F10834   3.737   4.732   5.150 -1.1812  1.9715  1.7369
   8123SM  H19G10835   3.813   4.864   5.231  1.8587  0.3084 -0.1168
   8123SM  C20F10836   3.931   4.678   5.223 -0.3801  0.5912  0.1993
   8123SM  H20F10837   4.035   4.716   5.231 -0.8181  1.7165  0.8219
   8123SM  H20G10838   3.928   4.587   5.159  1.2085  0.3246  0.4489
   8123SM  C21F10839   3.883   4.624   5.362  0.6093  0.0691 -0.0167
   8123SM  H21F10840   3.782   4.580   5.347  0.5076  0.1332  0.4436
   8123SM  H21G10841   3.875   4.707   5.436  1.4672  1.1498 -1.1048
   8123SM  C22F10842   3.967   4.513   5.421 -0.4211  0.5478  0.2141
   8123SM  H22F10843   4.072   4.550   5.422 -0.8749  2.0181 -1.3475
   8123SM  H22G10844   3.961   4.429   5.349  0.1794 -2.0710  3.0189
   8123SM  C23F10845   3.928   4.477   5.568 -0.0043 -0.6151 -0.5026
   8123SM  H23F10846   3.818   4.468   5.577  0.0788 -0.4126  0.9291
   8123SM  H23G10847   3.946   4.566   5.631 -1.1072  0.0092 -1.0346
   8123SM  H23H10848   3.974   4.382   5.600  0.9167  0.0962  0.3237
   8223SM     N10849   4.982   4.704   2.449  0.4571  0.2806  0.9327
   8223SM   C1510850   4.886   4.745   2.556 -0.1887  0.1916 -0.5203
   8223SM  H15A10851   4.789   4.770   2.516  0.0841  1.5995 -0.3419
   8223SM  H15B10852   4.918   4.827   2.618 -1.1878  1.0494 -1.1004
   8223SM  H15C10853   4.858   4.666   2.625 -2.5769  3.5161  2.7110
   8223SM   C1410854   4.944   4.566   2.402 -0.2886  0.1138  0.0590
   8223SM  H14A10855   4.843   4.564   2.364 -1.2480 -1.0416  2.4476
   8223SM  H14B10856   4.948   4.500   2.488 -1.4093 -0.3534 -0.2283
   8223SM  H14C10857   5.007   4.525   2.324  0.9713  1.2580  0.4337
   8223SM   C1310858   4.966   4.796   2.332  0.3255  0.4286 -0.2340
   8223SM  H13A10859   5.003   4.896   2.345  1.3350  0.0143  0.1559
   8223SM  H13B10860   4.864   4.808   2.298  1.0173 -0.0411 -2.6657
   8223SM  H13C10861   5.009   4.754   2.242 -2.1028 -0.2813 -1.1494
   8223SM   C1210862   5.129   4.706   2.492 -0.4049 -1.5739  0.2349
   8223SM  H12A10863   5.194   4.662   2.417  1.7847 -1.0990  1.7709
   8223SM  H12B10864   5.146   4.634   2.571  0.8140 -0.4156  1.0662
   8223SM   C1110865   5.192   4.840   2.534  0.5154 -0.8059 -0.3758
   8223SM  H11A10866   5.182   4.924   2.462  1.6231  0.5638  1.0158
   8223SM  H11B10867   5.301   4.824   2.532  0.5401 -0.6064 -1.1106
   8223SM     P10868   5.207   4.789   2.793 -0.3628  0.0669  0.1009
   8223SM   O1310869   5.258   4.653   2.749  0.3760  0.0441  0.2090
   8223SM   O1410870   5.303   4.867   2.874 -0.0582  0.2887  0.0048
   8223SM   O1110871   5.077   4.755   2.878  0.6527  0.3456 -0.0718
   8223SM   O1210872   5.150   4.876   2.667  0.0560  0.0059 -0.0331
   8223SM   C1S10873   4.998   4.860   2.928  0.5921  0.3266  0.1144
   8223SM   H1S10874   4.953   4.915   2.843  1.2391  0.9198  0.1368
   8223SM   H1T10875   5.058   4.941   2.976 -1.7029  1.9598  0.4080
   8223SM    NF10876   4.799   4.921   3.054  0.0274  0.6485 -0.1177
   8223SM   HNF10877   4.823   4.979   3.131  0.0973 -0.2901  0.5817
   8223SM   C2S10878   4.890   4.812   3.031 -0.0505  0.0077 -0.4425
   8223SM   H2S10879   4.837   4.726   2.986 -0.2914 -1.0206  1.7116
   8223SM   C3S10880   4.970   4.757   3.151 -0.2911  0.5395 -0.4592
   8223SM   H3S10881   5.043   4.831   3.191 -0.7452 -0.2062  1.9303
   8223SM    O310882   5.034   4.635   3.115 -0.3480 -0.2768  0.1156
   8223SM   HO310883   5.055   4.654   3.023 -1.3712  1.2419  0.1621
   8223SM   C4S10884   4.883   4.715   3.270 -0.0317 -0.3317  0.2034
   8223SM   H4S10885   4.868   4.607   3.274  0.9896 -0.4680  0.5716
   8223SM   C5S10886   4.832   4.800   3.354 -0.0024  0.6961 -0.5844
   8223SM   H5S10887   4.855   4.908   3.350  0.4374  0.5969 -0.8082
   8223SM   C6S10888   4.740   4.758   3.468 -0.0996 -0.0603 -0.1507
   8223SM   H6S10889   4.702   4.655   3.451 -1.4932  0.3609  0.3266
   8223SM   H6T10890   4.648   4.819   3.472  1.4774  2.4211  2.9693
   8223SM   C7S10891   4.804   4.761   3.604 -0.2848  0.3899  0.3559
   8223SM   H7S10892   4.811   4.869   3.632 -1.1981  0.7146 -0.5637
   8223SM   H7T10893   4.906   4.719   3.603  0.4097  1.9679  0.8591
   8223SM   C8S10894   4.719   4.695   3.711 -0.5456 -0.4147 -0.1373
   8223SM   H8S10895   4.694   4.592   3.679  1.9924 -0.5778 -1.8345
   8223SM   H8T10896   4.621   4.747   3.721 -0.0433  0.6414 -0.5685
   8223SM   C9S10897   4.796   4.687   3.844  0.6709  0.4352 -0.8288
   8223SM   H9S10898   4.826   4.788   3.877 -0.7042  0.8082 -0.6897
   8223SM   H9T10899   4.890   4.626   3.839  0.4162 -0.1471  0.7436
   8223SM  C10S10900   4.699   4.634   3.950 -0.2167 -0.1983 -0.1381
   8223SM  H10S10901   4.672   4.530   3.920 -0.7566  0.0666 -0.5900
   8223SM  H10T10902   4.608   4.696   3.933 -1.1894 -1.3344  0.7514
   8223SM  C11S10903   4.749   4.638   4.088  0.0469  0.6648  0.0841
   8223SM  H11S10904   4.755   4.747   4.111  0.5694  0.8570 -0.9116
   8223SM  H11T10905   4.854   4.602   4.093  0.4400  1.7784  0.1181
   8223SM  C12S10906   4.671   4.564   4.194  0.4724  0.5300  1.2221
   8223SM  H12S10907   4.671   4.455   4.169 -1.0723  1.0221 -1.2822
   8223SM  H12T10908   4.569   4.606   4.194  0.1043 -0.2110 -1.4512
   8223SM  C13S10909   4.732   4.579   4.329 -0.1942  0.3755 -0.3534
   8223SM  H13S10910   4.750   4.686   4.354  1.8455 -0.4934  2.3852
   8223SM  H13T10911   4.833   4.533   4.333 -0.1767  0.5040  1.0723
   8223SM  C14S10912   4.651   4.529   4.450 -0.1828 -0.2690  0.0922
   8223SM  H14S10913   4.632   4.420   4.436  0.9166 -0.6514  1.3418
   8223SM  H14T10914   4.552   4.576   4.464 -0.6662 -0.7971 -1.4077
   8223SM  C15S10915   4.725   4.558   4.575  0.6295 -0.0574  0.5740
   8223SM  H15S10916   4.731   4.669   4.587 -0.2083 -0.1915  2.8297
   8223SM  H15T10917   4.824   4.511   4.590  1.6752  1.4697 -1.1276
   8223SM  C16S10918   4.636   4.511   4.695 -0.2031 -0.3169  0.4173
   8223SM  H16S10919   4.657   4.405   4.719  0.6307  0.0273  1.2951
   8223SM  H16T10920   4.532   4.521   4.658 -0.0311 -0.4488 -0.1128
   8223SM  C17S10921   4.649   4.599   4.819 -0.5320  0.6229  0.1059
   8223SM  H17S10922   4.633   4.704   4.786 -0.1075  0.7897  0.4090
   8223SM  H17T10923   4.753   4.600   4.859  0.4151 -2.5073 -1.9184
   8223SM  C18S10924   4.551   4.569   4.936 -0.0777 -0.1676 -0.5984
   8223SM  H18S10925   4.445   4.596   4.915 -0.6637  1.3835  3.4468
   8223SM  H18T10926   4.591   4.614   5.029  1.0985  1.1047 -1.6716
   8223SM  H18U10927   4.550   4.458   4.947  2.1537 -0.2612 -0.9203
   8223SM   C1F10928   4.705   4.955   2.970  0.4591 -0.4803  0.3481
   8223SM    OF10929   4.704   4.926   2.851  0.5788  0.2752  0.3526
   8223SM   C2F10930   4.599   5.042   3.028  0.2665  0.0000 -0.2259
   8223SM   H2F10931   4.577   5.128   2.961  0.7436 -1.4757 -2.3663
   8223SM   H2G10932   4.631   5.091   3.123  0.0066  0.1478 -0.2124
   8223SM   C3F10933   4.470   4.951   3.045 -0.0938  0.0383 -0.6513
   8223SM   H3F10934   4.440   4.908   2.948  0.4169 -1.1247 -0.3225
   8223SM   H3G10935   4.385   5.015   3.075 -0.3049  1.5494 -4.0895
   8223SM   C4F10936   4.499   4.841   3.152 -0.9935  0.8263 -0.2307
   8223SM   H4F10937   4.573   4.889   3.221 -0.0721  0.5718 -1.0104
   8223SM   H4G10938   4.553   4.756   3.106 -2.3524 -0.5195  0.5737
   8223SM   C5F10939   4.372   4.798   3.223  0.6818  0.0262 -0.6005
   8223SM   H5F10940   4.309   4.745   3.148 -1.3080 -0.8374  1.5553
   8223SM   H5G10941   4.326   4.893   3.257 -0.2376 -0.7840  0.5064
   8223SM   C6F10942   4.378   4.690   3.330 -0.2066 -0.0652 -0.0858
   8223SM   H6F10943   4.478   4.642   3.330 -0.5390 -0.7634 -1.0261
   8223SM   H6G10944   4.301   4.615   3.301 -1.2578  0.9507 -0.0194
   8223SM   C7F10945   4.347   4.752   3.470 -0.0234  0.3250  0.4775
   8223SM   H7F10946   4.241   4.783   3.472 -0.5435 -0.8002 -2.8182
   8223SM   H7G10947   4.416   4.837   3.492  1.0246 -0.0907 -1.0144
   8223SM   C8F10948   4.368   4.653   3.582  0.1376  0.5750 -0.1118
   8223SM   H8F10949   4.473   4.619   3.595 -0.2585 -0.2528  1.0726
   8223SM   H8G10950   4.306   4.568   3.545 -0.9719  1.9604 -1.6178
   8223SM   C9F10951   4.305   4.710   3.717 -0.0329  0.3367  0.4115
   8223SM   H9F10952   4.203   4.746   3.694 -0.6670 -2.2873 -1.3229
   8223SM   H9G10953   4.375   4.794   3.741  2.0711 -0.0481 -3.4213
   8223SM  C10F10954   4.305   4.605   3.827 -0.7529  0.1031  0.5567
   8223SM  H10F10955   4.403   4.554   3.840  0.3839  2.0133 -0.1030
   8223SM  H10G10956   4.246   4.518   3.791  2.0194 -1.3489 -0.8152
   8223SM  C11F10957   4.255   4.660   3.952  0.0571 -0.3850 -0.1714
   8223SM  H11F10958   4.159   4.716   3.947 -0.1631 -0.6119  1.2154
   8223SM  H11G10959   4.321   4.744   3.983  0.8047 -0.2013 -2.0804
   8223SM  C12F10960   4.264   4.550   4.062  0.9727 -0.2589 -0.3626
   8223SM  H12F10961   4.370   4.519   4.074  1.2556  1.1251  1.0373
   8223SM  H12G10962   4.217   4.458   4.021  0.1240  0.5338 -1.1888
   8223SM  C13F10963   4.206   4.587   4.194  0.4080 -0.7611 -0.0034
   8223SM  H13F10964   4.098   4.614   4.190  1.0054  1.8369 -2.3745
   8223SM  H13G10965   4.257   4.682   4.222  1.3659 -1.8699  2.2638
   8223SM  C14F10966   4.239   4.487   4.313 -0.2177 -0.6908 -0.2277
   8223SM  H14F10967   4.349   4.482   4.321 -0.2930 -0.8366  0.8443
   8223SM  H14G10968   4.202   4.389   4.276 -0.4744  0.0581 -2.0909
   8223SM  C15F10969   4.183   4.533   4.450 -0.0511 -0.5359  0.1212
   8223SM  H15F10970   4.073   4.539   4.434  0.3951  2.5043 -3.0520
   8223SM  H15G10971   4.221   4.636   4.467  2.5105 -1.5097  0.8078
   8223SM  C16F10972   4.221   4.446   4.573 -0.3341  0.1304  0.1914
   8223SM  H16F10973   4.331   4.429   4.577 -0.4085 -0.9877 -1.6716
   8223SM  H16G10974   4.175   4.347   4.555 -0.5470  0.4637 -1.1545
   8223SM  C17F10975   4.167   4.491   4.708  0.4685 -0.5249  0.1213
   8223SM  H17F10976   4.056   4.499   4.702  0.3425 -2.4472 -1.1775
   8223SM  H17G10977   4.203   4.595   4.719 -1.2429 -0.0428  1.6260
   8223SM  C18F10978   4.197   4.396   4.825  0.5791 -0.6970 -0.0027
   8223SM  H18F10979   4.307   4.383   4.823  0.6387 -0.6017  1.7206
   8223SM  H18G10980   4.153   4.294   4.820 -1.6153  0.1787  0.1815
   8223SM  C19F10981   4.151   4.456   4.955  0.3618  0.6983  0.0631
   8223SM  H19F10982   4.041   4.448   4.969  0.1869  1.4148 -0.7860
   8223SM  H19G10983   4.175   4.564   4.966 -2.2613  1.1314  2.9817
   8223SM  C20F10984   4.220   4.393   5.072  0.6082  0.5392 -0.0981
   8223SM  H20F10985   4.247   4.468   5.149 -0.5008  1.0850 -0.2389
   8223SM  H20G10986   4.315   4.337   5.054 -0.4956 -0.8890 -1.9486
   8223SM  C21F10987   4.126   4.287   5.132 -0.1216  0.2084 -0.6234
   8223SM  H21F10988   4.094   4.221   5.049  0.9231 -1.9902  0.6240
   8223SM  H21G10989   4.040   4.339   5.180  1.1042  1.7355 -0.0070
   8223SM  C22F10990   4.194   4.195   5.237 -0.2480 -0.3863  0.2544
   8223SM  H22F10991   4.268   4.254   5.296 -0.1582  0.0946 -0.3360
   8223SM  H22G10992   4.257   4.125   5.178  0.4406 -0.3603  0.9406
   8223SM  C23F10993   4.094   4.118   5.323  0.2436 -0.4621 -0.9201
   8223SM  H23F10994   4.148   4.054   5.396  0.3271 -0.8955 -1.3605
   8223SM  H23G10995   4.026   4.068   5.252 -0.8792  2.1120 -1.7867
   8223SM  H23H10996   4.033   4.195   5.375  1.2888 -1.7599  2.5431
   8323SM     N10997   4.343   4.325   2.872  0.2798 -0.5717  0.3047
   8323SM   C1510998   4.466   4.308   2.789 -0.4784  0.1068  0.1221
   8323SM  H15A10999   4.549   4.266   2.844  0.7417 -0.9224 -2.3426
   8323SM  H15B11000   4.493   4.400   2.739 -0.6236  0.1804  0.1793
   8323SM  H15C11001   4.446   4.234   2.713 -0.2101  1.7595 -1.6282
   8323SM   C1411002   4.385   4.436   2.963 -0.1461  0.0032 -0.3186
   8323SM  H14A11003   4.420   4.520   2.906 -0.7211  0.8699  0.5624
   8323SM  H14B11004   4.459   4.417   3.040 -0.8187 -0.5848  0.1987
   8323SM  H14C11005   4.298   4.472   3.017  0.9075 -1.2359  2.4126
   8323SM   C1311006   4.227   4.375   2.797  0.3170 -0.0427 -0.2933
   8323SM  H13A11007   4.193   4.311   2.716 -0.3761  0.4827 -0.4235
   8323SM  H13B11008   4.251   4.460   2.736 -1.3282  1.0985  0.5527
   8323SM  H13C11009   4.141   4.400   2.858  0.5054 -0.7679  0.2901
   8323SM   C1211010   4.307   4.200   2.953  0.1372  0.5124  0.2302
   8323SM  H12A11011   4.219   4.218   3.014  0.6335 -0.0414  1.1249
   8323SM  H12B11012   4.391   4.183   3.018 -0.2393 -1.9003  0.1890
   8323SM   C1111013   4.289   4.062   2.883 -0.2678  0.3811 -0.3461
   8323SM  H11A11014   4.199   4.065   2.819 -0.6763 -0.6990  0.1696
   8323SM  H11B11015   4.275   3.982   2.958  0.9592  0.3070 -0.1633
   8323SM     P11016   4.506   3.917   2.818 -0.0018  0.2180  0.2871
   8323SM   O1311017   4.443   3.791   2.768 -0.3654 -0.2743  0.4818
   8323SM   O1411018   4.627   3.972   2.748 -0.0168 -0.2355  0.1440
   8323SM   O1111019   4.536   3.906   2.972 -0.1562  0.4470 -0.1618
   8323SM   O1211020   4.403   4.030   2.804  0.4976  0.0606  0.3563
   8323SM   C1S11021   4.596   4.013   3.049  0.4113  0.7432 -0.1428
   8323SM   H1S11022   4.559   4.106   3.002  1.0617 -0.5309 -3.4282
   8323SM   H1T11023   4.706   3.996   3.042  0.2207 -0.2164 -1.0577
   8323SM    NF11024   4.632   4.099   3.282 -0.7587  0.5500 -0.1755
   8323SM   HNF11025   4.717   4.074   3.327  0.2483  0.1871 -2.1736
   8323SM   C2S11026   4.567   3.999   3.203 -0.4787 -0.1458 -0.0635
   8323SM   H2S11027   4.457   4.005   3.219 -0.4781 -3.0562  1.6581
   8323SM   C3S11028   4.611   3.858   3.254  0.2545  0.1871 -0.5957
   8323SM   H3S11029   4.721   3.855   3.239  0.3651 -1.9044  0.2288
   8323SM    O311030   4.553   3.753   3.178 -0.6479  0.0600  0.2412
   8323SM   HO311031   4.537   3.789   3.091  0.4185 -0.3852 -0.1605
   8323SM   C4S11032   4.573   3.839   3.399 -0.4044 -0.2989 -0.4247
   8323SM   H4S11033   4.466   3.835   3.424 -0.1701  0.4231  0.7649
   8323SM   C5S11034   4.667   3.826   3.500  1.0083 -0.9057  0.1648
   8323SM   H5S11035   4.773   3.823   3.471  0.5045  0.5078 -2.0311
   8323SM   C6S11036   4.646   3.807   3.645 -0.0821  0.4119 -0.4916
   8323SM   H6S11037   4.710   3.883   3.695 -1.2802  1.2140 -0.1498
   8323SM   H6T11038   4.679   3.704   3.672  0.0966  0.1240 -1.7131
   8323SM   C7S11039   4.501   3.843   3.686  0.5201 -0.2619 -0.1555
   8323SM   H7S11040   4.433   3.775   3.630 -0.9819  0.2148  1.0064
   8323SM   H7T11041   4.480   3.946   3.653  3.5584 -0.0538 -1.7917
   8323SM   C8S11042   4.474   3.826   3.833 -0.0280 -0.3298 -0.2314
   8323SM   H8S11043   4.548   3.859   3.909 -1.2571  0.9026  0.4666
   8323SM   H8T11044   4.463   3.716   3.834  1.9776 -0.5883  1.3926
   8323SM   C9S11045   4.332   3.895   3.861  0.1585  0.4256  0.5994
   8323SM   H9S11046   4.260   3.864   3.783 -0.9553  2.3516  0.8097
   8323SM   H9T11047   4.344   4.005   3.849 -0.2455  0.3383 -0.8044
   8323SM  C10S11048   4.281   3.869   4.001  0.2191  0.6647 -0.6240
   8323SM  H10S11049   4.188   3.929   3.995 -1.1794 -1.4138 -0.9132
   8323SM  H10T11050   4.342   3.889   4.092  1.9514  1.0023 -1.8100
   8323SM  C11S11051   4.231   3.724   4.016  0.0011  0.5943  0.2148
   8323SM  H11S11052   4.322   3.663   4.035  0.4750  0.7419 -1.4740
   8323SM  H11T11053   4.198   3.685   3.918  1.9934  0.2052 -0.3513
   8323SM  C12S11054   4.125   3.690   4.122 -0.0068 -0.3062  0.5672
   8323SM  H12S11055   4.128   3.581   4.141  1.4327 -0.4125 -0.1263
   8323SM  H12T11056   4.026   3.720   4.081  0.1830 -0.2887  0.1219
   8323SM  C13S11057   4.149   3.756   4.257 -0.5980  0.3510 -0.3310
   8323SM  H13S11058   4.139   3.866   4.262  0.0310  0.3604  2.1457
   8323SM  H13T11059   4.244   3.712   4.295 -0.5357  0.5944 -0.2071
   8323SM  C14S11060   4.054   3.700   4.362  0.0957  0.2053  0.1571
   8323SM  H14S11061   3.956   3.670   4.319 -0.4922  0.3843  1.3271
   8323SM  H14T11062   4.023   3.775   4.438 -0.7266  0.7800 -0.7349
   8323SM  C15S11063   4.094   3.567   4.436 -0.8034  0.5932  0.1664
   8323SM  H15S11064   4.171   3.584   4.514 -0.3507  0.3146 -0.2150
   8323SM  H15T11065   4.153   3.493   4.378 -1.1150 -0.4423  1.1461
   8323SM  C16S11066   3.983   3.487   4.493 -0.3107 -0.0629 -0.3682
   8323SM  H16S11067   3.922   3.548   4.564  1.4233  1.3124  0.0038
   8323SM  H16T11068   4.012   3.409   4.567  0.0468 -0.8214 -1.2819
   8323SM  C17S11069   3.893   3.422   4.385  0.6116 -0.1626 -0.1885
   8323SM  H17S11070   3.887   3.487   4.295  0.1374  0.1902  0.0893
   8323SM  H17T11071   3.789   3.414   4.423  1.0140  1.2546  1.3659
   8323SM  C18S11072   3.954   3.276   4.352  0.4934  0.1797  0.4644
   8323SM  H18S11073   3.938   3.221   4.447 -2.9547 -0.4490 -0.3404
   8323SM  H18T11074   4.058   3.277   4.315  0.9070 -1.0619  1.5165
   8323SM  H18U11075   3.888   3.231   4.275  1.9757 -0.0161 -0.7358
   8323SM   C1F11076   4.605   4.226   3.282 -0.4452  0.0811  0.4461
   8323SM    OF11077   4.503   4.269   3.222 -0.2543  0.0620 -0.6097
   8323SM   C2F11078   4.706   4.318   3.348  0.4821  0.5772  0.0581
   8323SM   H2F11079   4.713   4.408   3.284  1.2297  1.9121  1.8995
   8323SM   H2G11080   4.805   4.269   3.365  0.1918 -0.6686 -1.6591
   8323SM   C3F11081   4.652   4.382   3.480 -0.3875 -0.1780 -0.5561
   8323SM   H3F11082   4.560   4.438   3.453 -1.5110  0.1184  3.2717
   8323SM   H3G11083   4.725   4.448   3.531 -2.1057  1.6964 -0.4004
   8323SM   C4F11084   4.613   4.269   3.582  0.1528 -0.5243 -0.5102
   8323SM   H4F11085   4.696   4.195   3.583  0.9015  0.2514  1.9636
   8323SM   H4G11086   4.518   4.222   3.551 -1.4285  0.2128  2.7808
   8323SM   C5F11087   4.595   4.328   3.725 -0.3713  0.1467 -0.8816
   8323SM   H5F11088   4.508   4.396   3.733  0.2375  1.0084 -1.4402
   8323SM   H5G11089   4.684   4.385   3.760 -0.6172  0.4405 -0.7338
   8323SM   C6F11090   4.581   4.203   3.823 -0.1222 -0.2391 -0.2273
   8323SM   H6F11091   4.685   4.164   3.830 -0.2962 -1.3150 -2.7338
   8323SM   H6G11092   4.516   4.131   3.770 -3.2150  4.1226 -3.0989
   8323SM   C7F11093   4.531   4.246   3.966 -0.4899  0.1542  0.0808
   8323SM   H7F11094   4.420   4.254   3.963 -0.7318 -1.7609  1.6782
   8323SM   H7G11095   4.583   4.342   3.984 -1.5422  1.0592 -1.4683
   8323SM   C8F11096   4.557   4.147   4.086 -0.2054 -0.2234  0.0307
   8323SM   H8F11097   4.663   4.160   4.116 -0.5868  0.5113  1.1136
   8323SM   H8G11098   4.543   4.040   4.060 -2.0566 -0.0214  0.0490
   8323SM   C9F11099   4.461   4.184   4.204  0.0261  0.0296 -0.1034
   8323SM   H9F11100   4.356   4.165   4.174  0.9197 -1.6247 -2.3985
   8323SM   H9G11101   4.463   4.294   4.223  0.3050 -0.3014  2.0431
   8323SM  C10F11102   4.518   4.105   4.324 -0.0140 -0.6972 -0.3740
   8323SM  H10F11103   4.624   4.133   4.343 -1.0273  2.2828  1.5640
   8323SM  H10G11104   4.519   3.995   4.311 -1.7786 -0.8837  0.8102
   8323SM  C11F11105   4.442   4.138   4.451  0.0230 -0.2327 -0.3698
   8323SM  H11F11106   4.443   4.246   4.475 -0.0377  0.2278 -2.3172
   8323SM  H11G11107   4.504   4.088   4.529 -0.0691  0.1179 -0.0693
   8323SM  C12F11108   4.298   4.079   4.450  0.4626 -0.2457  0.2203
   8323SM  H12F11109   4.299   4.015   4.358  0.6213  0.5627 -0.3517
   8323SM  H12G11110   4.225   4.160   4.429 -1.0280 -1.6540 -0.2206
   8323SM  C13F11111   4.258   3.999   4.576 -0.0955  0.3896 -0.2653
   8323SM  H13F11112   4.150   3.973   4.572 -0.1902  0.3584  1.6340
   8323SM  H13G11113   4.271   4.068   4.661  3.6702  0.0957 -0.4260
   8323SM  C14F11114   4.346   3.878   4.598 -0.5732  0.0467 -0.4469
   8323SM  H14F11115   4.451   3.901   4.623 -1.2724  0.2010  2.8333
   8323SM  H14G11116   4.337   3.819   4.505 -2.2355  0.3594 -0.5231
   8323SM  C15F11117   4.299   3.798   4.724  0.0102 -0.8000 -0.0924
   8323SM  H15F11118   4.190   3.778   4.727  0.0702 -1.1198  2.8957
   8323SM  H15G11119   4.336   3.848   4.816  0.3154  0.5059 -0.8965
   8323SM  C16F11120   4.370   3.663   4.729 -0.1030  0.4612  0.2073
   8323SM  H16F11121   4.480   3.678   4.726 -0.3225  2.4141  0.6984
   8323SM  H16G11122   4.351   3.597   4.641  1.5827  1.4258 -0.9539
   8323SM  C17F11123   4.341   3.579   4.858  0.0288 -0.3834 -0.1012
   8323SM  H17F11124   4.355   3.644   4.947 -3.7118 -0.9543  1.0739
   8323SM  H17G11125   4.409   3.492   4.852 -0.4351 -0.7516 -0.0658
   8323SM  C18F11126   4.195   3.528   4.865 -0.1766 -0.1188  0.3030
   8323SM  H18F11127   4.157   3.496   4.766 -4.0731  0.7559  1.3130
   8323SM  H18G11128   4.130   3.614   4.893  0.1814 -0.0019  0.7955
   8323SM  C19F11129   4.188   3.399   4.954  0.1234 -1.1233 -0.2585
   8323SM  H19F11130   4.238   3.419   5.051 -1.2431  1.0465  0.0697
   8323SM  H19G11131   4.237   3.315   4.900  2.1783 -0.1904  0.0589
   8323SM  C20F11132   4.035   3.369   4.965 -0.8997 -0.1066  0.2360
   8323SM  H20F11133   4.005   3.352   4.859  3.1802  1.5316 -1.4113
   8323SM  H20G11134   3.985   3.460   5.006  0.0847  0.3504  0.4562
   8323SM  C21F11135   4.012   3.244   5.054  0.7970  0.0390  0.5383
   8323SM  H21F11136   4.057   3.253   5.156  1.6197  2.1788  0.0363
   8323SM  H21G11137   4.077   3.177   4.995  1.2173  2.6948 -2.2724
   8323SM  C22F11138   3.867   3.207   5.061  0.7417 -0.0971 -0.8213
   8323SM  H22F11139   3.854   3.103   5.098  1.9702  0.2070  0.5511
   8323SM  H22G11140   3.818   3.211   4.961  0.7474 -2.2456 -0.9764
   8323SM  C23F11141   3.783   3.292   5.157  0.0186  0.1495  0.0131
   8323SM  H23F11142   3.823   3.270   5.258  2.5846 -1.2931 -1.2209
   8323SM  H23G11143   3.675   3.266   5.151  0.3267 -1.3916  0.6228
   8323SM  H23H11144   3.789   3.400   5.135  1.0205 -0.2837 -2.0393
   8423SM     N11145   3.346   3.704   2.649  0.0664  0.1343 -0.1499
   8423SM   C1511146   3.379   3.727   2.794 -0.5019 -0.1712  0.0085
   8423SM  H15A11147   3.474   3.776   2.806 -0.6436  0.1306 -0.1009
   8423SM  H15B11148   3.395   3.636   2.850 -1.3491 -0.1802  0.2502
   8423SM  H15C11149   3.310   3.791   2.848 -0.3213  0.3861 -0.4187
   8423SM   C1411150   3.396   3.812   2.563  0.0750  0.1956 -0.6178
   8423SM  H14A11151   3.349   3.904   2.594 -0.6102 -0.2334 -0.3627
   8423SM  H14B11152   3.359   3.797   2.463 -1.7075 -0.8543  0.1483
   8423SM  H14C11153   3.504   3.806   2.565  0.1093  0.2119  1.9024
   8423SM   C1311154   3.420   3.583   2.599  0.6699  0.2042 -0.8586
   8423SM  H13A11155   3.377   3.495   2.644 -0.0406  1.3424  0.8046
   8423SM  H13B11156   3.521   3.584   2.638  0.4826 -2.1728 -0.1732
   8423SM  H13C11157   3.424   3.576   2.491 -1.1100 -1.2566 -0.8673
   8423SM   C1211158   3.198   3.679   2.635 -0.9126 -0.5557 -0.4421
   8423SM  H12A11159   3.177   3.678   2.529 -0.0791 -3.2279 -0.6412
   8423SM  H12B11160   3.146   3.761   2.682 -0.0544 -0.9427  1.2394
   8423SM   C1111161   3.146   3.552   2.711  0.6142 -0.2917  0.0878
   8423SM  H11A11162   3.039   3.570   2.732  0.7990  3.1945 -1.3282
   8423SM  H11B11163   3.191   3.552   2.813 -2.0760  0.7602  1.3625
   8423SM     P11164   3.109   3.296   2.710 -0.4324 -0.1955 -0.1637
   8423SM   O1311165   2.967   3.296   2.668  0.0198 -0.1998  0.3617
   8423SM   O1411166   3.195   3.177   2.674 -0.1432 -0.1396  0.3800
   8423SM   O1111167   3.121   3.336   2.870  0.1145 -0.6710  0.1426
   8423SM   O1211168   3.175   3.427   2.644 -0.0708  0.0248  0.0596
   8423SM   C1S11169   3.095   3.225   2.954  0.1962  0.2229 -0.0236
   8423SM   H1S11170   3.164   3.140   2.935  0.9884  0.5678  1.2187
   8423SM   H1T11171   2.993   3.182   2.941  0.0923  0.8234 -1.3102
   8423SM    NF11172   3.089   3.154   3.192  0.8330  0.4160 -0.5088
   8423SM   HNF11173   3.009   3.147   3.251  0.3460  2.6670 -0.7771
   8423SM   C2S11174   3.093   3.271   3.104  0.0292  0.6468  0.0744
   8423SM   H2S11175   3.192   3.322   3.115 -1.3457  3.3033  1.0471
   8423SM   C3S11176   2.982   3.365   3.139  0.2577 -0.1390  0.2752
   8423SM   H3S11177   2.882   3.316   3.150  1.0466 -1.3634  2.6482
   8423SM    O311178   2.959   3.482   3.052 -0.2227 -0.0618  0.5530
   8423SM   HO311179   3.010   3.461   2.973  3.8377  0.3151  2.8293
   8423SM   C4S11180   3.008   3.428   3.273  0.4917  0.0240 -0.1852
   8423SM   H4S11181   3.116   3.450   3.281  0.4091  0.6315 -0.6623
   8423SM   C5S11182   2.927   3.442   3.382  0.4771  0.1835  0.3364
   8423SM   H5S11183   2.820   3.417   3.373  0.4888  0.7662 -2.0550
   8423SM   C6S11184   2.966   3.494   3.514 -0.1879 -0.7067  0.0246
   8423SM   H6S11185   3.060   3.554   3.514 -2.3865  3.0545  1.2951
   8423SM   H6T11186   2.980   3.409   3.584  0.5413 -0.3125  0.3631
   8423SM   C7S11187   2.863   3.585   3.582 -0.5629 -0.6442 -0.3496
   8423SM   H7S11188   2.767   3.529   3.587 -1.0266  0.2374  1.5637
   8423SM   H7T11189   2.842   3.675   3.520  0.9769 -0.0447 -0.0375
   8423SM   C8S11190   2.906   3.639   3.720  0.1301  0.0919  0.1584
   8423SM   H8S11191   2.983   3.717   3.702 -0.5924  0.5051 -1.3649
   8423SM   H8T11192   2.952   3.554   3.774  2.0681  2.1891  1.9995
   8423SM   C9S11193   2.783   3.687   3.799 -0.8995 -0.7596 -0.3848
   8423SM   H9S11194   2.693   3.622   3.795 -0.7813 -0.9326 -0.2397
   8423SM   H9T11195   2.736   3.774   3.749 -0.2287 -0.0869  0.1376
   8423SM  C10S11196   2.810   3.703   3.947 -0.3628  0.1286 -0.6742
   8423SM  H10S11197   2.890   3.780   3.958 -0.7374  0.4577 -0.1968
   8423SM  H10T11198   2.845   3.603   3.981 -0.9680 -0.5783 -2.0526
   8423SM  C11S11199   2.685   3.751   4.026  0.1597 -0.1374 -0.1425
   8423SM  H11S11200   2.651   3.849   3.986 -0.9319 -1.0463 -1.5571
   8423SM  H11T11201   2.724   3.778   4.126 -0.9406  0.8109  0.0627
   8423SM  C12S11202   2.560   3.664   4.028 -0.9532  0.0382 -0.1244
   8423SM  H12S11203   2.530   3.651   3.922 -2.8256 -2.2128  0.5793
   8423SM  H12T11204   2.482   3.704   4.097  0.2089 -0.6223  1.6483
   8423SM  C13S11205   2.582   3.529   4.086  0.2607  0.5908 -0.0403
   8423SM  H13S11206   2.669   3.486   4.033  1.6121  0.8697  1.8602
   8423SM  H13T11207   2.493   3.463   4.081  0.5516  0.1039  0.9511
   8423SM  C14S11208   2.625   3.519   4.234  0.3746  0.2763  0.0210
   8423SM  H14S11209   2.545   3.561   4.299 -1.1458 -0.7013 -1.1459
   8423SM  H14T11210   2.723   3.569   4.249  0.9894 -1.2722  1.4872
   8423SM  C15S11211   2.649   3.368   4.267 -0.4934  0.3535 -0.5475
   8423SM  H15S11212   2.749   3.337   4.230 -0.1073  0.5333  0.3282
   8423SM  H15T11213   2.574   3.296   4.228  0.4802  0.4180 -2.6356
   8423SM  C16S11214   2.646   3.346   4.417  0.0044 -0.0379  0.1790
   8423SM  H16S11215   2.576   3.411   4.474 -0.3369 -1.5920  1.6356
   8423SM  H16T11216   2.747   3.371   4.457 -0.0385 -1.2370  1.0925
   8423SM  C17S11217   2.619   3.201   4.460 -0.4434 -0.0002 -0.5583
   8423SM  H17S11218   2.692   3.136   4.407  1.8235  1.8872  0.0669
   8423SM  H17T11219   2.521   3.158   4.432 -1.7858  0.4509  2.9576
   8423SM  C18S11220   2.633   3.176   4.611 -0.8765 -0.2166  0.1000
   8423SM  H18S11221   2.648   3.069   4.637  0.9795  0.2654  1.1993
   8423SM  H18T11222   2.546   3.221   4.665 -1.1498 -1.8345  1.0906
   8423SM  H18U11223   2.724   3.231   4.643 -1.5704  0.3194  1.2292
   8423SM   C1F11224   3.183   3.060   3.214 -0.0197 -0.2332 -0.2899
   8423SM    OF11225   3.265   3.032   3.133  0.8988 -0.3182  0.3300
   8423SM   C2F11226   3.181   2.981   3.342 -1.3073 -0.2243 -0.8024
   8423SM   H2F11227   3.198   2.874   3.317  1.7751  0.3690 -1.6966
   8423SM   H2G11228   3.091   3.006   3.403  0.0912  1.0556  0.8298
   8423SM   C3F11229   3.312   3.019   3.432  0.3596 -0.2383  0.0211
   8423SM   H3F11230   3.404   3.009   3.370  1.8984 -4.2866  2.5079
   8423SM   H3G11231   3.323   2.943   3.512 -1.3774 -0.2673  0.2639
   8423SM   C4F11232   3.297   3.161   3.487 -0.3519  0.2500 -0.5643
   8423SM   H4F11233   3.199   3.155   3.539 -1.0772 -1.1924 -2.0270
   8423SM   H4G11234   3.298   3.245   3.415 -2.9022 -0.5996 -1.6937
   8423SM   C5F11235   3.407   3.183   3.592  0.2474  0.1179 -0.6034
   8423SM   H5F11236   3.509   3.172   3.551  0.1774  1.4863 -1.1996
   8423SM   H5G11237   3.396   3.100   3.665 -1.5879 -1.1899 -2.2541
   8423SM   C6F11238   3.404   3.321   3.661 -0.1690  0.1241  0.3358
   8423SM   H6F11239   3.403   3.401   3.584  0.2972 -0.4262 -0.2535
   8423SM   H6G11240   3.500   3.325   3.717  0.6251 -2.3633 -0.7121
   8423SM   C7F11241   3.286   3.331   3.768  0.6494  0.7099  0.1443
   8423SM   H7F11242   3.303   3.256   3.847  1.7080 -0.4260 -1.1086
   8423SM   H7G11243   3.190   3.305   3.718  0.2181 -0.2100  1.4231
   8423SM   C8F11244   3.274   3.471   3.837 -0.2153  0.2718 -0.1019
   8423SM   H8F11245   3.227   3.538   3.762 -0.4628 -0.5346 -0.6795
   8423SM   H8G11246   3.374   3.507   3.868 -0.0858  1.5482 -1.9176
   8423SM   C9F11247   3.186   3.462   3.967  0.7082  0.2863  0.3703
   8423SM   H9F11248   3.251   3.407   4.038  0.0488 -1.1128 -0.0737
   8423SM   H9G11249   3.088   3.411   3.955  1.0391 -0.1751 -0.4783
   8423SM  C10F11250   3.154   3.595   4.037  0.0463  0.2430 -0.3345
   8423SM  H10F11251   3.082   3.661   3.984  0.4028  1.0465  0.1575
   8423SM  H10G11252   3.255   3.640   4.053  1.3605 -2.8583  0.7975
   8423SM  C11F11253   3.097   3.589   4.178  0.0524 -0.3125  0.2838
   8423SM  H11F11254   3.152   3.521   4.247 -1.5126 -1.4551  0.4602
   8423SM  H11G11255   2.996   3.544   4.185 -0.2799  0.6838  5.0028
   8423SM  C12F11256   3.094   3.722   4.255  0.2723  0.0207  0.6703
   8423SM  H12F11257   2.999   3.769   4.223  0.8961  0.0546 -1.2541
   8423SM  H12G11258   3.180   3.787   4.227 -0.1316  1.4536  2.5613
   8423SM  C13F11259   3.106   3.701   4.407 -0.9504 -0.2136  0.1213
   8423SM  H13F11260   3.194   3.634   4.418 -0.6300 -0.5673 -3.4227
   8423SM  H13G11261   3.023   3.636   4.442  0.0200 -1.5628 -0.0236
   8423SM  C14F11262   3.114   3.827   4.487 -0.5651  0.4117 -0.0180
   8423SM  H14F11263   3.018   3.871   4.451 -1.8729 -0.3687  2.2920
   8423SM  H14G11264   3.207   3.875   4.449 -0.4157 -0.1565 -0.3820
   8423SM  C15F11265   3.119   3.816   4.635 -0.2058  0.0701  0.1989
   8423SM  H15F11266   3.037   3.745   4.662 -1.5744  0.4091 -2.6564
   8423SM  H15G11267   3.093   3.916   4.675  0.6688 -0.1252  1.2999
   8423SM  C16F11268   3.255   3.782   4.690 -0.2113  0.1487  1.0652
   8423SM  H16F11269   3.324   3.863   4.659 -2.9685  2.5655  0.8872
   8423SM  H16G11270   3.296   3.694   4.636  1.5424  0.5469  1.6708
   8423SM  C17F11271   3.248   3.765   4.844  0.0927  0.5836  0.4049
   8423SM  H17F11272   3.181   3.680   4.869 -0.4332  0.4634 -1.3133
   8423SM  H17G11273   3.190   3.852   4.882 -1.6442 -1.0050  1.5575
   8423SM  C18F11274   3.384   3.753   4.913 -0.2907  0.5993  0.2329
   8423SM  H18F11275   3.439   3.835   4.863 -2.3294  0.4916 -2.4102
   8423SM  H18G11276   3.443   3.662   4.888  2.0079  1.8090  0.9489
   8423SM  C19F11277   3.377   3.768   5.070 -0.5460 -0.2182  0.4778
   8423SM  H19F11278   3.338   3.671   5.108  0.1083 -0.4060  0.6988
   8423SM  H19G11279   3.301   3.844   5.098 -0.1277  0.1122  0.7453
   8423SM  C20F11280   3.515   3.783   5.140  0.0054 -0.5092  0.4772
   8423SM  H20F11281   3.512   3.868   5.210  2.6842  0.0269  0.0697
   8423SM  H20G11282   3.594   3.807   5.065  2.1696 -3.7482  1.4782
   8423SM  C21F11283   3.561   3.643   5.194 -0.1969  1.1592  0.1188
   8423SM  H21F11284   3.567   3.561   5.119 -1.0127 -2.2622  3.4903
   8423SM  H21G11285   3.476   3.605   5.254 -1.2897  3.8736  0.4137
   8423SM  C22F11286   3.682   3.651   5.291 -0.1549  0.3000 -0.0360
   8423SM  H22F11287   3.697   3.755   5.330 -1.3795  0.7125 -0.6186
   8423SM  H22G11288   3.774   3.640   5.230 -0.7676 -0.9524 -0.7724
   8423SM  C23F11289   3.670   3.565   5.417 -0.1709 -0.6906  0.0670
   8423SM  H23F11290   3.766   3.556   5.472  0.1513  0.5187 -0.2635
   8423SM  H23G11291   3.641   3.469   5.370  0.0540 -1.0346  0.6213
   8423SM  H23H11292   3.595   3.614   5.483 -0.2410 -0.3009 -0.2949
   8523SM     N11293   5.284   4.100   2.673  0.4659  0.5405  0.2781
   8523SM   C1511294   5.165   4.026   2.635  0.0597 -0.0918 -0.7441
   8523SM  H15A11295   5.083   4.097   2.637  0.4886  0.4500  2.8258
   8523SM  H15B11296   5.133   3.959   2.713  0.0345 -1.1571 -1.6520
   8523SM  H15C11297   5.174   3.981   2.537 -1.2896  2.6202 -2.2610
   8523SM   C1411298   5.406   4.018   2.666 -0.0522  0.5508  0.6207
   8523SM  H14A11299   5.485   4.089   2.684 -1.5646  1.9023  2.1358
   8523SM  H14B11300   5.420   3.975   2.567 -0.0493 -0.9367  1.2302
   8523SM  H14C11301   5.413   3.934   2.734 -0.5551 -0.3169 -0.3657
   8523SM   C1311302   5.296   4.207   2.577  0.2175 -0.2767  1.2442
   8523SM  H13A11303   5.201   4.242   2.540 -0.1684 -2.5243 -0.0651
   8523SM  H13B11304   5.351   4.181   2.488 -0.9095 -1.0045  0.7460
   8523SM  H13C11305   5.350   4.286   2.628 -0.6519 -0.1145  1.9403
   8523SM   C1211306   5.260   4.155   2.809  0.0321 -0.2262  0.1905
   8523SM  H12A11307   5.169   4.213   2.813  0.6284  1.0077 -2.0329
   8523SM  H12B11308   5.341   4.222   2.832  1.4507 -1.6865 -0.3725
   8523SM   C1111309   5.273   4.054   2.920 -0.0056  0.1040 -0.1667
   8523SM  H11A11310   5.284   4.122   3.008 -0.5901 -0.3085  0.2327
   8523SM  H11B11311   5.373   4.005   2.923  0.4566  0.9015  4.0937
   8523SM     P11312   5.025   4.012   2.998  0.2624  0.3990 -0.2051
   8523SM   O1311313   4.972   4.130   2.929  0.0138 -0.2676 -0.8034
   8523SM   O1411314   4.940   3.891   3.014 -0.2896  0.0632 -0.4803
   8523SM   O1111315   5.080   4.058   3.140 -0.6205  0.7889 -0.0398
   8523SM   O1211316   5.155   3.967   2.924  0.0360  0.2123 -0.5983
   8523SM   C1S11317   5.163   3.972   3.220  0.4462 -0.2334 -0.6107
   8523SM   H1S11318   5.268   3.975   3.184  0.4069 -1.2878 -0.8510
   8523SM   H1T11319   5.131   3.866   3.227 -0.0825  0.0158  1.3174
   8523SM    NF11320   5.262   3.956   3.436 -0.1249  0.5189  0.2438
   8523SM   HNF11321   5.251   3.893   3.511 -2.5284  0.0603 -0.4111
   8523SM   C2S11322   5.153   4.025   3.369  0.3061 -0.4137 -0.0087
   8523SM   H2S11323   5.164   4.136   3.372 -0.8717 -0.3146  1.3467
   8523SM   C3S11324   5.017   3.994   3.438 -0.0130  0.0692 -0.3177
   8523SM   H3S11325   5.014   3.884   3.455  0.2062 -0.0104 -0.7713
   8523SM    O311326   4.904   4.027   3.359 -0.0606 -0.2398  0.7229
   8523SM   HO311327   4.939   4.045   3.271 -1.8999 -0.7802 -0.1942
   8523SM   C4S11328   5.009   4.056   3.574  0.4788  0.7250  0.3200
   8523SM   H4S11329   5.043   3.989   3.654  3.1295  1.5568 -0.0207
   8523SM   C5S11330   4.980   4.185   3.591 -0.0169  0.2585  0.1611
   8523SM   H5S11331   4.937   4.236   3.503 -1.3817  0.4404  0.9131
   8523SM   C6S11332   4.966   4.249   3.725  0.0751  0.1461  0.5420
   8523SM   H6S11333   4.873   4.309   3.726 -0.7098 -1.0007 -0.6091
   8523SM   H6T11334   5.047   4.326   3.728  0.5078 -0.3257  1.2332
   8523SM   C7S11335   4.969   4.157   3.852 -0.7187 -0.0039  0.2281
   8523SM   H7S11336   5.061   4.096   3.856 -0.0278  1.0462  0.9440
   8523SM   H7T11337   4.887   4.082   3.850 -2.4230  1.7706  0.3607
   8523SM   C8S11338   4.960   4.238   3.979  1.0730 -0.3258  0.1694
   8523SM   H8S11339   4.856   4.279   3.982  0.5496 -1.5550 -0.4839
   8523SM   H8T11340   5.038   4.316   3.970  2.7070 -1.8912  0.2849
   8523SM   C9S11341   4.979   4.157   4.108  0.0615  0.1674  0.0172
   8523SM   H9S11342   5.088   4.136   4.110  0.6140  2.6845  1.0287
   8523SM   H9T11343   4.919   4.064   4.102 -1.4403  0.6837  3.8714
   8523SM  C10S11344   4.943   4.236   4.236 -0.8311 -0.1929 -1.0258
   8523SM  H10S11345   4.841   4.273   4.212 -0.7447 -0.2502 -1.4983
   8523SM  H10T11346   5.010   4.324   4.244  1.4753 -1.9659  0.2449
   8523SM  C11S11347   4.940   4.138   4.361 -0.1697 -0.3131 -0.0151
   8523SM  H11S11348   5.034   4.082   4.378  0.0005  0.2294  0.9157
   8523SM  H11T11349   4.870   4.057   4.331  0.7067 -1.0887 -0.0184
   8523SM  C12S11350   4.887   4.198   4.492 -0.3322  0.3261  0.3487
   8523SM  H12S11351   4.790   4.251   4.479 -0.4825  0.3447  1.4434
   8523SM  H12T11352   4.956   4.272   4.538  1.9139 -1.3225 -0.1921
   8523SM  C13S11353   4.860   4.080   4.584 -0.2269 -0.0552  0.4810
   8523SM  H13S11354   4.959   4.041   4.615 -0.6751 -0.0945  1.9183
   8523SM  H13T11355   4.802   4.003   4.528  0.5088 -0.9932  0.9757
   8523SM  C14S11356   4.770   4.118   4.701  0.5087 -0.6720  0.9242
   8523SM  H14S11357   4.663   4.134   4.675  0.5745 -2.0759 -0.3757
   8523SM  H14T11358   4.795   4.219   4.737 -0.5269 -0.0448 -0.0493
   8523SM  C15S11359   4.776   4.017   4.817  0.1635  0.3482 -0.4442
   8523SM  H15S11360   4.869   4.042   4.872  2.0092 -0.1628 -3.1219
   8523SM  H15T11361   4.787   3.916   4.773  2.7957  1.3527 -2.4165
   8523SM  C16S11362   4.660   4.036   4.921 -0.4069  0.1962 -0.5748
   8523SM  H16S11363   4.651   3.944   4.982  1.0082 -0.3593 -1.1804
   8523SM  H16T11364   4.557   4.046   4.881 -1.0993 -0.3170  1.0000
   8523SM  C17S11365   4.684   4.170   5.010 -0.5381 -0.3447 -0.4522
   8523SM  H17S11366   4.693   4.254   4.938  0.0942  0.6965  0.7965
   8523SM  H17T11367   4.783   4.152   5.057 -0.4591  0.0740 -0.4555
   8523SM  C18S11368   4.578   4.201   5.114 -0.0013 -0.1473  0.5215
   8523SM  H18S11369   4.557   4.115   5.181 -0.4494  0.7365  1.5413
   8523SM  H18T11370   4.481   4.218   5.062 -0.3658  1.0767  1.5582
   8523SM  H18U11371   4.593   4.297   5.167 -0.3167 -0.1735  0.6609
   8523SM   C1F11372   5.396   3.976   3.411  1.0933 -0.7266 -0.8280
   8523SM    OF11373   5.429   4.058   3.324 -0.1404 -0.4132 -0.2645
   8523SM   C2F11374   5.493   3.901   3.489  0.3071 -0.1224 -1.1723
   8523SM   H2F11375   5.513   3.799   3.449 -0.4101 -0.4803 -0.6417
   8523SM   H2G11376   5.454   3.894   3.593  1.9638 -2.6454 -0.6184
   8523SM   C3F11377   5.637   3.966   3.494 -0.2413 -0.3173 -0.2079
   8523SM   H3F11378   5.677   3.979   3.391 -0.2960  3.6815  0.1228
   8523SM   H3G11379   5.701   3.891   3.545 -0.4272 -1.8954 -2.1829
   8523SM   C4F11380   5.645   4.106   3.557  0.0677  0.2042 -0.5770
   8523SM   H4F11381   5.582   4.185   3.510 -0.9429 -0.8152 -0.9795
   8523SM   H4G11382   5.751   4.138   3.549  0.8962 -2.3835 -0.8576
   8523SM   C5F11383   5.611   4.112   3.706 -0.5808  0.2278  0.4645
   8523SM   H5F11384   5.691   4.171   3.754 -1.2593  1.4966  0.0756
   8523SM   H5G11385   5.629   4.004   3.725  1.8863 -0.1888 -3.2619
   8523SM   C6F11386   5.467   4.153   3.721 -0.8691 -0.8700 -0.4497
   8523SM   H6F11387   5.406   4.106   3.641  0.0204  0.0558 -1.7014
   8523SM   H6G11388   5.471   4.263   3.713 -1.1910 -0.6943  1.2657
   8523SM   C7F11389   5.425   4.127   3.866 -0.4646  0.3768 -0.3643
   8523SM   H7F11390   5.319   4.160   3.879 -1.2678 -1.8901 -0.7694
   8523SM   H7G11391   5.498   4.183   3.928  1.0771  0.0886 -1.8582
   8523SM   C8F11392   5.418   3.979   3.909 -0.3701 -0.2732 -0.7430
   8523SM   H8F11393   5.521   3.936   3.915 -0.0683  0.2890 -1.6479
   8523SM   H8G11394   5.364   3.929   3.826 -0.5425 -0.9710 -0.2133
   8523SM   C9F11395   5.339   3.955   4.036  0.3651  0.5625 -0.6872
   8523SM   H9F11396   5.341   3.844   4.031  0.5089  0.5763 -0.9801
   8523SM   H9G11397   5.231   3.980   4.033  0.9982  3.6643 -1.4756
   8523SM  C10F11398   5.410   4.007   4.158 -0.0811  0.3130  0.2013
   8523SM  H10F11399   5.404   4.118   4.154 -1.2972  0.2764  0.6976
   8523SM  H10G11400   5.516   3.973   4.162 -0.1981  0.0483  1.5178
   8523SM  C11F11401   5.337   3.980   4.287  0.1493  0.2405  0.0115
   8523SM  H11F11402   5.336   3.872   4.313  2.8628  0.3589  0.9378
   8523SM  H11G11403   5.228   4.001   4.277 -0.4125 -1.6700  1.5330
   8523SM  C12F11404   5.390   4.055   4.409 -0.7787  0.2895 -0.3016
   8523SM  H12F11405   5.369   4.164   4.397 -0.3038  0.4043 -0.1117
   8523SM  H12G11406   5.498   4.033   4.425 -0.8192  0.6988  0.6097
   8523SM  C13F11407   5.312   4.013   4.532 -0.2200  0.1365  0.0794
   8523SM  H13F11408   5.343   3.916   4.575 -2.3402 -0.5402  0.1831
   8523SM  H13G11409   5.209   3.984   4.500  0.2586  0.3620 -1.7769
   8523SM  C14F11410   5.297   4.127   4.645  0.1433 -0.0654 -0.2694
   8523SM  H14F11411   5.264   4.066   4.732  1.5580  0.8898  0.9993
   8523SM  H14G11412   5.211   4.195   4.627 -0.7961 -0.9250  0.8327
   8523SM  C15F11413   5.426   4.198   4.673 -0.1057  0.4237 -0.3719
   8523SM  H15F11414   5.401   4.291   4.729 -1.6983  0.0730 -0.4272
   8523SM  H15G11415   5.462   4.251   4.583 -1.3110  2.1105  0.0745
   8523SM  C16F11416   5.529   4.106   4.743  0.8783  0.2393 -0.3658
   8523SM  H16F11417   5.576   4.033   4.674  1.1184 -0.2569  0.3193
   8523SM  H16G11418   5.484   4.056   4.831  1.5873 -0.6801 -0.5078
   8523SM  C17F11419   5.636   4.190   4.808  0.0464  0.1598 -0.3320
   8523SM  H17F11420   5.583   4.254   4.882 -0.5220  1.3321 -1.7125
   8523SM  H17G11421   5.685   4.257   4.734  1.0973  0.7497  0.8728
   8523SM  C18F11422   5.759   4.120   4.873 -0.1402 -0.1870  0.3493
   8523SM  H18F11423   5.733   4.051   4.956  0.7855 -2.2977 -1.0016
   8523SM  H18G11424   5.818   4.205   4.912 -0.5082  0.0397  0.4098
   8523SM  C19F11425   5.845   4.041   4.771  0.2558  0.3873 -0.3715
   8523SM  H19F11426   5.851   4.096   4.674 -2.0864  0.3222 -0.6129
   8523SM  H19G11427   5.794   3.944   4.758  0.7482 -0.2099  1.8479
   8523SM  C20F11428   5.987   4.000   4.816 -0.3481 -0.7480 -0.2125
   8523SM  H20F11429   6.036   3.927   4.748  2.7225 -0.8447  1.8653
   8523SM  H20G11430   5.992   3.951   4.916 -1.8555 -1.2653 -0.3579
   8523SM  C21F11431   6.082   4.121   4.805  0.5804  0.1565 -0.1586
   8523SM  H21F11432   6.029   4.216   4.832  1.9100  1.9006 -3.1986
   8523SM  H21G11433   6.116   4.121   4.700  0.1753  1.5181 -0.3178
   8523SM  C22F11434   6.191   4.104   4.897 -0.0398  0.2434 -0.4550
   8523SM  H22F11435   6.227   4.005   4.862  0.9133  0.0447  0.9933
   8523SM  H22G11436   6.147   4.086   4.997  1.1456 -0.5080 -0.0433
   8523SM  C23F11437   6.300   4.210   4.903 -0.3989  0.1916  0.4076
   8523SM  H23F11438   6.271   4.300   4.962  0.7110  2.3038 -2.0595
   8523SM  H23G11439   6.315   4.256   4.803 -1.6941  0.1522  0.1710
   8523SM  H23H11440   6.393   4.162   4.940 -0.1085 -0.4703 -1.1229
   8623SM     N11441   2.549   2.917   2.819  0.6296 -0.3433  0.6698
   8623SM   C1511442   2.533   3.061   2.780  0.3574 -0.3193  0.7542
   8623SM  H15A11443   2.570   3.127   2.858 -2.1154  1.2806  0.6797
   8623SM  H15B11444   2.430   3.093   2.772 -0.5207 -3.1166 -0.1639
   8623SM  H15C11445   2.581   3.087   2.687 -0.6551 -0.5007  0.1653
   8623SM   C1411446   2.504   2.909   2.961 -0.2800 -0.1396 -0.0608
   8623SM  H14A11447   2.476   2.808   2.984 -0.2095 -0.2203 -0.3237
   8623SM  H14B11448   2.423   2.978   2.976  1.1897  1.3724  1.3699
   8623SM  H14C11449   2.585   2.931   3.030 -0.7131 -0.6879  0.6278
   8623SM   C1311450   2.480   2.830   2.711  0.0729  0.0003 -0.2672
   8623SM  H13A11451   2.532   2.736   2.701 -0.1913 -0.1719 -0.0235
   8623SM  H13B11452   2.460   2.879   2.617  0.2636 -1.4356 -1.0971
   8623SM  H13C11453   2.383   2.805   2.751 -0.4253  1.0566 -0.7782
   8623SM   C1211454   2.698   2.882   2.810 -0.0342 -0.0866  0.6779
   8623SM  H12A11455   2.722   2.899   2.706 -1.6062  0.1757  0.3435
   8623SM  H12B11456   2.710   2.778   2.837 -0.1739 -0.2432  0.1374
   8623SM   C1111457   2.794   2.968   2.899 -0.9188 -0.2867  0.2205
   8623SM  H11A11458   2.783   3.078   2.891  0.5545 -0.0273  1.3691
   8623SM  H11B11459   2.892   2.943   2.854  0.0371  2.5781  0.5246
   8623SM     P11460   2.866   2.812   3.097 -0.5044 -0.0347  0.1411
   8623SM   O1311461   2.793   2.686   3.087  0.2346  0.6655 -0.0542
   8623SM   O1411462   2.996   2.808   3.027 -0.1674  0.0738  0.1237
   8623SM   O1111463   2.880   2.841   3.251  0.1571  0.5582  0.2233
   8623SM   O1211464   2.782   2.931   3.040 -0.2327  0.4219  0.0672
   8623SM   C1S11465   2.774   2.814   3.347  0.5558  0.3825  0.0958
   8623SM   H1S11466   2.769   2.704   3.363  1.6886  0.3469  0.2514
   8623SM   H1T11467   2.672   2.841   3.311  0.4568  0.6348  0.5657
   8623SM    NF11468   2.713   2.814   3.581  0.0265 -0.3966 -0.3226
   8623SM   HNF11469   2.628   2.861   3.604  0.5992  0.6539 -0.3004
   8623SM   C2S11470   2.794   2.877   3.483 -0.2105 -0.3477 -0.5024
   8623SM   H2S11471   2.899   2.862   3.514 -0.7249 -1.5888  0.8149
   8623SM   C3S11472   2.765   3.031   3.476  0.2318 -0.1405 -0.2563
   8623SM   H3S11473   2.659   3.054   3.455  0.7196  2.2525 -0.3693
   8623SM    O311474   2.834   3.097   3.373 -0.4957 -0.4757  0.4741
   8623SM   HO311475   2.891   3.030   3.334  0.4920  0.1051  0.8844
   8623SM   C4S11476   2.793   3.089   3.618  0.7114 -0.4103  0.5645
   8623SM   H4S11477   2.707   3.079   3.686 -0.9022 -1.2556 -1.5094
   8623SM   C5S11478   2.905   3.157   3.664  0.5168  0.3860 -0.1419
   8623SM   H5S11479   2.988   3.183   3.596  1.4353  1.6782  1.4026
   8623SM   C6S11480   2.922   3.208   3.801  0.2431 -0.3314 -0.2605
   8623SM   H6S11481   2.920   3.319   3.798 -0.1028 -0.3030  0.6533
   8623SM   H6T11482   3.026   3.180   3.828  0.0883 -0.9717 -0.3197
   8623SM   C7S11483   2.823   3.168   3.912 -0.5221 -0.0759  0.2522
   8623SM   H7S11484   2.718   3.184   3.877 -0.4968 -0.5682 -0.0495
   8623SM   H7T11485   2.832   3.246   3.991  0.2986  1.8154 -1.6083
   8623SM   C8S11486   2.826   3.019   3.969  0.2651 -0.0135  0.2391
   8623SM   H8S11487   2.914   3.013   4.036  0.2425  2.5394  0.6098
   8623SM   H8T11488   2.845   2.952   3.882  1.0397  0.4765  0.0170
   8623SM   C9S11489   2.697   2.988   4.051 -0.6701 -0.3132 -0.1367
   8623SM   H9S11490   2.602   3.024   4.007  0.3934  1.6571 -0.9733
   8623SM   H9T11491   2.706   3.049   4.144  2.8587  1.7776 -1.6357
   8623SM  C10S11492   2.689   2.843   4.084  0.3554 -0.5690  0.2780
   8623SM  H10S11493   2.677   2.774   3.998 -0.3754 -2.5926  1.9137
   8623SM  H10T11494   2.601   2.822   4.148 -0.0185  0.0669 -0.0173
   8623SM  C11S11495   2.806   2.791   4.172  0.1757 -0.0287  0.5366
   8623SM  H11S11496   2.904   2.802   4.120 -0.2678 -0.6626 -0.4626
   8623SM  H11T11497   2.785   2.682   4.182  1.2046 -0.4572 -1.3625
   8623SM  C12S11498   2.816   2.848   4.312  0.0335  0.3862 -0.8809
   8623SM  H12S11499   2.722   2.888   4.358  0.2631  0.1565 -0.1950
   8623SM  H12T11500   2.887   2.931   4.334  1.3104 -1.4541  2.7414
   8623SM  C13S11501   2.871   2.743   4.410  0.0841  0.3983  0.1113
   8623SM  H13S11502   2.946   2.680   4.358 -0.4242  0.2523 -0.4536
   8623SM  H13T11503   2.788   2.679   4.447  2.2074 -0.7372  3.3746
   8623SM  C14S11504   2.907   2.806   4.543 -0.3112  0.2376  0.7000
   8623SM  H14S11505   2.816   2.831   4.602 -1.9452 -0.3690 -1.4331
   8623SM  H14T11506   2.954   2.904   4.524 -1.4606  0.9570  1.4185
   8623SM  C15S11507   3.004   2.720   4.624  0.8154  0.1461  0.6838
   8623SM  H15S11508   2.977   2.613   4.620  1.3188 -0.0138  1.4467
   8623SM  H15T11509   3.001   2.753   4.730 -0.0825 -1.1626  1.0838
   8623SM  C16S11510   3.142   2.738   4.572  0.0187 -0.3543 -0.5671
   8623SM  H16S11511   3.164   2.845   4.556  1.6590 -0.5454  0.1238
   8623SM  H16T11512   3.138   2.693   4.471 -1.2919  0.8175 -1.0534
   8623SM  C17S11513   3.263   2.674   4.653  0.7010 -0.6180  0.3223
   8623SM  H17S11514   3.290   2.577   4.605  3.2797  1.1089 -1.9879
   8623SM  H17T11515   3.219   2.644   4.751  0.4307 -3.7954 -0.6472
   8623SM  C18S11516   3.382   2.765   4.659  0.7672 -0.3603  0.0907
   8623SM  H18S11517   3.404   2.812   4.560 -1.3456 -3.8392 -2.2700
   8623SM  H18T11518   3.473   2.724   4.708  2.5340 -0.7729 -3.2429
   8623SM  H18U11519   3.339   2.852   4.714  1.5809  0.1019  0.0062
   8623SM   C1F11520   2.728   2.691   3.620 -0.2104  0.0655  0.3535
   8623SM    OF11521   2.826   2.625   3.577  0.3327 -0.1099  0.2203
   8623SM   C2F11522   2.629   2.620   3.708  0.5695  0.5570  0.2615
   8623SM   H2F11523   2.558   2.558   3.649 -0.3297  0.0356  1.8576
   8623SM   H2G11524   2.562   2.702   3.742 -1.0003 -0.6297  0.1248
   8623SM   C3F11525   2.699   2.530   3.812 -0.2884 -0.6147  0.1544
   8623SM   H3F11526   2.795   2.579   3.840  1.8697 -2.1921 -3.7190
   8623SM   H3G11527   2.712   2.433   3.760 -0.3530 -0.0093 -1.0306
   8623SM   C4F11528   2.608   2.495   3.930  0.3075  0.3487 -0.2206
   8623SM   H4F11529   2.534   2.416   3.901 -0.9325  0.8720  1.3498
   8623SM   H4G11530   2.550   2.584   3.962 -0.3506 -0.2743  0.3498
   8623SM   C5F11531   2.692   2.450   4.048  0.4777 -0.0364  0.0414
   8623SM   H5F11532   2.769   2.529   4.062  3.6227 -3.0242  1.1195
   8623SM   H5G11533   2.741   2.354   4.021 -0.9234 -0.5296 -0.8486
   8623SM   C6F11534   2.616   2.443   4.183 -0.7529  0.7741  0.6563
   8623SM   H6F11535   2.528   2.378   4.159  0.1853  0.2060 -1.5266
   8623SM   H6G11536   2.586   2.548   4.203 -0.8410  0.4703  2.2239
   8623SM   C7F11537   2.691   2.381   4.307  0.0478  0.2118  0.0535
   8623SM   H7F11538   2.785   2.431   4.341 -0.7903  1.7692  0.1934
   8623SM   H7G11539   2.718   2.276   4.285  1.6707  0.4321  0.8000
   8623SM   C8F11540   2.600   2.395   4.428  0.0051 -0.5921 -0.3060
   8623SM   H8F11541   2.492   2.377   4.408 -0.6595  0.6927  1.7565
   8623SM   H8G11542   2.598   2.503   4.455 -1.0694 -1.0382  1.6025
   8623SM   C9F11543   2.637   2.321   4.556 -0.1106  0.2731 -0.2705
   8623SM   H9F11544   2.576   2.353   4.644  1.6211  2.4881  0.2062
   8623SM   H9G11545   2.736   2.351   4.595  0.4009 -1.2900 -0.3069
   8623SM  C10F11546   2.631   2.164   4.541 -0.4868  0.4672  0.7614
   8623SM  H10F11547   2.731   2.129   4.573  0.8869  2.7589 -0.7280
   8623SM  H10G11548   2.606   2.139   4.436 -0.3005  0.2197  0.7757
   8623SM  C11F11549   2.530   2.101   4.638 -0.3485 -0.5563 -0.0057
   8623SM  H11F11550   2.423   2.105   4.606 -0.5055  0.9529  0.6663
   8623SM  H11G11551   2.556   2.148   4.735  0.4509 -0.1208 -0.4257
   8623SM  C12F11552   2.558   1.951   4.658 -0.2792 -0.6028 -0.3468
   8623SM  H12F11553   2.666   1.952   4.685 -0.2344  0.3180 -0.5207
   8623SM  H12G11554   2.555   1.903   4.558 -0.8287  1.1131 -1.1912
   8623SM  C13F11555   2.474   1.885   4.767 -0.0537 -0.3086  0.1380
   8623SM  H13F11556   2.368   1.887   4.735 -0.6704  2.7302  1.9299
   8623SM  H13G11557   2.501   1.950   4.853 -0.3389  0.1840 -0.1406
   8623SM  C14F11558   2.520   1.736   4.793 -1.0628  0.1790  0.2857
   8623SM  H14F11559   2.629   1.757   4.793 -1.2661  1.3694  1.5926
   8623SM  H14G11560   2.497   1.675   4.703  0.2728 -2.2772  1.5041
   8623SM  C15F11561   2.463   1.674   4.920 -0.0510 -0.2510  0.6203
   8623SM  H15F11562   2.353   1.677   4.905  0.1880  1.6871 -1.2299
   8623SM  H15G11563   2.507   1.743   4.996  0.2147  1.4377 -0.9783
   8623SM  C16F11564   2.513   1.533   4.949 -0.5098 -0.2318  0.1646
   8623SM  H16F11565   2.617   1.538   4.987 -0.4975 -0.6374  0.1881
   8623SM  H16G11566   2.519   1.476   4.854  0.6663  1.4601 -0.8281
   8623SM  C17F11567   2.432   1.463   5.051  0.4784  0.3315 -1.0863
   8623SM  H17F11568   2.477   1.362   5.062 -2.0703 -0.6945  1.1257
   8623SM  H17G11569   2.325   1.455   5.024  0.9745  0.8877 -3.4390
   8623SM  C18F11570   2.452   1.522   5.188  0.4515 -0.0956  0.5014
   8623SM  H18F11571   2.415   1.627   5.182  2.6940  0.6575 -1.3937
   8623SM  H18G11572   2.557   1.538   5.219  0.1346 -1.4465  2.4935
   8623SM  C19F11573   2.381   1.451   5.306  0.1775 -0.6610  0.7519
   8623SM  H19F11574   2.426   1.350   5.318 -1.7426 -1.5780  0.7775
   8623SM  H19G11575   2.276   1.427   5.276  0.1446  1.6275 -1.3036
   8623SM  C20F11576   2.381   1.533   5.429 -0.0250  0.0129  0.6105
   8623SM  H20F11577   2.491   1.553   5.435  0.2979 -1.4682  0.0389
   8623SM  H20G11578   2.340   1.481   5.517 -2.2390  0.9289  0.1758
   8623SM  C21F11579   2.308   1.666   5.421  0.5318 -0.0428 -0.3178
   8623SM  H21F11580   2.336   1.719   5.327 -0.3616  0.7894 -0.1252
   8623SM  H21G11581   2.338   1.730   5.507  0.6999 -1.9004  1.0659
   8623SM  C22F11582   2.152   1.640   5.426 -0.2717  0.1882  0.4133
   8623SM  H22F11583   2.138   1.599   5.529 -2.0832 -2.8352 -0.9280
   8623SM  H22G11584   2.133   1.561   5.351 -0.1466  0.7027 -0.1605
   8623SM  C23F11585   2.063   1.760   5.391 -0.1315  0.4789  0.2005
   8623SM  H23F11586   1.960   1.729   5.363 -0.9529  1.8029  1.6319
   8623SM  H23G11587   2.102   1.823   5.308 -0.9737 -2.4765 -2.6372
   8623SM  H23H11588   2.051   1.817   5.485 -0.2932 -1.5011  1.4277
   8723SM     N11589   4.445   2.171   3.055 -0.0969 -0.6812 -0.9141
   8723SM   C1511590   4.573   2.165   3.132  0.1884  0.2794 -0.5341
   8723SM  H15A11591   4.546   2.207   3.228 -1.0774 -0.0570 -0.7199
   8723SM  H15B11592   4.654   2.224   3.093  0.2033  1.2244  0.8663
   8723SM  H15C11593   4.607   2.062   3.137  2.0917  0.7721 -2.2963
   8723SM   C1411594   4.468   2.115   2.912  0.5024 -0.7592  0.0714
   8723SM  H14A11595   4.375   2.105   2.857  0.4594 -0.3517  0.0693
   8723SM  H14B11596   4.495   2.011   2.923  1.2292 -0.6306 -0.4589
   8723SM  H14C11597   4.543   2.166   2.854 -0.6866 -1.4876 -2.2255
   8723SM   C1311598   4.354   2.079   3.125  0.2777  0.4790 -0.6160
   8723SM  H13A11599   4.261   2.065   3.071 -0.9671  0.6331  1.3789
   8723SM  H13B11600   4.322   2.108   3.224  1.8048 -1.3124  0.4635
   8723SM  H13C11601   4.405   1.986   3.145 -0.7733 -0.1031 -0.5314
   8723SM   C1211602   4.386   2.312   3.044  0.2680  0.4731 -0.3754
   8723SM  H12A11603   4.293   2.313   2.989  1.1756  0.9793 -1.9775
   8723SM  H12B11604   4.457   2.367   2.984  0.3227 -1.7271 -2.5088
   8723SM   C1111605   4.373   2.383   3.179  0.4767  0.3789  0.1817
   8723SM  H11A11606   4.318   2.309   3.242  0.0931 -0.3097 -0.9385
   8723SM  H11B11607   4.321   2.480   3.164 -1.1149 -0.7395 -2.0371
   8723SM     P11608   4.614   2.496   3.185  0.6108  0.0323 -0.2152
   8723SM   O1311609   4.740   2.468   3.250  0.1647 -0.0569 -0.3810
   8723SM   O1411610   4.615   2.503   3.040 -0.0123  0.3222 -0.0022
   8723SM   O1111611   4.562   2.639   3.234  0.1294  0.3205 -0.0816
   8723SM   O1211612   4.500   2.404   3.242  0.2840 -0.0283 -0.1492
   8723SM   C1S11613   4.528   2.653   3.371 -1.0083  0.2740 -0.1661
   8723SM   H1S11614   4.618   2.674   3.434 -1.1999  0.2807  0.1081
   8723SM   H1T11615   4.474   2.561   3.404 -0.2450 -0.1833 -0.1633
   8723SM    NF11616   4.410   2.779   3.537  0.2628 -0.1459 -0.3316
   8723SM   HNF11617   4.330   2.731   3.573 -0.0914 -0.4146 -1.4353
   8723SM   C2S11618   4.432   2.769   3.396  0.3201 -0.0599  0.0487
   8723SM   H2S11619   4.483   2.861   3.360 -1.8137  0.6899 -1.1987
   8723SM   C3S11620   4.309   2.757   3.310 -0.0315 -0.5840 -0.2325
   8723SM   H3S11621   4.267   2.654   3.314  0.1616 -0.6592 -0.1245
   8723SM    O311622   4.334   2.762   3.172  0.2544 -0.4854 -0.6084
   8723SM   HO311623   4.417   2.716   3.169  0.6211  0.1845 -0.9497
   8723SM   C4S11624   4.216   2.867   3.358 -0.0817  0.4781  0.0677
   8723SM   H4S11625   4.229   2.970   3.324  1.2662  0.4662  0.4949
   8723SM   C5S11626   4.103   2.837   3.423 -0.1230  0.3141  0.3406
   8723SM   H5S11627   4.069   2.738   3.456 -2.2179  0.0368 -2.2739
   8723SM   C6S11628   4.012   2.951   3.463 -0.0211  0.0093 -0.5591
   8723SM   H6S11629   3.925   2.930   3.397 -0.5366 -0.5961  0.2895
   8723SM   H6T11630   4.060   3.047   3.437 -0.5664  0.8002  1.1857
   8723SM   C7S11631   3.986   2.948   3.615  0.1044 -0.3805  0.2322
   8723SM   H7S11632   3.931   2.856   3.644 -1.9354 -0.0614 -2.2186
   8723SM   H7T11633   3.913   3.027   3.644 -1.4046 -0.4327 -2.9854
   8723SM   C8S11634   4.114   2.965   3.691 -0.0440  0.0157  0.2315
   8723SM   H8S11635   4.160   3.050   3.635 -3.3312  1.4751 -0.4955
   8723SM   H8T11636   4.189   2.885   3.672 -1.0726 -0.4111 -2.5997
   8723SM   C9S11637   4.094   3.002   3.838 -0.3771  0.3579  0.3773
   8723SM   H9S11638   4.004   3.068   3.839  0.0904  1.1223 -1.9422
   8723SM   H9T11639   4.183   3.056   3.877 -0.4971  1.5579 -0.9278
   8723SM  C10S11640   4.048   2.888   3.928  0.0795 -0.0151 -0.2048
   8723SM  H10S11641   4.128   2.811   3.923 -0.6503 -0.7695 -0.5782
   8723SM  H10T11642   3.951   2.840   3.904 -0.0437 -0.1299  0.4910
   8723SM  C11S11643   4.030   2.943   4.074 -0.5398 -0.1084  0.2712
   8723SM  H11S11644   3.947   3.018   4.075  0.3194  0.8584  1.7813
   8723SM  H11T11645   4.123   2.999   4.095 -0.0888 -0.2887 -1.1352
   8723SM  C12S11646   4.001   2.837   4.179  0.2409 -0.3265 -1.5250
   8723SM  H12S11647   4.081   2.761   4.169  0.4452 -0.3951  0.3066
   8723SM  H12T11648   3.906   2.788   4.151  0.6290 -0.9713 -1.7355
   8723SM  C13S11649   3.998   2.896   4.321  0.2122  0.4076  0.3756
   8723SM  H13S11650   3.942   2.991   4.310  0.6671  0.8737  1.8915
   8723SM  H13T11651   4.102   2.909   4.359  1.0743  1.0244 -1.9840
   8723SM  C14S11652   3.908   2.824   4.420  0.4473 -0.2112 -0.0579
   8723SM  H14S11653   3.968   2.732   4.431  4.1318  1.9604 -0.3060
   8723SM  H14T11654   3.814   2.796   4.367  0.3514 -0.4397  0.2322
   8723SM  C15S11655   3.894   2.904   4.549  0.9568 -0.8015 -0.1573
   8723SM  H15S11656   3.826   2.991   4.531 -0.6060 -1.7161  1.0764
   8723SM  H15T11657   3.994   2.943   4.577  0.8490  0.9321 -1.9213
   8723SM  C16S11658   3.832   2.819   4.655 -0.8663 -0.0401  0.2794
   8723SM  H16S11659   3.914   2.747   4.675 -1.0282  0.0476  1.3013
   8723SM  H16T11660   3.737   2.773   4.623 -0.9901 -0.2848  0.9876
   8723SM  C17S11661   3.810   2.898   4.791  0.7328 -0.1535  0.1044
   8723SM  H17S11662   3.741   2.984   4.779  1.6319  0.4991 -0.5137
   8723SM  H17T11663   3.908   2.948   4.806 -0.0904  2.1558 -1.6745
   8723SM  C18S11664   3.771   2.801   4.902 -0.1123  0.0967  0.0116
   8723SM  H18S11665   3.688   2.737   4.866  1.2669 -1.2420 -0.9207
   8723SM  H18T11666   3.749   2.857   4.996 -2.9805 -1.8929  0.6599
   8723SM  H18U11667   3.862   2.744   4.931  1.1630  1.6239 -0.8464
   8723SM   C1F11668   4.499   2.820   3.630 -0.4311  0.2723  0.0065
   8723SM    OF11669   4.604   2.880   3.595  0.4715 -0.1907  0.4129
   8723SM   C2F11670   4.470   2.805   3.773  0.2289  0.3256  1.4347
   8723SM   H2F11671   4.473   2.699   3.806 -0.6650 -0.2202 -0.1451
   8723SM   H2G11672   4.369   2.850   3.781  0.0401  0.9645 -2.5479
   8723SM   C3F11673   4.547   2.899   3.861 -0.3994 -0.0828  0.6604
   8723SM   H3F11674   4.529   3.005   3.833 -2.5587 -0.1618  1.4880
   8723SM   H3G11675   4.655   2.876   3.852 -0.0802  1.4626  0.2767
   8723SM   C4F11676   4.495   2.895   4.007 -0.4763  0.6129 -0.5752
   8723SM   H4F11677   4.387   2.920   4.018 -0.5517  0.6754 -1.3925
   8723SM   H4G11678   4.542   2.969   4.075 -1.2863  0.8977 -0.3148
   8723SM   C5F11679   4.533   2.768   4.082 -0.1690  0.1435  0.4964
   8723SM   H5F11680   4.641   2.747   4.078 -0.0963  0.5117  0.4630
   8723SM   H5G11681   4.488   2.679   4.032  1.0715  0.8078 -1.9954
   8723SM   C6F11682   4.483   2.770   4.228  0.0366  0.1000 -0.5258
   8723SM   H6F11683   4.377   2.804   4.223 -1.1416 -2.3979  3.4060
   8723SM   H6G11684   4.545   2.847   4.278 -1.4748  0.5361  0.7258
   8723SM   C7F11685   4.499   2.633   4.296  0.4305 -0.0298 -0.0493
   8723SM   H7F11686   4.608   2.611   4.289  0.5171  0.5608 -0.8204
   8723SM   H7G11687   4.446   2.557   4.234 -0.2335  0.1813  0.2537
   8723SM   C8F11688   4.456   2.646   4.447  0.4136  0.1798  0.6091
   8723SM   H8F11689   4.529   2.701   4.510  1.7791 -0.9440  0.0448
   8723SM   H8G11690   4.443   2.542   4.484 -2.2896 -0.3134 -1.3819
   8723SM   C9F11691   4.319   2.723   4.464 -0.3490 -0.0420  0.2224
   8723SM   H9F11692   4.253   2.690   4.381  0.0373 -1.3948  0.4348
   8723SM   H9G11693   4.341   2.831   4.450  1.5278 -0.3817  0.2688
   8723SM  C10F11694   4.245   2.698   4.593 -0.0961  0.2290 -0.1234
   8723SM  H10F11695   4.220   2.592   4.616 -0.3272  0.5920  1.4335
   8723SM  H10G11696   4.145   2.746   4.589  1.0141  2.8247  0.9914
   8723SM  C11F11697   4.310   2.745   4.722 -0.4442  0.0618 -0.0181
   8723SM  H11F11698   4.342   2.851   4.714 -2.6474  0.9440  1.7980
   8723SM  H11G11699   4.395   2.678   4.746 -1.0119 -1.1498 -1.2819
   8723SM  C12F11700   4.207   2.762   4.838 -0.0499  0.5137 -0.1158
   8723SM  H12F11701   4.142   2.676   4.862  2.1402 -0.9421  0.9213
   8723SM  H12G11702   4.157   2.852   4.796  0.9162  0.9909 -0.2820
   8723SM  C13F11703   4.262   2.808   4.972 -0.5387 -0.0355 -0.0617
   8723SM  H13F11704   4.331   2.894   4.978 -0.0892 -0.2374 -1.8041
   8723SM  H13G11705   4.320   2.719   5.004  2.1737  0.7774 -2.2505
   8723SM  C14F11706   4.146   2.838   5.064 -0.1208  0.7128  0.6263
   8723SM  H14F11707   4.073   2.755   5.073  0.9916 -0.2475  1.1006
   8723SM  H14G11708   4.081   2.922   5.034 -3.6331 -1.0388  2.6496
   8723SM  C15F11709   4.196   2.872   5.207 -0.0866 -0.8313  0.0656
   8723SM  H15F11710   4.276   2.947   5.188 -2.4547  1.5582 -1.1067
   8723SM  H15G11711   4.242   2.786   5.260 -0.1180 -1.1673 -0.4459
   8723SM  C16F11712   4.096   2.933   5.307 -0.0989  0.0358  0.1537
   8723SM  H16F11713   4.068   3.035   5.273 -2.6229 -0.9303 -0.9535
   8723SM  H16G11714   4.146   2.939   5.406 -0.1243 -3.0044  0.4429
   8723SM  C17F11715   3.965   2.842   5.306 -0.0197 -0.0199  0.0001
   8723SM  H17F11716   4.004   2.740   5.328  1.1855  0.4142 -0.0470
   8723SM  H17G11717   3.907   2.828   5.212  1.5455 -3.8881 -0.5981
   8723SM  C18F11718   3.875   2.893   5.428 -0.0091 -0.1663 -0.3872
   8723SM  H18F11719   3.928   2.892   5.526 -0.4902  0.3553 -0.1129
   8723SM  H18G11720   3.795   2.817   5.438  1.7531 -2.0243  0.1947
   8723SM  C19F11721   3.810   3.033   5.423  0.5777 -0.0665 -0.2923
   8723SM  H19F11722   3.755   3.046   5.327 -1.1495 -0.5730  0.5810
   8723SM  H19G11723   3.886   3.112   5.440 -1.4253  1.9119 -0.0280
   8723SM  C20F11724   3.709   3.054   5.535  0.2268 -0.2802  0.5597
   8723SM  H20F11725   3.751   3.022   5.633 -0.2201  1.0326  1.2156
   8723SM  H20G11726   3.621   2.990   5.515 -0.3960 -0.0085  2.2714
   8723SM  C21F11727   3.665   3.202   5.537 -0.6837  0.4280  0.0230
   8723SM  H21F11728   3.617   3.229   5.440  0.9174  0.0491 -0.9097
   8723SM  H21G11729   3.755   3.266   5.539 -0.9140  0.7372  1.1672
   8723SM  C22F11730   3.583   3.240   5.656 -0.4166 -0.3866  0.1212
   8723SM  H22F11731   3.491   3.178   5.657  0.4059 -1.6505  0.2338
   8723SM  H22G11732   3.550   3.346   5.661 -0.6516 -0.4109 -0.7812
   8723SM  C23F11733   3.664   3.222   5.786  0.4885  0.0802 -0.2544
   8723SM  H23F11734   3.769   3.257   5.770  0.7948 -0.7691 -0.1571
   8723SM  H23G11735   3.665   3.112   5.798 -0.6018  0.1638  0.7122
   8723SM  H23H11736   3.624   3.275   5.875 -4.8297  0.7468 -2.6284
   8823SM     N11737   1.795   1.854   2.856 -0.3174 -0.0190  0.5403
   8823SM   C1511738   1.673   1.907   2.795  0.5228 -0.0071  0.1977
   8823SM  H15A11739   1.629   1.970   2.871  0.6200 -0.6854  0.8234
   8823SM  H15B11740   1.610   1.824   2.764  0.5148 -0.2791  0.9129
   8823SM  H15C11741   1.700   1.956   2.703 -0.7724 -2.3326 -1.5549
   8823SM   C1411742   1.890   1.959   2.889 -0.3701 -0.2006 -0.2647
   8823SM  H14A11743   1.913   2.016   2.801 -0.0401  1.3579  0.7933
   8823SM  H14B11744   1.984   1.923   2.926  0.9031  2.5480 -0.5568
   8823SM  H14C11745   1.862   2.028   2.968  1.1032  0.1048  0.0262
   8823SM   C1311746   1.762   1.777   2.977  0.6343 -0.1747 -0.1535
   8823SM  H13A11747   1.702   1.691   2.951  1.3919 -1.5960  2.4651
   8823SM  H13B11748   1.707   1.834   3.050 -0.9582  1.1238 -2.2529
   8823SM  H13C11749   1.855   1.742   3.018  1.8406  2.5543 -0.3178
   8823SM   C1211750   1.860   1.769   2.752 -0.1010  0.0532  0.0903
   8823SM  H12A11751   1.961   1.757   2.788 -0.6796 -0.5153  1.5992
   8823SM  H12B11752   1.863   1.815   2.655 -0.5820 -0.8820 -0.3928
   8823SM   C1111753   1.802   1.629   2.725 -0.1685  0.0243 -0.5834
   8823SM  H11A11754   1.815   1.565   2.814 -0.1280  0.4216 -0.3025
   8823SM  H11B11755   1.870   1.590   2.646 -1.0505  1.3794 -2.0660
   8823SM     P11756   1.569   1.521   2.715 -0.1211  0.0821 -0.0702
   8823SM   O1311757   1.430   1.570   2.696  0.2099  0.4362  0.6132
   8823SM   O1411758   1.604   1.395   2.650  0.5471 -0.3098  0.1510
   8823SM   O1111759   1.596   1.517   2.874 -0.0389  0.5295  0.1383
   8823SM   O1211760   1.671   1.636   2.675  0.3900 -1.0244 -0.2367
   8823SM   C1S11761   1.607   1.393   2.942  0.3450  0.3565 -0.3282
   8823SM   H1S11762   1.668   1.323   2.881 -1.0440 -0.2272 -1.0964
   8823SM   H1T11763   1.506   1.349   2.951  1.0614 -0.8692  3.3437
   8823SM    NF11764   1.671   1.285   3.144  0.0804  0.6137 -0.1503
   8823SM   HNF11765   1.602   1.257   3.210  0.8696 -1.1571 -0.0293
   8823SM   C2S11766   1.645   1.417   3.083 -0.6628  0.6937 -0.7394
   8823SM   H2S11767   1.741   1.474   3.087 -0.3288  0.0994  1.8645
   8823SM   C3S11768   1.536   1.498   3.158  0.3338  0.5978  0.1971
   8823SM   H3S11769   1.440   1.442   3.159  0.5254  0.2603 -0.0764
   8823SM    O311770   1.492   1.619   3.104  0.6721  0.4599  0.4443
   8823SM   HO311771   1.518   1.609   3.012 -0.6108 -3.0219  0.3024
   8823SM   C4S11772   1.580   1.519   3.301  1.1169 -0.2256 -0.1013
   8823SM   H4S11773   1.547   1.442   3.373  1.1459  0.0033  0.1592
   8823SM   C5S11774   1.657   1.615   3.350 -0.6289 -0.3484 -0.0439
   8823SM   H5S11775   1.706   1.693   3.290 -1.3913  1.6644  1.8170
   8823SM   C6S11776   1.703   1.632   3.492 -0.1451 -0.0042  0.2810
   8823SM   H6S11777   1.651   1.722   3.532 -0.5268  0.5899 -1.4393
   8823SM   H6T11778   1.810   1.661   3.488  0.4764 -2.1934  0.2114
   8823SM   C7S11779   1.677   1.516   3.594 -0.9803 -0.1257  0.6097
   8823SM   H7S11780   1.724   1.417   3.574 -0.8962  0.5237 -3.1814
   8823SM   H7T11781   1.568   1.492   3.591 -0.4979 -2.9080  2.0263
   8823SM   C8S11782   1.724   1.553   3.736  0.4689  0.0819 -0.2668
   8823SM   H8S11783   1.681   1.650   3.766  0.6764  1.0019 -2.6800
   8823SM   H8T11784   1.829   1.587   3.724  0.6049 -0.1874  0.1507
   8823SM   C9S11785   1.683   1.448   3.831 -0.2422  0.3910 -0.0848
   8823SM   H9S11786   1.735   1.357   3.794 -0.7594  0.0139  0.0906
   8823SM   H9T11787   1.573   1.431   3.834 -0.0352 -0.9674  1.7635
   8823SM  C10S11788   1.727   1.474   3.972  0.1717 -0.1990  0.1928
   8823SM  H10S11789   1.684   1.569   4.009 -0.8343 -0.8314  0.6910
   8823SM  H10T11790   1.836   1.493   3.970 -0.2959  3.2968 -3.1952
   8823SM  C11S11791   1.681   1.360   4.067  0.3924  0.0195 -0.7989
   8823SM  H11S11792   1.700   1.267   4.010 -1.7100 -0.7286 -0.3569
   8823SM  H11T11793   1.575   1.351   4.097  1.1621 -0.8773  1.9775
   8823SM  C12S11794   1.754   1.348   4.204  0.0548 -0.5233  0.0573
   8823SM  H12S11795   1.751   1.446   4.257 -1.2617  0.3487 -1.5451
   8823SM  H12T11796   1.863   1.328   4.192  0.5652  2.0596 -0.2972
   8823SM  C13S11797   1.690   1.229   4.290 -0.4392 -0.7174  0.2278
   8823SM  H13S11798   1.664   1.148   4.219  0.2103 -1.2987  0.6428
   8823SM  H13T11799   1.599   1.272   4.338  0.8163  0.3570  1.7663
   8823SM  C14S11800   1.785   1.173   4.404  0.0197 -0.8565  0.4492
   8823SM  H14S11801   1.809   1.261   4.467 -1.2666  1.4828 -2.1040
   8823SM  H14T11802   1.875   1.140   4.349 -0.7183 -0.9541 -0.7424
   8823SM  C15S11803   1.742   1.067   4.501 -0.0325 -0.0201  1.0264
   8823SM  H15S11804   1.699   0.985   4.440 -1.1209  0.8507  0.5846
   8823SM  H15T11805   1.654   1.097   4.562  0.4562  2.4886  0.5948
   8823SM  C16S11806   1.854   1.011   4.584  0.3639  0.1173  0.0101
   8823SM  H16S11807   1.882   1.089   4.658 -0.6017  0.4415  0.0551
   8823SM  H16T11808   1.948   1.012   4.524  0.4857 -2.5643  0.0468
   8823SM  C17S11809   1.816   0.877   4.642  0.9449  0.2924  0.1377
   8823SM  H17S11810   1.798   0.818   4.549 -1.0652 -0.1507  0.7447
   8823SM  H17T11811   1.717   0.892   4.691  1.1966  1.8560  0.2242
   8823SM  C18S11812   1.922   0.819   4.732 -0.8488 -0.1705 -0.1811
   8823SM  H18S11813   1.888   0.724   4.779  1.2254 -1.2265 -0.6730
   8823SM  H18T11814   1.958   0.883   4.816  2.1881 -0.6467 -0.9890
   8823SM  H18U11815   2.014   0.788   4.678 -0.9531 -0.8618  0.0261
   8823SM   C1F11816   1.779   1.209   3.117  0.2192 -0.0973  0.2996
   8823SM    OF11817   1.868   1.248   3.046 -0.3628  0.0416 -0.4777
   8823SM   C2F11818   1.785   1.068   3.174  0.4163  0.4600 -0.5296
   8823SM   H2F11819   1.788   0.994   3.091  0.9067  0.4009 -0.4624
   8823SM   H2G11820   1.704   1.042   3.246  0.7123  2.6549  0.7069
   8823SM   C3F11821   1.927   1.045   3.239  0.1694 -0.2154  0.2959
   8823SM   H3F11822   1.934   1.112   3.327  1.7268 -0.9875  0.7969
   8823SM   H3G11823   2.009   1.073   3.170 -1.8009 -0.2048 -2.1644
   8823SM   C4F11824   1.941   0.901   3.298 -0.2159 -0.8726  0.1226
   8823SM   H4F11825   1.944   0.824   3.217  0.8697 -0.8525  0.1184
   8823SM   H4G11826   1.860   0.873   3.368 -0.0026  0.0271  0.7330
   8823SM   C5F11827   2.078   0.894   3.377 -0.8307 -0.7064  0.7760
   8823SM   H5F11828   2.087   0.979   3.448 -1.1663  1.3847 -1.5781
   8823SM   H5G11829   2.156   0.911   3.301 -0.8561  0.0549  0.9138
   8823SM   C6F11830   2.097   0.757   3.450  0.4906  0.4411  0.3401
   8823SM   H6F11831   2.205   0.738   3.467  0.4728  1.4656  1.8151
   8823SM   H6G11832   2.059   0.673   3.390  0.2088 -0.7747  2.1382
   8823SM   C7F11833   2.045   0.757   3.593  0.3600 -0.2302  0.3193
   8823SM   H7F11834   1.934   0.758   3.596  0.3378  1.9464  3.8378
   8823SM   H7G11835   2.065   0.856   3.640 -0.7122  0.0994  0.1241
   8823SM   C8F11836   2.105   0.649   3.683 -0.4308 -0.4236 -0.0017
   8823SM   H8F11837   2.215   0.662   3.683 -0.3023 -1.1834 -1.8924
   8823SM   H8G11838   2.084   0.552   3.634 -2.8309  0.8829 -1.7234
   8823SM   C9F11839   2.049   0.644   3.829 -0.6813 -0.3742  0.2731
   8823SM   H9F11840   1.944   0.609   3.835 -0.0855 -2.5996 -0.9288
   8823SM   H9G11841   2.055   0.750   3.859 -2.2826  0.1112 -0.9590
   8823SM  C10F11842   2.133   0.558   3.919  0.3140  1.0210 -0.5286
   8823SM  H10F11843   2.240   0.588   3.923  0.9339 -1.1331  2.5651
   8823SM  H10G11844   2.132   0.452   3.886 -0.0072 -0.0520  2.5854
   8823SM  C11F11845   2.074   0.553   4.061 -0.5919 -0.8323  0.4794
   8823SM  H11F11846   1.976   0.502   4.049 -0.9376 -0.3276  1.1116
   8823SM  H11G11847   2.045   0.653   4.100  0.7529 -0.9370  1.8154
   8823SM  C12F11848   2.156   0.490   4.164 -0.2807  0.5506  0.3037
   8823SM  H12F11849   2.263   0.518   4.177  0.2448 -1.0380 -0.2912
   8823SM  H12G11850   2.156   0.380   4.149 -0.2017  0.8411 -2.1858
   8823SM  C13F11851   2.093   0.512   4.305  0.9033 -0.3284  0.0416
   8823SM  H13F11852   1.998   0.455   4.315 -0.8414  2.5073  0.8736
   8823SM  H13G11853   2.056   0.617   4.300  0.1945 -0.6105 -1.3575
   8823SM  C14F11854   2.190   0.479   4.416 -0.6526 -0.1029 -0.0873
   8823SM  H14F11855   2.277   0.547   4.403  0.0139 -0.7613  0.7908
   8823SM  H14G11856   2.226   0.373   4.416 -2.2204 -0.6626 -1.1367
   8823SM  C15F11857   2.130   0.509   4.553  0.4990  0.1851  0.3372
   8823SM  H15F11858   2.030   0.461   4.559 -0.4925  1.9983 -0.6143
   8823SM  H15G11859   2.119   0.620   4.559 -1.7652 -0.0649  2.8810
   8823SM  C16F11860   2.226   0.458   4.665  0.5483 -0.3342  0.0811
   8823SM  H16F11861   2.331   0.485   4.643  0.2034  0.2359 -0.8980
   8823SM  H16G11862   2.216   0.347   4.671 -0.5716 -0.1791  2.0167
   8823SM  C17F11863   2.185   0.510   4.800 -0.4166 -0.6032 -0.0303
   8823SM  H17F11864   2.187   0.621   4.796  0.2181 -0.5839  0.6150
   8823SM  H17G11865   2.250   0.472   4.882  0.0332  1.4418  0.6208
   8823SM  C18F11866   2.048   0.469   4.842  0.6397  0.3909  0.3685
   8823SM  H18F11867   2.042   0.358   4.851 -2.1248  0.4160 -0.3795
   8823SM  H18G11868   1.978   0.501   4.763  1.7432 -2.5464 -2.0173
   8823SM  C19F11869   1.991   0.527   4.970 -0.0254  0.6966  0.2567
   8823SM  H19F11870   1.885   0.495   4.985  0.1493  0.3560  0.7721
   8823SM  H19G11871   2.002   0.637   4.962 -1.0238  0.7959  0.0841
   8823SM  C20F11872   2.061   0.491   5.103 -1.2567  0.6245 -0.2579
   8823SM  H20F11873   2.155   0.545   5.126 -0.5624 -1.0441  1.0584
   8823SM  H20G11874   2.088   0.383   5.114  0.9538  1.2507  1.1216
   8823SM  C21F11875   1.959   0.501   5.220 -0.2186  0.6709 -0.5194
   8823SM  H21F11876   1.910   0.403   5.238  0.5265  0.0130 -1.8313
   8823SM  H21G11877   1.875   0.565   5.185 -1.1207 -0.1906  0.0281
   8823SM  C22F11878   2.027   0.547   5.346 -1.3842 -0.5472 -0.2809
   8823SM  H22F11879   1.948   0.566   5.421 -0.3401  0.3168  0.6440
   8823SM  H22G11880   2.082   0.641   5.323 -2.4908  0.2442  0.2223
   8823SM  C23F11881   2.114   0.438   5.399  0.1628  0.6820 -0.5274
   8823SM  H23F11882   2.150   0.463   5.501  1.6697 -1.4948 -0.4554
   8823SM  H23G11883   2.201   0.429   5.330  0.6733  3.3972 -0.3532
   8823SM  H23H11884   2.058   0.342   5.408  2.2266 -0.6127 -0.8403
   8923SM     N11885   6.544   2.292   2.720  0.0351  0.0489 -0.2282
   8923SM   C1511886   6.614   2.389   2.635 -0.0153  0.2731 -0.4328
   8923SM  H15A11887   6.574   2.488   2.650  0.7016  0.3832  0.8853
   8923SM  H15B11888   6.603   2.362   2.530  0.7873 -0.7747 -0.2684
   8923SM  H15C11889   6.718   2.392   2.662 -0.6862  0.2926  2.4507
   8923SM   C1411890   6.584   2.159   2.677 -0.3729  0.1597  0.0463
   8923SM  H14A11891   6.560   2.136   2.574  2.3053 -0.3606 -0.5254
   8923SM  H14B11892   6.526   2.085   2.731  2.7068 -2.1587  0.4361
   8923SM  H14C11893   6.687   2.136   2.697 -0.7116 -4.8466 -2.4958
   8923SM   C1311894   6.601   2.302   2.861  0.0205  0.0178 -0.0319
   8923SM  H13A11895   6.702   2.264   2.866  0.8123  2.0557  0.6402
   8923SM  H13B11896   6.544   2.242   2.930  0.2575  2.0547  2.0662
   8923SM  H13C11897   6.601   2.407   2.888 -0.4486 -0.2324  0.9678
   8923SM   C1211898   6.396   2.331   2.725 -0.4985  0.0110 -0.1186
   8923SM  H12A11899   6.341   2.262   2.788  0.6365 -0.9876 -0.1917
   8923SM  H12B11900   6.362   2.329   2.623  0.0818 -1.2825 -0.3001
   8923SM   C1111901   6.353   2.480   2.782 -0.1180  0.9745  0.1479
   8923SM  H11A11902   6.243   2.485   2.766 -0.3266  1.1483  1.4873
   8923SM  H11B11903   6.399   2.549   2.709  0.8937 -0.8632 -1.0196
   8923SM     P11904   6.346   2.613   2.996  0.4381 -0.4374 -0.3060
   8923SM   O1311905   6.460   2.672   3.071  0.6572 -0.3131 -0.0170
   8923SM   O1411906   6.275   2.707   2.904  0.2950 -0.0936  0.5948
   8923SM   O1111907   6.252   2.552   3.114  0.1648  0.5240  0.5979
   8923SM   O1211908   6.397   2.488   2.919 -0.1622 -0.0040 -0.0023
   8923SM   C1S11909   6.294   2.439   3.196 -0.0257  0.7230 -0.5954
   8923SM   H1S11910   6.405   2.432   3.192 -0.1280 -1.8983 -0.3532
   8923SM   H1T11911   6.266   2.346   3.142 -0.9657  0.8735 -0.3762
   8923SM    NF11912   6.290   2.328   3.408 -0.5872  0.3024 -0.1401
   8923SM   HNF11913   6.216   2.263   3.425 -0.0678  0.3568  3.0143
   8923SM   C2S11914   6.251   2.450   3.338 -0.7011  0.5441 -0.6697
   8923SM   H2S11915   6.309   2.534   3.383  1.5793 -1.5573  0.6126
   8923SM   C3S11916   6.098   2.481   3.359 -0.6029 -0.3419  0.2368
   8923SM   H3S11917   6.039   2.403   3.307 -1.5423  0.5904 -0.1473
   8923SM    O311918   6.051   2.601   3.301  0.9436  0.1744 -0.2725
   8923SM   HO311919   6.116   2.611   3.231  0.7526 -0.7385 -0.5924
   8923SM   C4S11920   6.069   2.484   3.505  0.2452 -0.4503  0.1453
   8923SM   H4S11921   6.136   2.552   3.560 -0.6630 -0.1858  0.9661
   8923SM   C5S11922   5.967   2.422   3.566 -0.0962 -0.0746  0.0436
   8923SM   H5S11923   5.893   2.365   3.507  0.2945 -0.9773  0.4217
   8923SM   C6S11924   5.952   2.427   3.718  0.3600 -0.2483 -0.2144
   8923SM   H6S11925   6.054   2.429   3.762  0.1945 -1.3212  0.2596
   8923SM   H6T11926   5.904   2.334   3.756  2.4981 -0.9071  1.0838
   8923SM   C7S11927   5.873   2.544   3.770 -0.5765 -0.0983  0.0209
   8923SM   H7S11928   5.771   2.529   3.728  0.5054 -2.0849 -2.0610
   8923SM   H7T11929   5.907   2.641   3.729 -0.2692 -0.2891 -0.1791
   8923SM   C8S11930   5.868   2.537   3.922  0.8643 -0.0123 -0.4626
   8923SM   H8S11931   5.960   2.578   3.970  0.1985  0.6294  0.3052
   8923SM   H8T11932   5.862   2.434   3.962 -0.2312  0.2662  0.1179
   8923SM   C9S11933   5.769   2.625   3.995 -0.6915 -0.1662 -0.1609
   8923SM   H9S11934   5.667   2.600   3.960 -1.6976  1.1694  1.6359
   8923SM   H9T11935   5.800   2.730   3.975  2.4310 -1.3267 -2.1934
   8923SM  C10S11936   5.765   2.604   4.152  0.2395 -0.4624  0.2064
   8923SM  H10S11937   5.863   2.624   4.200  0.3893 -0.7164  0.0023
   8923SM  H10T11938   5.739   2.500   4.181  2.2932 -1.3253 -0.8627
   8923SM  C11S11939   5.668   2.705   4.223 -0.0404  0.1800 -0.7862
   8923SM  H11S11940   5.565   2.678   4.192 -0.4413 -0.2732  0.8253
   8923SM  H11T11941   5.694   2.807   4.188  1.5673 -0.2785 -1.0163
   8923SM  C12S11942   5.675   2.676   4.378  0.3421  0.0053 -0.2105
   8923SM  H12S11943   5.776   2.701   4.416  0.5264  0.5781 -1.0493
   8923SM  H12T11944   5.655   2.570   4.403  1.1084  0.1365  1.0061
   8923SM  C13S11945   5.570   2.756   4.454 -0.1383 -0.0521  0.9979
   8923SM  H13S11946   5.559   2.723   4.560  1.0572 -2.3233  0.4704
   8923SM  H13T11947   5.478   2.724   4.400  0.7912 -3.7043  1.3299
   8923SM  C14S11948   5.600   2.906   4.449 -0.1872 -0.3812 -0.0173
   8923SM  H14S11949   5.624   2.930   4.343  2.2818 -0.0638  0.5564
   8923SM  H14T11950   5.692   2.921   4.508  1.2210 -2.0652 -1.6388
   8923SM  C15S11951   5.478   3.002   4.477 -0.2121 -0.2409 -0.6181
   8923SM  H15S11952   5.387   2.995   4.413  0.0644 -0.3981 -1.0043
   8923SM  H15T11953   5.519   3.103   4.454 -1.5739  0.5506  0.3038
   8923SM  C16S11954   5.443   2.998   4.625  0.4868  0.0357 -0.3322
   8923SM  H16S11955   5.530   3.029   4.686  0.0515  0.1709  0.2286
   8923SM  H16T11956   5.416   2.894   4.653  0.4633  0.0069 -0.4585
   8923SM  C17S11957   5.333   3.096   4.663  0.4988  0.3192 -0.1581
   8923SM  H17S11958   5.301   3.079   4.769  3.7514 -1.4333  0.6738
   8923SM  H17T11959   5.245   3.073   4.600 -0.5928  0.3768  1.2738
   8923SM  C18S11960   5.367   3.244   4.646 -0.0117  0.3041 -0.2481
   8923SM  H18S11961   5.371   3.267   4.537 -1.3972 -0.5513 -0.5011
   8923SM  H18T11962   5.467   3.266   4.689 -0.3419 -0.4970  0.9675
   8923SM  H18U11963   5.293   3.304   4.701 -0.7463 -1.5466  0.8765
   8923SM   C1F11964   6.423   2.287   3.408 -0.0126 -0.1533  0.0190
   8923SM    OF11965   6.517   2.368   3.398 -0.0961 -0.0531  0.3108
   8923SM   C2F11966   6.440   2.139   3.423 -0.1594  0.2694 -0.0448
   8923SM   H2F11967   6.462   2.095   3.324 -2.4500 -1.0387 -0.0440
   8923SM   H2G11968   6.341   2.100   3.456 -0.3510  0.8635  0.1132
   8923SM   C3F11969   6.552   2.103   3.525  0.3741  0.6760  0.2970
   8923SM   H3F11970   6.527   2.122   3.631 -1.9443 -0.2348 -0.0322
   8923SM   H3G11971   6.648   2.157   3.504 -0.0257  0.6466 -1.8516
   8923SM   C4F11972   6.592   1.952   3.518  0.5375 -0.0816  0.2969
   8923SM   H4F11973   6.610   1.925   3.411 -0.1290 -0.2087  0.2053
   8923SM   H4G11974   6.503   1.896   3.554  1.4553 -0.7045  1.6688
   8923SM   C5F11975   6.696   1.917   3.624  0.2454  0.3761  0.0680
   8923SM   H5F11976   6.668   1.958   3.723  0.7940  2.1074 -0.4480
   8923SM   H5G11977   6.781   1.972   3.578 -1.2124  0.0988 -3.2872
   8923SM   C6F11978   6.728   1.772   3.627  0.5171  0.3395 -0.8125
   8923SM   H6F11979   6.761   1.745   3.525 -1.5950 -1.1868 -1.1689
   8923SM   H6G11980   6.637   1.711   3.647  1.1671  0.0651  1.7262
   8923SM   C7F11981   6.838   1.729   3.721 -0.1745  0.0475 -0.0087
   8923SM   H7F11982   6.799   1.746   3.824 -0.7690  1.6490 -0.4759
   8923SM   H7G11983   6.933   1.785   3.715  0.3623 -0.5454  2.1650
   8923SM   C8F11984   6.872   1.576   3.699  0.5115  0.1030  0.4429
   8923SM   H8F11985   6.917   1.568   3.598 -1.5344  0.2501 -0.5315
   8923SM   H8G11986   6.786   1.505   3.699  1.4988 -1.1349  0.1748
   8923SM   C9F11987   6.980   1.522   3.789  0.3861  0.4298 -0.1337
   8923SM   H9F11988   7.071   1.587   3.791  0.7693 -0.0742  2.6382
   8923SM   H9G11989   7.009   1.419   3.759 -0.3697  0.4720 -1.0504
   8923SM  C10F11990   6.936   1.502   3.940  0.0040  0.1088  0.1642
   8923SM  H10F11991   6.868   1.414   3.932 -0.9694  0.9989 -2.4498
   8923SM  H10G11992   6.881   1.594   3.972 -1.0007 -0.4464  0.0882
   8923SM  C11F11993   7.054   1.461   4.036 -0.0467 -0.0407 -0.1821
   8923SM  H11F11994   7.132   1.541   4.040 -0.9735  0.8450  0.8211
   8923SM  H11G11995   7.107   1.376   3.988  2.7039  1.0025  0.7862
   8923SM  C12F11996   7.005   1.399   4.165  0.1999 -0.4453  0.1022
   8923SM  H12F11997   6.936   1.324   4.123 -1.3239  0.5220  0.8125
   8923SM  H12G11998   6.943   1.478   4.213 -0.7394 -1.5280  0.7312
   8923SM  C13F11999   7.116   1.342   4.267  0.0703 -0.1986  1.0846
   8923SM  H13F12000   7.173   1.428   4.306  0.1602  0.3944 -0.3075
   8923SM  H13G12001   7.189   1.286   4.204  2.1439  0.9387  2.3492
   8923SM  C14F12002   7.048   1.256   4.374 -0.3135 -0.1827 -0.4208
   8923SM  H14F12003   6.954   1.312   4.395  0.2747  0.3697  0.8468
   8923SM  H14G12004   7.109   1.249   4.467  1.0854  1.4531 -1.1514
   8923SM  C15F12005   6.994   1.124   4.312 -0.1912 -0.6264  0.2622
   8923SM  H15F12006   7.079   1.064   4.274 -1.0413 -0.4151 -2.1655
   8923SM  H15G12007   6.919   1.133   4.230  0.1779 -1.6994 -0.2181
   8923SM  C16F12008   6.928   1.051   4.428  0.6641  0.3639  0.7758
   8923SM  H16F12009   6.823   1.022   4.405  0.8471  0.7955 -0.7786
   8923SM  H16G12010   6.929   1.126   4.510  1.7073 -0.1893  1.2821
   8923SM  C17F12011   6.998   0.923   4.472 -0.6994  0.6747  0.2814
   8923SM  H17F12012   6.960   0.890   4.570 -0.4247  0.7025  0.3980
   8923SM  H17G12013   7.106   0.948   4.486 -0.1845 -1.8690  1.3437
   8923SM  C18F12014   6.989   0.813   4.364 -0.2263  0.2114 -0.1262
   8923SM  H18F12015   7.027   0.860   4.271  0.9733  2.3280  1.3428
   8923SM  H18G12016   6.883   0.780   4.363  0.5015 -2.3794 -1.6345
   8923SM  C19F12017   7.067   0.681   4.382  0.1702 -0.3165 -0.4954
   8923SM  H19F12018   7.070   0.656   4.490  0.7123 -0.0223 -0.4411
   8923SM  H19G12019   7.168   0.684   4.337  0.9851 -0.5571  1.2316
   8923SM  C20F12020   6.997   0.561   4.319 -0.3732  0.1452  0.0958
   8923SM  H20F12021   6.900   0.542   4.370 -0.6216 -0.4824 -0.5849
   8923SM  H20G12022   7.059   0.473   4.349 -1.3199 -0.5896 -0.0622
   8923SM  C21F12023   6.968   0.567   4.163 -0.1765  0.0311 -0.0845
   8923SM  H21F12024   7.030   0.497   4.102  1.0529  0.1382  1.0032
   8923SM  H21G12025   6.996   0.668   4.128  0.1233 -0.0154  0.0198
   8923SM  C22F12026   6.826   0.530   4.125 -0.0956  0.3133  0.1094
   8923SM  H22F12027   6.764   0.611   4.169  0.7951  1.7531 -1.2029
   8923SM  H22G12028   6.799   0.426   4.155  0.4078 -0.2823 -1.4079
   8923SM  C23F12029   6.796   0.545   3.975  0.3328  0.3512  0.0945
   8923SM  H23F12030   6.806   0.652   3.945 -0.1820  0.3248 -0.1928
   8923SM  H23G12031   6.692   0.516   3.946  1.2845 -0.8382 -2.3592
   8923SM  H23H12032   6.865   0.479   3.919  0.2372  0.1702  0.1909
   9023SM     N12033   5.803   2.503   2.941 -0.2228  0.0238 -0.0587
   9023SM   C1512034   5.929   2.516   2.866 -0.5770 -0.4515  0.7210
   9023SM  H15A12035   6.009   2.554   2.929 -0.5737 -1.3758  1.2842
   9023SM  H15B12036   5.915   2.575   2.777 -1.4895 -0.2894  0.9608
   9023SM  H15C12037   5.971   2.422   2.836 -0.2190 -0.4030  1.0579
   9023SM   C1412038   5.749   2.634   2.993 -0.3429 -0.0054  0.4077
   9023SM  H14A12039   5.772   2.717   2.928  0.8115  0.9020  1.9063
   9023SM  H14B12040   5.801   2.668   3.081 -0.2111 -1.7861  1.0611
   9023SM  H14C12041   5.643   2.626   3.011  0.0011 -0.1647  2.6063
   9023SM   C1312042   5.696   2.453   2.844 -1.1762 -0.0320  0.0867
   9023SM  H13A12043   5.720   2.357   2.801  0.4814  1.4192 -2.4839
   9023SM  H13B12044   5.679   2.518   2.759 -0.5840  0.4127  0.2973
   9023SM  H13C12045   5.603   2.438   2.898  0.2481 -0.2007  2.6785
   9023SM   C1212046   5.810   2.408   3.062 -0.0910 -0.1544  0.6331
   9023SM  H12A12047   5.710   2.396   3.101  0.2731  0.9397  2.0137
   9023SM  H12B12048   5.854   2.468   3.141  0.4250  0.0577  0.1926
   9023SM   C1112049   5.893   2.276   3.055  0.4028  0.4397  0.5842
   9023SM  H11A12050   5.911   2.229   3.154 -0.2396  0.3817  0.6769
   9023SM  H11B12051   5.989   2.291   3.000  0.5332 -0.3725  0.5754
   9023SM     P12052   5.705   2.080   3.032  0.2559  0.0360  0.2274
   9023SM   O1312053   5.573   2.119   2.975  0.0823  0.2420 -0.0541
   9023SM   O1412054   5.744   1.938   2.999  0.2294 -0.1669  0.4657
   9023SM   O1112055   5.712   2.106   3.183  0.6911 -0.1554 -0.3116
   9023SM   O1212056   5.822   2.178   2.977 -0.3881 -0.1400 -0.2318
   9023SM   C1S12057   5.770   2.021   3.282  0.5997 -0.2809  0.0060
   9023SM   H1S12058   5.876   2.015   3.248  0.8656  0.0590  0.7441
   9023SM   H1T12059   5.724   1.920   3.281 -1.5673  0.6513  0.6857
   9023SM    NF12060   5.850   2.000   3.504  0.0010  0.3492  1.0657
   9023SM   HNF12061   5.817   1.928   3.564 -4.0019  2.6937  2.1287
   9023SM   C2S12062   5.761   2.081   3.426  0.2743  0.4257  0.0601
   9023SM   H2S12063   5.804   2.184   3.423 -0.1685  0.6067 -1.8805
   9023SM   C3S12064   5.613   2.075   3.471 -0.1468  0.6344 -0.3235
   9023SM   H3S12065   5.592   1.966   3.462  1.1181  0.3728 -0.2271
   9023SM    O312066   5.516   2.146   3.395  0.7833 -0.3502  0.3326
   9023SM   HO312067   5.558   2.149   3.309  0.2671  2.9592  0.0685
   9023SM   C4S12068   5.602   2.115   3.617  0.2766  0.0440  0.2145
   9023SM   H4S12069   5.583   2.024   3.676  1.5072 -0.5187 -0.2128
   9023SM   C5S12070   5.605   2.241   3.674 -0.6593 -0.0066 -0.4596
   9023SM   H5S12071   5.609   2.326   3.605  0.7690  0.3188 -0.0117
   9023SM   C6S12072   5.598   2.271   3.829  0.7424  0.0420 -0.5791
   9023SM   H6S12073   5.499   2.318   3.845  1.9997  2.5425  0.4165
   9023SM   H6T12074   5.667   2.352   3.859 -1.4341  1.8059 -0.1550
   9023SM   C7S12075   5.623   2.162   3.930 -0.1584 -0.5227 -0.5593
   9023SM   H7S12076   5.711   2.100   3.905 -1.0874 -2.6649  1.1822
   9023SM   H7T12077   5.530   2.102   3.915 -0.5891 -0.3964  1.3333
   9023SM   C8S12078   5.643   2.204   4.075 -0.8749 -0.7532 -0.9218
   9023SM   H8S12079   5.568   2.283   4.095  0.2859  1.1419 -3.5601
   9023SM   H8T12080   5.741   2.256   4.081 -1.4994  0.5370 -1.6702
   9023SM   C9S12081   5.646   2.080   4.175 -0.2363 -0.8838 -0.6557
   9023SM   H9S12082   5.736   2.023   4.143  1.1641  1.2353 -0.6981
   9023SM   H9T12083   5.553   2.019   4.173  0.6903 -2.3276 -0.8535
   9023SM  C10S12084   5.659   2.125   4.319  0.4113 -0.1203  0.1932
   9023SM  H10S12085   5.579   2.195   4.352 -0.1024  0.4878 -2.1399
   9023SM  H10T12086   5.752   2.179   4.346 -1.0329  2.6158 -0.0162
   9023SM  C11S12087   5.650   2.002   4.411  0.4919 -0.5770 -0.2752
   9023SM  H11S12088   5.720   1.919   4.386  0.5682 -0.7299  0.4253
   9023SM  H11T12089   5.546   1.964   4.414  0.8790 -1.7122 -0.5801
   9023SM  C12S12090   5.666   2.025   4.565 -0.6057  0.5434 -0.1241
   9023SM  H12S12091   5.582   2.089   4.599 -0.6512  0.3311  0.1713
   9023SM  H12T12092   5.772   2.054   4.582  0.6169 -2.3053 -2.0060
   9023SM  C13S12093   5.663   1.892   4.646  0.4575 -0.3973  1.2708
   9023SM  H13S12094   5.739   1.824   4.601  1.4660  0.6632  1.3217
   9023SM  H13T12095   5.563   1.843   4.647  1.1548 -1.9285  0.0525
   9023SM  C14S12096   5.699   1.921   4.789  0.1367 -0.0289 -0.2784
   9023SM  H14S12097   5.608   1.972   4.827  0.0550 -1.3270  1.4167
   9023SM  H14T12098   5.793   1.978   4.779  0.8379 -1.3047 -1.2651
   9023SM  C15S12099   5.726   1.796   4.876 -0.0993 -0.7174  0.6571
   9023SM  H15S12100   5.816   1.739   4.846 -0.1770 -0.4801 -0.0494
   9023SM  H15T12101   5.637   1.730   4.875 -0.5537 -0.2470  3.3950
   9023SM  C16S12102   5.723   1.830   5.028 -0.5671 -0.4340  0.5294
   9023SM  H16S12103   5.621   1.871   5.048 -1.4176 -1.8115 -0.7285
   9023SM  H16T12104   5.791   1.914   5.051  0.7085 -0.3234 -3.0243
   9023SM  C17S12105   5.749   1.708   5.110 -0.2334  0.2579 -0.1104
   9023SM  H17S12106   5.738   1.742   5.216 -1.9775 -1.5432  0.3514
   9023SM  H17T12107   5.854   1.682   5.086 -0.2680  1.7511 -2.1228
   9023SM  C18S12108   5.656   1.585   5.094 -0.4587 -0.4775 -0.0470
   9023SM  H18S12109   5.649   1.531   5.191  0.3495  0.5082  0.5817
   9023SM  H18T12110   5.692   1.518   5.013  0.4806  1.2739 -1.1512
   9023SM  H18U12111   5.553   1.622   5.076 -0.8493 -1.2647  0.5063
   9023SM   C1F12112   5.984   2.017   3.508 -0.7910  0.0375 -0.0629
   9023SM    OF12113   6.047   2.097   3.440  0.0886  0.2272  0.3986
   9023SM   C2F12114   6.060   1.928   3.607  0.3316  0.1098 -0.3776
   9023SM   H2F12115   6.015   1.827   3.592 -0.0496  0.1260  0.5756
   9023SM   H2G12116   6.037   1.959   3.711  0.9283 -0.3521 -0.1096
   9023SM   C3F12117   6.212   1.918   3.593  0.4555  0.3701 -0.5741
   9023SM   H3F12118   6.256   2.016   3.623  0.5665 -0.4105  2.1381
   9023SM   H3G12119   6.237   1.899   3.487  0.6804 -1.5065 -0.2260
   9023SM   C4F12120   6.282   1.815   3.684  0.5031 -0.6845  0.8887
   9023SM   H4F12121   6.380   1.775   3.648  0.3806 -1.8495  1.7659
   9023SM   H4G12122   6.206   1.734   3.681  0.3298 -0.5177  0.8061
   9023SM   C5F12123   6.299   1.868   3.828 -0.8049 -0.1854 -0.6521
   9023SM   H5F12124   6.198   1.869   3.874 -1.0239  3.7174 -0.9180
   9023SM   H5G12125   6.333   1.974   3.822 -3.0917  0.6495  0.1312
   9023SM   C6F12126   6.387   1.779   3.914  0.0438 -0.2184  0.4867
   9023SM   H6F12127   6.488   1.777   3.867 -0.3157  0.6647 -0.3699
   9023SM   H6G12128   6.344   1.677   3.917  1.0921 -0.7651 -1.1810
   9023SM   C7F12129   6.398   1.838   4.051 -0.0006 -0.0448 -0.3286
   9023SM   H7F12130   6.302   1.882   4.084 -1.1652 -2.1802 -0.6923
   9023SM   H7G12131   6.476   1.916   4.050  0.7650 -0.7590  0.9508
   9023SM   C8F12132   6.442   1.741   4.162  1.0603  0.1785 -0.6150
   9023SM   H8F12133   6.356   1.674   4.186  0.6057  1.1363  0.5483
   9023SM   H8G12134   6.454   1.796   4.257  1.3477 -0.7249 -0.1225
   9023SM   C9F12135   6.575   1.675   4.141 -0.3298  0.4396 -0.9157
   9023SM   H9F12136   6.646   1.739   4.085 -0.1176 -1.5407 -3.0488
   9023SM   H9G12137   6.561   1.583   4.079  0.3570  0.5709 -1.2748
   9023SM  C10F12138   6.650   1.639   4.267 -0.6525 -0.1322  0.5429
   9023SM  H10F12139   6.679   1.735   4.315  0.7893 -0.2762  0.0043
   9023SM  H10G12140   6.748   1.594   4.240 -1.3030 -1.6520  0.6151
   9023SM  C11F12141   6.568   1.546   4.355  0.7024 -0.2759  0.6854
   9023SM  H11F12142   6.562   1.449   4.303 -1.9575  0.1028  0.1427
   9023SM  H11G12143   6.462   1.581   4.353  0.4248 -0.9732 -2.9823
   9023SM  C12F12144   6.623   1.545   4.491  0.3867  0.3706 -0.7601
   9023SM  H12F12145   6.611   1.646   4.536  1.3416  0.2713 -0.2525
   9023SM  H12G12146   6.733   1.531   4.491  0.7670  2.5540  1.6674
   9023SM  C13F12147   6.568   1.430   4.592  0.1917 -0.8198 -0.3279
   9023SM  H13F12148   6.602   1.329   4.559  0.3479 -1.4748  1.7094
   9023SM  H13G12149   6.458   1.433   4.576  0.1004  0.5077  0.4254
   9023SM  C14F12150   6.601   1.451   4.738 -0.6184  0.1753 -0.0090
   9023SM  H14F12151   6.597   1.555   4.776  0.6804  0.7060 -1.2375
   9023SM  H14G12152   6.710   1.436   4.725 -0.6943 -0.2541 -0.1693
   9023SM  C15F12153   6.539   1.345   4.828 -0.1870 -0.4975 -0.1948
   9023SM  H15F12154   6.568   1.247   4.786  1.5633 -0.9715  1.9199
   9023SM  H15G12155   6.431   1.351   4.807 -0.0844  0.0451 -0.5998
   9023SM  C16F12156   6.568   1.373   4.972 -0.4663  0.3017 -0.0375
   9023SM  H16F12157   6.539   1.479   4.991 -0.2349  0.4851 -0.7056
   9023SM  H16G12158   6.676   1.376   4.996 -0.7549 -0.2488  1.5006
   9023SM  C17F12159   6.498   1.283   5.079 -0.3012 -0.0613  0.0162
   9023SM  H17F12160   6.522   1.183   5.034  3.3518  1.3305 -1.5700
   9023SM  H17G12161   6.388   1.291   5.089 -0.2343 -1.5193  2.6006
   9023SM  C18F12162   6.550   1.293   5.223  0.0467  0.6939 -0.9987
   9023SM  H18F12163   6.538   1.400   5.252 -0.7197  0.5564 -0.7802
   9023SM  H18G12164   6.659   1.274   5.232  0.1134  1.1464 -0.7999
   9023SM  C19F12165   6.471   1.213   5.327 -0.1971  0.3785  0.6284
   9023SM  H19F12166   6.494   1.104   5.324  0.0838  0.4720 -1.2476
   9023SM  H19G12167   6.363   1.216   5.298  0.1058 -2.0662 -1.0737
   9023SM  C20F12168   6.483   1.270   5.467 -0.0381 -0.3222  0.0933
   9023SM  H20F12169   6.412   1.355   5.474 -0.2340 -0.4063 -0.8375
   9023SM  H20G12170   6.579   1.325   5.475  0.6435 -1.5892  0.9508
   9023SM  C21F12171   6.481   1.170   5.583  0.2153  0.2669 -0.0942
   9023SM  H21F12172   6.556   1.090   5.563 -1.4253 -1.4616  0.3270
   9023SM  H21G12173   6.380   1.123   5.584 -0.4675  1.7064  0.7698
   9023SM  C22F12174   6.501   1.236   5.722 -0.4064 -0.7695 -0.2815
   9023SM  H22F12175   6.418   1.304   5.750 -0.7857  1.4246 -5.5950
   9023SM  H22G12176   6.595   1.294   5.716  1.0812 -3.0050  0.4788
   9023SM  C23F12177   6.515   1.126   5.833  0.9295  0.0362  0.4760
   9023SM  H23F12178   6.418   1.074   5.846  1.6237 -1.1333  1.2443
   9023SM  H23G12179   6.532   1.175   5.931 -2.3828  0.2956  1.0123
   9023SM  H23H12180   6.589   1.050   5.799  1.1715 -0.0206  1.1127
   9123SM     N12181   0.214   4.166   2.838  0.1819  0.3519 -0.5082
   9123SM   C1512182   0.337   4.115   2.767  0.5643  0.3392 -0.1849
   9123SM  H15A12183   0.365   4.019   2.807  0.4039  1.3783  2.6266
   9123SM  H15B12184   0.423   4.175   2.793 -1.1227  2.6341  0.4494
   9123SM  H15C12185   0.325   4.105   2.660 -0.3615  0.2690 -0.0868
   9123SM   C1412186   0.225   4.136   2.985 -0.5265  0.5754 -0.7347
   9123SM  H14A12187   0.318   4.178   3.021 -0.8378  1.1293 -0.5553
   9123SM  H14B12188   0.220   4.032   3.011 -0.8283  0.4530 -1.2745
   9123SM  H14C12189   0.148   4.188   3.041 -0.0951  0.7568 -0.2931
   9123SM   C1312190   0.220   4.317   2.825  0.2096  0.0405  0.0459
   9123SM  H13A12191   0.250   4.336   2.723 -0.5887 -2.0960 -0.6366
   9123SM  H13B12192   0.284   4.366   2.897 -0.1997  0.2009  0.2986
   9123SM  H13C12193   0.123   4.361   2.839  1.4103  2.7409  0.5571
   9123SM   C1212194   0.085   4.111   2.779  0.2091  0.3772 -0.2768
   9123SM  H12A12195   0.104   4.007   2.756 -2.7137 -1.3536  3.9075
   9123SM  H12B12196   0.064   4.162   2.687 -0.2239  1.4021  0.3788
   9123SM   C1112197  -0.039   4.118   2.869 -0.1581  0.1436 -0.3952
   9123SM  H11A12198  -0.017   4.058   2.960  1.0385 -3.1834 -2.6959
   9123SM  H11B12199  -0.117   4.053   2.824  0.9539 -0.6223 -1.2643
   9123SM     P12200  -0.103   4.321   3.029 -0.3922  0.4760 -0.3917
   9123SM   O1312201   0.031   4.341   3.093 -0.4689 -0.4793  0.0582
   9123SM   O1412202  -0.184   4.441   3.016  0.2893  0.4049  0.4708
   9123SM   O1112203  -0.179   4.214   3.120 -0.3459  0.1150  0.2348
   9123SM   O1212204  -0.089   4.253   2.883 -0.1758  0.5988  0.0885
   9123SM   C1S12205  -0.171   4.235   3.265 -0.2273  0.3591 -0.3824
   9123SM   H1S12206  -0.211   4.333   3.299 -4.2515 -1.4995  0.8672
   9123SM   H1T12207  -0.066   4.225   3.302 -0.6508  3.1054  1.9216
   9123SM    NF12208  -0.290   4.176   3.473  0.4993  0.4695 -0.2531
   9123SM   HNF12209  -0.225   4.125   3.528 -0.1591 -1.3980 -1.1214
   9123SM   C2S12210  -0.271   4.130   3.336 -0.8625  0.6693 -0.7689
   9123SM   H2S12211  -0.364   4.136   3.276 -0.0582  0.1889 -2.1163
   9123SM   C3S12212  -0.197   3.991   3.323 -0.2449  0.7818  0.2556
   9123SM   H3S12213  -0.094   4.001   3.364  0.3192 -2.8421  0.0181
   9123SM    O312214  -0.168   3.938   3.193  0.6995 -0.1560  0.1218
   9123SM   HO312215  -0.170   4.021   3.144 -2.3075 -1.5262 -2.4652
   9123SM   C4S12216  -0.278   3.896   3.404  0.0103 -1.1900  0.8289
   9123SM   H4S12217  -0.383   3.901   3.372  0.7479  0.2764 -1.6906
   9123SM   C5S12218  -0.230   3.815   3.496 -0.2803 -1.2175 -0.0133
   9123SM   H5S12219  -0.122   3.822   3.514 -0.2364  2.1254 -0.8215
   9123SM   C6S12220  -0.307   3.726   3.582  0.1805 -0.2682  0.2387
   9123SM   H6S12221  -0.255   3.629   3.569  0.0151 -0.2836 -0.3544
   9123SM   H6T12222  -0.409   3.699   3.548  0.9705 -2.6975 -0.4424
   9123SM   C7S12223  -0.297   3.761   3.734  0.2441  0.4839  0.0666
   9123SM   H7S12224  -0.193   3.771   3.773 -0.0622  1.0865  0.7316
   9123SM   H7T12225  -0.352   3.683   3.790  0.1329  0.3721 -0.1976
   9123SM   C8S12226  -0.368   3.891   3.766 -0.1363 -0.2465  1.1011
   9123SM   H8S12227  -0.477   3.878   3.749 -0.0767 -0.8371  1.1510
   9123SM   H8T12228  -0.325   3.963   3.693 -0.5724 -1.8510 -0.8068
   9123SM   C9S12229  -0.343   3.936   3.908 -0.0838  0.1209 -0.1449
   9123SM   H9S12230  -0.236   3.915   3.927  0.0793  0.8464 -0.2357
   9123SM   H9T12231  -0.413   3.870   3.964  0.5275 -0.3409  0.0769
   9123SM  C10S12232  -0.372   4.081   3.935  0.7281 -0.8932  0.1782
   9123SM  H10S12233  -0.458   4.107   3.870 -2.3527 -0.5475  4.0093
   9123SM  H10T12234  -0.292   4.144   3.890 -0.3110 -0.8338 -1.6453
   9123SM  C11S12235  -0.405   4.115   4.080 -0.6465 -0.1847  0.1471
   9123SM  H11S12236  -0.488   4.053   4.121 -1.9356  2.2780  1.4943
   9123SM  H11T12237  -0.437   4.221   4.082 -1.2001 -0.3171 -1.1917
   9123SM  C12S12238  -0.283   4.090   4.174 -0.0635 -0.4499  0.4662
   9123SM  H12S12239  -0.185   4.111   4.125 -0.5220 -0.5867 -0.5248
   9123SM  H12T12240  -0.275   3.982   4.201 -2.5091 -1.1573 -1.2402
   9123SM  C13S12241  -0.285   4.187   4.290  0.1741 -0.6430 -0.5129
   9123SM  H13S12242  -0.295   4.293   4.258  0.6530 -0.0107  1.3223
   9123SM  H13T12243  -0.197   4.167   4.355 -0.4995  0.5420  0.8218
   9123SM  C14S12244  -0.409   4.159   4.373  0.8320 -0.4086 -0.0464
   9123SM  H14S12245  -0.418   4.051   4.396 -1.2874 -0.1617  0.4511
   9123SM  H14T12246  -0.503   4.190   4.323  0.7837  1.0597  0.9008
   9123SM  C15S12247  -0.403   4.235   4.506  0.2040  0.1802 -0.6104
   9123SM  H15S12248  -0.398   4.345   4.493  0.4279  0.2623  0.1265
   9123SM  H15T12249  -0.309   4.203   4.557  0.6153  1.6019 -0.4298
   9123SM  C16S12250  -0.533   4.217   4.593  0.2654  0.0891 -0.5681
   9123SM  H16S12251  -0.530   4.117   4.640  1.0424  0.3909  0.0384
   9123SM  H16T12252  -0.619   4.234   4.524 -0.3136 -0.0494  0.1169
   9123SM  C17S12253  -0.547   4.321   4.707 -0.0001  0.1563 -0.6646
   9123SM  H17S12254  -0.551   4.423   4.662  2.8178 -0.4979 -2.7011
   9123SM  H17T12255  -0.457   4.301   4.769 -0.1351 -1.2163 -0.8718
   9123SM  C18S12256  -0.663   4.294   4.800  0.7930 -0.4767 -0.8807
   9123SM  H18S12257  -0.754   4.344   4.762  0.0257 -0.6616  0.6287
   9123SM  H18T12258  -0.635   4.328   4.902 -1.2708  0.5469 -0.6103
   9123SM  H18U12259  -0.682   4.185   4.811 -1.2457 -0.3003 -2.1511
   9123SM   C1F12260  -0.383   4.263   3.508  0.1822  0.0642  0.3422
   9123SM    OF12261  -0.462   4.302   3.422 -0.2540 -0.3534  0.5103
   9123SM   C2F12262  -0.383   4.300   3.648  0.8754 -0.3758  0.0117
   9123SM   H2F12263  -0.278   4.305   3.682  0.7929 -0.5533  0.2954
   9123SM   H2G12264  -0.436   4.214   3.695  1.7986 -0.9023  0.1028
   9123SM   C3F12265  -0.464   4.428   3.680 -0.6210  0.9289 -0.1783
   9123SM   H3F12266  -0.565   4.419   3.633 -1.0757  2.5715  0.4111
   9123SM   H3G12267  -0.410   4.513   3.633 -1.4604  1.0280 -0.9929
   9123SM   C4F12268  -0.478   4.455   3.837 -0.3076  0.0620 -0.2275
   9123SM   H4F12269  -0.378   4.473   3.882  0.2978  1.1602 -1.9213
   9123SM   H4G12270  -0.522   4.366   3.888  0.9821 -0.3037  0.2875
   9123SM   C5F12271  -0.561   4.574   3.878 -0.1185 -0.2138 -0.0603
   9123SM   H5F12272  -0.669   4.549   3.875 -0.1189 -0.5233  1.4429
   9123SM   H5G12273  -0.540   4.661   3.813 -1.1246  0.4265  0.4442
   9123SM   C6F12274  -0.531   4.614   4.025 -0.3314 -0.2830  0.2963
   9123SM   H6F12275  -0.586   4.710   4.041 -0.1890 -0.5883  3.2545
   9123SM   H6G12276  -0.424   4.643   4.034 -1.0492  2.2647  1.8507
   9123SM   C7F12277  -0.562   4.513   4.129  0.2883 -0.2814 -0.4739
   9123SM   H7F12278  -0.479   4.510   4.204 -1.3131 -3.8799  1.3992
   9123SM   H7G12279  -0.577   4.415   4.079  0.9571  0.3277 -1.9245
   9123SM   C8F12280  -0.699   4.545   4.192  0.1828  0.8420  0.1211
   9123SM   H8F12281  -0.765   4.503   4.114  1.9224 -0.7010 -0.5873
   9123SM   H8G12282  -0.713   4.655   4.206 -0.6486  0.8853 -0.9391
   9123SM   C9F12283  -0.729   4.465   4.322 -0.0735  0.1064  0.4438
   9123SM   H9F12284  -0.656   4.488   4.402  0.6578 -0.3938 -0.0723
   9123SM   H9G12285  -0.713   4.355   4.318  0.5353  0.1513  1.3113
   9123SM  C10F12286  -0.874   4.489   4.381  0.0846  0.0959  0.5349
   9123SM  H10F12287  -0.934   4.475   4.289  3.2890  1.6655 -2.0073
   9123SM  H10G12288  -0.890   4.594   4.413 -1.4018  0.2125 -0.5211
   9123SM  C11F12289  -0.903   4.408   4.511 -0.3842 -0.2652 -0.2311
   9123SM  H11F12290  -0.839   4.447   4.594  0.3156 -3.6578  0.9511
   9123SM  H11G12291  -0.871   4.303   4.500 -0.9290 -0.3492 -1.1481
   9123SM  C12F12292  -1.050   4.402   4.562  0.2663 -0.1362 -0.0660
   9123SM  H12F12293  -1.059   4.325   4.641  0.6043  1.3356  1.4710
   9123SM  H12G12294  -1.118   4.381   4.477 -0.4448  0.5963  0.3107
   9123SM  C13F12295  -1.098   4.536   4.621  0.2902  0.3290  0.1544
   9123SM  H13F12296  -1.113   4.618   4.547 -1.2602 -0.0154  0.0429
   9123SM  H13G12297  -1.017   4.570   4.688  1.6491 -1.4793 -0.4850
   9123SM  C14F12298  -1.233   4.518   4.706 -0.3306 -0.7490  0.0870
   9123SM  H14F12299  -1.240   4.620   4.751 -1.4233  0.0895 -1.8665
   9123SM  H14G12300  -1.208   4.439   4.780  2.2553 -1.2309 -1.1757
   9123SM  C15F12301  -1.354   4.484   4.622 -0.8066  0.0353  0.2492
   9123SM  H15F12302  -1.354   4.373   4.618  1.9182 -0.0600  1.2011
   9123SM  H15G12303  -1.333   4.524   4.520  2.6498  0.3590  0.9883
   9123SM  C16F12304  -1.487   4.533   4.676  0.4559  0.3675 -0.7579
   9123SM  H16F12305  -1.475   4.642   4.694 -0.7093  0.4312 -0.2808
   9123SM  H16G12306  -1.493   4.488   4.777  0.7421  1.1459 -0.3831
   9123SM  C17F12307  -1.610   4.500   4.604  0.4556  0.2137  0.4902
   9123SM  H17F12308  -1.624   4.390   4.601 -0.9503  0.3746  0.5698
   9123SM  H17G12309  -1.608   4.529   4.497  0.0273 -0.7100  0.2136
   9123SM  C18F12310  -1.737   4.561   4.663 -0.3096  0.1331 -0.6718
   9123SM  H18F12311  -1.821   4.505   4.615 -0.8823  0.2178  0.2109
   9123SM  H18G12312  -1.730   4.668   4.637  3.3413  0.3815  0.7306
   9123SM  C19F12313  -1.763   4.539   4.815  0.0030  0.3191 -0.1404
   9123SM  H19F12314  -1.679   4.583   4.873  0.7272 -1.6625  0.3873
   9123SM  H19G12315  -1.760   4.430   4.836  0.3582  0.1190 -1.1821
   9123SM  C20F12316  -1.901   4.597   4.865  0.4889  0.6264  0.0885
   9123SM  H20F12317  -1.981   4.568   4.793  1.5595 -0.7480 -0.5827
   9123SM  H20G12318  -1.880   4.706   4.854  3.6620  0.0338 -0.6923
   9123SM  C21F12319  -1.937   4.562   5.011  0.4293 -0.9631  0.1459
   9123SM  H21F12320  -1.972   4.459   5.035 -3.4641  0.8763  3.6575
   9123SM  H21G12321  -2.022   4.628   5.037  0.6471 -1.1463  1.3931
   9123SM  C22F12322  -1.813   4.599   5.101  0.4157 -1.0458  0.3292
   9123SM  H22F12323  -1.780   4.696   5.058 -0.5368  0.2932  2.4340
   9123SM  H22G12324  -1.731   4.529   5.075 -0.0643 -0.9418 -1.5988
   9123SM  C23F12325  -1.837   4.621   5.249 -0.1892  1.1103 -0.0046
   9123SM  H23F12326  -1.906   4.548   5.296  0.9656  0.7269  1.1498
   9123SM  H23G12327  -1.864   4.728   5.263 -2.4644  0.5557  0.2067
   9123SM  H23H12328  -1.742   4.611   5.307  0.0051 -0.6956 -0.5876
   9223SM     N12329   5.098   3.280   3.137  0.0689 -0.5880 -0.5030
   9223SM   C1512330   5.226   3.337   3.076  0.4454  0.8385 -0.1348
   9223SM  H15A12331   5.278   3.257   3.025 -1.0714 -0.1474 -0.2111
   9223SM  H15B12332   5.295   3.374   3.150 -0.5132  0.2463  1.0803
   9223SM  H15C12333   5.189   3.420   3.017 -1.4862 -0.3831 -0.7302
   9223SM   C1412334   5.145   3.149   3.190  0.3789 -0.6062  0.2600
   9223SM  H14A12335   5.170   3.072   3.118  0.4324 -0.9736  0.6676
   9223SM  H14B12336   5.069   3.114   3.259 -0.2156  1.3594  0.6634
   9223SM  H14C12337   5.230   3.165   3.255  0.4128 -0.1216  0.0996
   9223SM   C1312338   5.058   3.372   3.246  0.0588  0.5617  0.5527
   9223SM  H13A12339   5.124   3.354   3.330 -2.8673  1.5529  3.2932
   9223SM  H13B12340   4.967   3.340   3.296 -0.0649 -1.1782 -0.6988
   9223SM  H13C12341   5.063   3.479   3.229 -0.9003  0.7474  1.3421
   9223SM   C1212342   4.983   3.257   3.032  0.3795 -0.6757 -0.6673
   9223SM  H12A12343   4.961   3.348   2.978  0.2747 -0.9716 -1.1332
   9223SM  H12B12344   4.895   3.247   3.093  0.6807 -0.5285 -0.1999
   9223SM   C1112345   5.002   3.132   2.949  0.0497 -0.1027  0.3387
   9223SM  H11A12346   5.110   3.118   2.925  0.1942 -0.9730  1.4110
   9223SM  H11B12347   4.953   3.153   2.851 -1.6945  0.6920  1.3434
   9223SM     P12348   4.791   3.007   3.025  0.0243  0.8052 -0.1034
   9223SM   O1312349   4.716   3.061   2.907  0.3756 -0.5568  0.1912
   9223SM   O1412350   4.765   2.867   3.078 -0.3301  0.2640  0.4632
   9223SM   O1112351   4.763   3.109   3.143 -0.7495 -0.2866  0.8719
   9223SM   O1212352   4.947   3.016   3.018  0.4306 -0.0809  0.7197
   9223SM   C1S12353   4.791   3.060   3.273  0.5295  0.1579  0.3385
   9223SM   H1S12354   4.901   3.052   3.279  0.5874 -0.9082 -1.4680
   9223SM   H1T12355   4.744   2.961   3.291  1.2486 -0.3716 -0.6103
   9223SM    NF12356   4.772   3.103   3.501 -0.2150 -0.3843 -0.3631
   9223SM   HNF12357   4.715   3.029   3.535 -1.6629  0.4720 -0.7966
   9223SM   C2S12358   4.734   3.162   3.375  0.4578  0.6136 -0.4627
   9223SM   H2S12359   4.788   3.258   3.356  2.3194 -0.4642 -0.8704
   9223SM   C3S12360   4.588   3.181   3.350  0.1624  0.1690 -0.4732
   9223SM   H3S12361   4.550   3.078   3.336 -0.1661 -0.1411  2.1894
   9223SM    O312362   4.554   3.258   3.240 -0.2316  0.6430  0.3499
   9223SM   HO312363   4.630   3.264   3.182 -0.2223 -0.2478  0.2505
   9223SM   C4S12364   4.518   3.241   3.464 -0.3986  0.5199 -0.6711
   9223SM   H4S12365   4.559   3.342   3.475  3.2926 -0.4790 -3.1717
   9223SM   C5S12366   4.414   3.192   3.532  0.7204  0.6866 -0.6737
   9223SM   H5S12367   4.382   3.090   3.509  1.3878  0.5017 -0.8128
   9223SM   C6S12368   4.337   3.258   3.648 -0.1322  0.2723  0.4661
   9223SM   H6S12369   4.336   3.202   3.744 -0.2631  0.5198  0.6093
   9223SM   H6T12370   4.232   3.257   3.611 -0.9869 -1.1498  2.7353
   9223SM   C7S12371   4.362   3.403   3.670 -0.1955  0.0876  0.0775
   9223SM   H7S12372   4.285   3.452   3.733  0.1403  1.4555 -0.5249
   9223SM   H7T12373   4.366   3.454   3.571 -0.8135 -0.6116 -0.3163
   9223SM   C8S12374   4.490   3.435   3.745  0.0030  0.1477 -0.1930
   9223SM   H8S12375   4.521   3.537   3.714  2.3694 -0.6182 -0.5484
   9223SM   H8T12376   4.573   3.370   3.711  1.2305  2.0391 -1.0003
   9223SM   C9S12377   4.488   3.424   3.898  0.3994 -0.5312  0.3169
   9223SM   H9S12378   4.422   3.504   3.939  1.1754 -0.2100  0.9643
   9223SM   H9T12379   4.591   3.448   3.932 -0.6388  4.1687  0.7937
   9223SM  C10S12380   4.450   3.289   3.958 -0.4794  0.2350 -0.0029
   9223SM  H10S12381   4.506   3.214   3.899  1.0268  2.0399 -0.9940
   9223SM  H10T12382   4.342   3.287   3.929 -0.3395  0.3603 -0.5399
   9223SM  C11S12383   4.466   3.277   4.112  0.5816 -0.7494 -0.1568
   9223SM  H11S12384   4.401   3.195   4.149  0.8315 -0.6411  0.5274
   9223SM  H11T12385   4.440   3.366   4.172  0.5419 -0.7558 -0.1642
   9223SM  C12S12386   4.608   3.254   4.154 -0.2771  0.2819  0.4273
   9223SM  H12S12387   4.656   3.354   4.163  0.2878 -0.1208  2.2735
   9223SM  H12T12388   4.660   3.206   4.068 -1.1657  0.2627 -0.1090
   9223SM  C13S12389   4.620   3.168   4.288  0.2298  0.3082 -0.2877
   9223SM  H13S12390   4.727   3.144   4.306 -0.3532 -1.4101  1.1843
   9223SM  H13T12391   4.571   3.072   4.264  2.9209 -1.3969  0.6172
   9223SM  C14S12392   4.559   3.217   4.418  0.0905  0.3547  0.1802
   9223SM  H14S12393   4.456   3.258   4.403 -1.1399 -1.7227  2.2673
   9223SM  H14T12394   4.612   3.308   4.454 -1.1534  1.3445 -0.4076
   9223SM  C15S12395   4.554   3.104   4.525  0.0985 -0.4524  0.5741
   9223SM  H15S12396   4.654   3.060   4.544  0.5442  1.1623  2.2626
   9223SM  H15T12397   4.478   3.025   4.504  0.3640 -0.1098 -2.0060
   9223SM  C16S12398   4.519   3.164   4.657  0.3410  0.4509  0.2242
   9223SM  H16S12399   4.609   3.218   4.695 -0.6874  2.2388  0.2217
   9223SM  H16T12400   4.504   3.087   4.735 -0.7773  0.5327  0.1103
   9223SM  C17S12401   4.405   3.256   4.670 -0.2267 -1.0186 -0.5217
   9223SM  H17S12402   4.434   3.356   4.631 -0.0134 -0.1897  1.6419
   9223SM  H17T12403   4.389   3.263   4.779 -0.7803  0.3720 -0.6701
   9223SM  C18S12404   4.275   3.213   4.616  0.5340 -0.5359 -0.1408
   9223SM  H18S12405   4.278   3.173   4.512 -0.0164 -0.0648 -0.3397
   9223SM  H18T12406   4.205   3.297   4.635  2.8713  1.3652  0.4876
   9223SM  H18U12407   4.243   3.118   4.665 -0.5266 -0.9027 -1.4684
   9223SM   C1F12408   4.895   3.120   3.552  0.7778  0.1133  0.5106
   9223SM    OF12409   4.963   3.212   3.513  0.0272  0.4879  0.2567
   9223SM   C2F12410   4.937   3.010   3.644 -0.7449 -0.9440 -0.4170
   9223SM   H2F12411   4.996   2.934   3.589  0.4214 -0.7745  0.5453
   9223SM   H2G12412   4.848   2.965   3.693 -0.8709  0.7971  1.0657
   9223SM   C3F12413   5.007   3.059   3.774 -0.0310 -0.8018 -0.3512
   9223SM   H3F12414   5.081   3.141   3.763 -0.1102 -0.6139  0.4427
   9223SM   H3G12415   5.066   2.973   3.813  0.8486  0.0448  0.2381
   9223SM   C4F12416   4.908   3.118   3.882 -0.1743 -0.9940  0.4437
   9223SM   H4F12417   4.817   3.054   3.887 -0.9941  0.0521 -0.4399
   9223SM   H4G12418   4.870   3.212   3.836 -0.0977 -1.1944 -0.0358
   9223SM   C5F12419   4.963   3.131   4.020  0.1287  0.4423 -0.3777
   9223SM   H5F12420   4.908   3.202   4.086 -0.2956 -0.5373  0.3465
   9223SM   H5G12421   5.068   3.166   4.005  0.1464 -0.3078 -2.2905
   9223SM   C6F12422   4.957   3.001   4.089 -0.1343  0.3219  0.4580
   9223SM   H6F12423   5.028   2.936   4.035  1.3705  1.0408  1.5007
   9223SM   H6G12424   4.859   2.950   4.076  0.0187  0.1634 -0.0845
   9223SM   C7F12425   5.010   3.019   4.233  0.3252 -0.1426 -0.5460
   9223SM   H7F12426   4.942   3.091   4.283  0.5699  1.0652 -1.8863
   9223SM   H7G12427   5.107   3.073   4.241 -0.5527  1.3833  0.1304
   9223SM   C8F12428   5.000   2.887   4.311 -0.2581 -0.6498 -0.3038
   9223SM   H8F12429   5.063   2.887   4.403 -0.0827  1.6930 -0.3457
   9223SM   H8G12430   5.038   2.806   4.246  0.8292 -1.6368  1.4953
   9223SM   C9F12431   4.857   2.847   4.345 -0.3498 -0.1801  0.2332
   9223SM   H9F12432   4.802   2.811   4.255 -0.6079 -1.1926  0.7780
   9223SM   H9G12433   4.797   2.936   4.375 -1.6628 -0.1605 -2.1900
   9223SM  C10F12434   4.851   2.729   4.447 -0.2956  0.3314 -0.3907
   9223SM  H10F12435   4.932   2.653   4.433  0.0622  0.8854 -1.4262
   9223SM  H10G12436   4.756   2.672   4.442 -0.4775  0.7483 -2.9886
   9223SM  C11F12437   4.854   2.786   4.592 -0.1742  0.4564 -0.8368
   9223SM  H11F12438   4.780   2.868   4.584 -0.6931 -0.0798 -1.7000
   9223SM  H11G12439   4.953   2.833   4.610  0.1353  0.0541 -1.4482
   9223SM  C12F12440   4.821   2.678   4.695 -0.5503 -0.1995 -0.5210
   9223SM  H12F12441   4.846   2.573   4.668  0.1313 -0.6076  1.5313
   9223SM  H12G12442   4.710   2.675   4.694 -0.6199  1.3517 -0.0085
   9223SM  C13F12443   4.866   2.704   4.841  0.5460  0.5277  0.1824
   9223SM  H13F12444   4.974   2.679   4.845  0.3208 -0.6382 -0.5668
   9223SM  H13G12445   4.807   2.641   4.912 -1.3280  0.2272 -1.5589
   9223SM  C14F12446   4.849   2.845   4.884 -0.0761  0.2334 -0.3582
   9223SM  H14F12447   4.870   2.920   4.805  2.1797  0.1391  0.0788
   9223SM  H14G12448   4.920   2.872   4.965  0.1179  0.5286 -0.6218
   9223SM  C15F12449   4.704   2.878   4.931  0.6385  0.1003 -0.7878
   9223SM  H15F12450   4.665   2.808   5.009 -0.4300  2.1658  0.6211
   9223SM  H15G12451   4.636   2.876   4.843 -2.2917  0.9601  1.2911
   9223SM  C16F12452   4.688   3.024   4.993  0.2615  0.6853 -0.3119
   9223SM  H16F12453   4.704   3.102   4.915  0.0590 -0.9060 -2.0070
   9223SM  H16G12454   4.773   3.029   5.065  0.6118  0.4230 -0.7021
   9223SM  C17F12455   4.556   3.043   5.067 -0.2787  0.0459 -0.1348
   9223SM  H17F12456   4.519   2.948   5.114  0.0609 -1.1117 -2.0923
   9223SM  H17G12457   4.484   3.070   4.987 -1.9970 -0.1921  1.2674
   9223SM  C18F12458   4.557   3.161   5.168 -0.8563 -0.2325 -0.2763
   9223SM  H18F12459   4.562   3.261   5.119  2.5637  0.2599  0.8006
   9223SM  H18G12460   4.651   3.152   5.226 -1.4059 -0.9267  0.5346
   9223SM  C19F12461   4.445   3.164   5.271 -0.6551  0.3874 -0.2669
   9223SM  H19F12462   4.436   3.069   5.327  0.9957 -0.2353 -1.0082
   9223SM  H19G12463   4.344   3.194   5.234 -0.3719  0.3536 -1.0870
   9223SM  C20F12464   4.465   3.267   5.377  0.3464 -0.4951 -0.5173
   9223SM  H20F12465   4.452   3.368   5.333  1.0185  0.2922  1.0116
   9223SM  H20G12466   4.566   3.241   5.417  0.1965 -1.1669 -0.5599
   9223SM  C21F12467   4.367   3.263   5.497  0.0221  0.1689  0.5287
   9223SM  H21F12468   4.419   3.320   5.577  0.8559  2.9168 -1.7942
   9223SM  H21G12469   4.349   3.156   5.518 -2.4470  0.2176 -1.0346
   9223SM  C22F12470   4.234   3.332   5.456  0.0100 -0.0602  0.1685
   9223SM  H22F12471   4.165   3.317   5.542 -1.0697 -0.0068 -0.6712
   9223SM  H22G12472   4.185   3.273   5.376 -0.1854  0.0195  0.2284
   9223SM  C23F12473   4.247   3.481   5.432  0.4343  0.3013  0.3992
   9223SM  H23F12474   4.303   3.499   5.338  1.3503  0.9052  1.0400
   9223SM  H23G12475   4.296   3.527   5.521 -0.0509 -0.3381  1.0087
   9223SM  H23H12476   4.144   3.522   5.431  0.7147  0.9998 -0.5564
   9323SM     N12477   6.525   4.174   2.470 -0.2488  0.5636 -0.3574
   9323SM   C1512478   6.620   4.112   2.366  0.6489  0.1012  0.4773
   9323SM  H15A12479   6.577   4.122   2.267  2.2714 -0.0840 -0.2722
   9323SM  H15B12480   6.625   4.005   2.382  2.3186  0.0805 -0.0338
   9323SM  H15C12481   6.719   4.155   2.371  1.7065 -2.1741  0.4150
   9323SM   C1412482   6.492   4.319   2.435  0.4303  0.4073 -0.0143
   9323SM  H14A12483   6.586   4.368   2.416  1.1274 -1.0335 -0.4468
   9323SM  H14B12484   6.436   4.365   2.515 -2.4030 -0.4112 -1.4160
   9323SM  H14C12485   6.440   4.322   2.341 -0.6880 -0.7870  0.5455
   9323SM   C1312486   6.397   4.096   2.470  0.1314 -0.3494  0.1014
   9323SM  H13A12487   6.340   4.096   2.378 -2.9690  0.1300  1.8714
   9323SM  H13B12488   6.323   4.126   2.543 -0.4289  1.2532 -1.0771
   9323SM  H13C12489   6.406   3.991   2.491 -0.1610 -0.4005 -0.0260
   9323SM   C1212490   6.602   4.179   2.607 -0.2905  0.7127 -0.1031
   9323SM  H12A12491   6.537   4.221   2.683 -0.4725 -3.4474  2.3469
   9323SM  H12B12492   6.692   4.237   2.606 -0.8691  1.6319  0.1540
   9323SM   C1112493   6.642   4.042   2.668  0.1538 -0.0446 -0.2719
   9323SM  H11A12494   6.700   4.072   2.758 -0.6495  1.2634 -0.1753
   9323SM  H11B12495   6.710   3.984   2.602 -0.4199  1.0819 -1.9263
   9323SM     P12496   6.454   3.990   2.828  0.1902  0.3776 -0.5286
   9323SM   O1312497   6.365   4.107   2.801 -0.6775  0.0770 -0.0316
   9323SM   O1412498   6.386   3.861   2.862 -0.6312 -0.3578 -0.0565
   9323SM   O1112499   6.561   4.030   2.932  0.9965  0.1843  0.6647
   9323SM   O1212500   6.533   3.960   2.698  0.2694  0.0278  0.0214
   9323SM   C1S12501   6.521   4.114   3.038  0.1077 -0.1779  0.1553
   9323SM   H1S12502   6.412   4.126   3.056  0.0535  0.2717 -0.4427
   9323SM   H1T12503   6.559   4.215   3.010  1.7508 -0.8624 -0.2121
   9323SM    NF12504   6.530   4.125   3.282 -0.5956  0.8169  0.4986
   9323SM   HNF12505   6.569   4.214   3.304 -0.6988  0.7691  0.8736
   9323SM   C2S12506   6.587   4.065   3.164 -0.5053  0.8616  0.3055
   9323SM   H2S12507   6.577   3.954   3.170  2.6154  0.3521 -1.3987
   9323SM   C3S12508   6.737   4.091   3.157  0.0337  0.2399 -0.7316
   9323SM   H3S12509   6.756   4.200   3.165 -1.1329  0.4418 -0.5832
   9323SM    O312510   6.801   4.057   3.035  0.1050 -0.1016  0.0462
   9323SM   HO312511   6.735   4.015   2.980  0.6416  0.0887 -0.7509
   9323SM   C4S12512   6.804   4.018   3.269  0.1296 -0.4374  0.1176
   9323SM   H4S12513   6.792   3.909   3.268 -0.6691 -0.4038  1.8492
   9323SM   C5S12514   6.866   4.070   3.384  0.4692  0.5538 -0.0121
   9323SM   H5S12515   6.862   4.178   3.405  1.1580  0.7124 -0.6450
   9323SM   C6S12516   6.930   3.982   3.494 -0.0946  0.0870  1.1161
   9323SM   H6S12517   7.033   4.017   3.513  1.0508 -2.4561 -0.0455
   9323SM   H6T12518   6.956   3.880   3.460  0.7532  0.4007  0.7940
   9323SM   C7S12519   6.845   3.962   3.619  0.0918 -0.2108  0.3085
   9323SM   H7S12520   6.900   3.894   3.688  0.4663  0.6586  0.8862
   9323SM   H7T12521   6.741   3.934   3.593  1.0253 -2.4651 -1.2638
   9323SM   C8S12522   6.843   4.098   3.702 -0.5438 -0.2793  0.5777
   9323SM   H8S12523   6.782   4.168   3.642  0.4293 -0.1021 -0.2356
   9323SM   H8T12524   6.945   4.141   3.707 -0.5074 -0.4180  1.2436
   9323SM   C9S12525   6.786   4.087   3.843 -0.1247 -0.2810 -0.2064
   9323SM   H9S12526   6.854   4.020   3.900  0.2310 -1.1106 -1.5557
   9323SM   H9T12527   6.684   4.043   3.839 -1.7267  3.0882 -0.0426
   9323SM  C10S12528   6.761   4.226   3.910  0.3041 -0.2617  0.1198
   9323SM  H10S12529   6.696   4.280   3.837 -0.1368  1.5198  1.7558
   9323SM  H10T12530   6.857   4.282   3.916  0.3232 -0.2228 -0.4511
   9323SM  C11S12531   6.692   4.215   4.047 -0.1717  0.7533 -0.4743
   9323SM  H11S12532   6.675   4.317   4.090 -1.2627  0.9390 -1.3019
   9323SM  H11T12533   6.771   4.164   4.106 -1.9619  0.2377  1.5978
   9323SM  C12S12534   6.563   4.134   4.052  0.7648 -0.1541 -0.0666
   9323SM  H12S12535   6.600   4.032   4.026  4.2264  0.6972  1.0566
   9323SM  H12T12536   6.494   4.169   3.972  0.8504 -0.0635 -0.0997
   9323SM  C13S12537   6.492   4.124   4.182 -0.2242 -0.4956 -0.7726
   9323SM  H13S12538   6.505   4.227   4.220  0.7452  0.1577 -2.7310
   9323SM  H13T12539   6.546   4.049   4.244 -0.0462  0.3909  0.1600
   9323SM  C14S12540   6.353   4.072   4.156 -0.1887 -0.0044 -0.2964
   9323SM  H14S12541   6.352   3.969   4.115  0.0358  0.1104 -0.5898
   9323SM  H14T12542   6.300   4.131   4.078  2.0813 -0.4934 -2.3205
   9323SM  C15S12543   6.270   4.077   4.282  0.0277 -0.2150 -0.1940
   9323SM  H15S12544   6.331   4.065   4.375 -0.5109  2.4509  0.5640
   9323SM  H15T12545   6.230   4.178   4.304 -1.2621 -0.8005  0.2504
   9323SM  C16S12546   6.159   3.976   4.285  0.3154 -0.6912 -0.2988
   9323SM  H16S12547   6.205   3.877   4.262  1.1431 -0.6636  1.1444
   9323SM  H16T12548   6.096   4.002   4.197  0.1428 -2.8332 -0.8751
   9323SM  C17S12549   6.084   3.969   4.413  0.4626  0.5694 -0.4731
   9323SM  H17S12550   6.058   4.059   4.473  0.9177  0.6661 -0.4171
   9323SM  H17T12551   6.153   3.909   4.477 -0.9049  0.7789  1.2856
   9323SM  C18S12552   5.967   3.871   4.402 -0.9700  0.0044 -0.3922
   9323SM  H18S12553   5.925   3.851   4.503 -1.3164 -1.9044 -0.8693
   9323SM  H18T12554   5.998   3.767   4.377  0.2647 -0.3641  2.3452
   9323SM  H18U12555   5.890   3.913   4.334 -0.5129 -0.3170 -1.1165
   9323SM   C1F12556   6.409   4.094   3.321  0.6353  0.2671  0.0519
   9323SM    OF12557   6.344   4.003   3.273 -0.0253 -0.5457  0.3528
   9323SM   C2F12558   6.345   4.198   3.411 -0.1231  0.0495 -0.1683
   9323SM   H2F12559   6.248   4.220   3.363  0.2914  2.1476 -0.1175
   9323SM   H2G12560   6.405   4.291   3.415 -1.1051  0.7177 -0.5983
   9323SM   C3F12561   6.326   4.135   3.549 -0.8457  0.1710 -0.1967
   9323SM   H3F12562   6.426   4.136   3.598 -0.7875 -3.4067  0.0184
   9323SM   H3G12563   6.280   4.034   3.556 -0.8812  0.2761  2.0668
   9323SM   C4F12564   6.230   4.223   3.622 -0.3872 -0.8396  0.2208
   9323SM   H4F12565   6.136   4.235   3.564 -0.6265  0.4488  0.8444
   9323SM   H4G12566   6.267   4.327   3.637  0.1791 -1.2900  2.3202
   9323SM   C5F12567   6.195   4.160   3.754  0.1469  0.4107 -0.1886
   9323SM   H5F12568   6.293   4.149   3.805  1.7718  0.1489 -3.0877
   9323SM   H5G12569   6.145   4.062   3.738  1.1611 -0.1453 -0.0801
   9323SM   C6F12570   6.089   4.246   3.828 -0.1827 -0.4809  0.4576
   9323SM   H6F12571   5.994   4.254   3.770 -0.5319  0.9345  1.1947
   9323SM   H6G12572   6.126   4.350   3.836  1.6428 -1.0120 -0.5393
   9323SM   C7F12573   6.046   4.180   3.964  0.3537  0.0133  0.0919
   9323SM   H7F12574   6.119   4.223   4.036  1.1420 -0.7346 -0.2527
   9323SM   H7G12575   6.056   4.070   3.955  0.9813  0.2152 -2.3084
   9323SM   C8F12576   5.902   4.215   4.005 -0.6968  0.3887 -0.3480
   9323SM   H8F12577   5.835   4.167   3.930  0.1801 -3.1303  0.9086
   9323SM   H8G12578   5.887   4.325   3.999  4.3319  1.2970 -0.3380
   9323SM   C9F12579   5.863   4.165   4.147 -0.9757  0.3159 -0.3175
   9323SM   H9F12580   5.944   4.188   4.220  0.8028 -3.6677 -0.7484
   9323SM   H9G12581   5.845   4.055   4.149 -1.2742  0.3725  0.9730
   9323SM  C10F12582   5.736   4.224   4.201 -0.4710 -0.2232 -0.5400
   9323SM  H10F12583   5.719   4.168   4.295  2.9813 -0.6428 -0.0159
   9323SM  H10G12584   5.647   4.213   4.136 -0.4440 -0.7799 -0.4859
   9323SM  C11F12585   5.747   4.376   4.231  0.4755 -0.4438 -0.2226
   9323SM  H11F12586   5.791   4.438   4.150  2.0535  0.3651  1.2184
   9323SM  H11G12587   5.830   4.380   4.304  1.2819  1.4748 -1.1725
   9323SM  C12F12588   5.615   4.444   4.278 -0.2796  0.4534 -0.8176
   9323SM  H12F12589   5.593   4.377   4.364  2.2734 -2.7981 -2.4683
   9323SM  H12G12590   5.536   4.438   4.200 -1.2286 -0.8318  0.2076
   9323SM  C13F12591   5.640   4.582   4.325  0.2179 -0.7991 -0.3644
   9323SM  H13F12592   5.740   4.600   4.371 -0.1434  0.3325  0.0129
   9323SM  H13G12593   5.561   4.608   4.398  0.0503 -1.0074 -0.4714
   9323SM  C14F12594   5.618   4.685   4.216  0.3145 -0.2253  0.7617
   9323SM  H14F12595   5.516   4.664   4.177  0.4888 -0.7997  0.6081
   9323SM  H14G12596   5.686   4.675   4.129 -0.2673  2.3432 -0.0853
   9323SM  C15F12597   5.621   4.826   4.272 -0.0658  0.3486 -0.4991
   9323SM  H15F12598   5.721   4.840   4.320 -0.3083 -1.5944  0.6739
   9323SM  H15G12599   5.551   4.835   4.358  1.6898 -0.9895  1.1795
   9323SM  C16F12600   5.597   4.923   4.157 -0.3091  0.3525  0.2080
   9323SM  H16F12601   5.512   4.880   4.100  1.2506 -2.7462  0.0245
   9323SM  H16G12602   5.686   4.931   4.092  0.3219 -1.4351  0.8001
   9323SM  C17F12603   5.559   5.067   4.206  0.3942  0.8500 -0.6543
   9323SM  H17F12604   5.559   5.117   4.107  0.3827  1.6119 -0.2705
   9323SM  H17G12605   5.629   5.104   4.283  0.1745 -0.6834  0.3275
   9323SM  C18F12606   5.422   5.088   4.259  0.6723  0.8494  0.0828
   9323SM  H18F12607   5.391   5.001   4.320 -2.8454  0.5277 -1.8995
   9323SM  H18G12608   5.353   5.075   4.172 -1.9786  0.0390  2.1699
   9323SM  C19F12609   5.398   5.210   4.341  0.0727 -0.0500 -0.0758
   9323SM  H19F12610   5.296   5.248   4.320  0.0234 -0.8226 -1.3215
   9323SM  H19G12611   5.473   5.285   4.309 -0.8971  0.5057 -1.1470
   9323SM  C20F12612   5.432   5.194   4.493 -0.7159  0.4417  0.2877
   9323SM  H20F12613   5.525   5.134   4.507 -1.0127  0.4649  2.8727
   9323SM  H20G12614   5.359   5.124   4.538  0.7580 -0.2420  1.6917
   9323SM  C21F12615   5.450   5.318   4.569 -0.1671 -0.2197 -0.4325
   9323SM  H21F12616   5.410   5.397   4.501 -1.9135 -0.9755 -0.3251
   9323SM  H21G12617   5.559   5.333   4.588 -0.2049 -1.6530  1.1203
   9323SM  C22F12618   5.376   5.307   4.703 -0.3312 -0.1045  0.3318
   9323SM  H22F12619   5.395   5.207   4.749  0.5742 -0.4999 -0.8500
   9323SM  H22G12620   5.268   5.296   4.679 -0.2760 -0.4681  0.2290
   9323SM  C23F12621   5.401   5.417   4.813 -0.8111  0.1554 -0.6003
   9323SM  H23F12622   5.374   5.512   4.763 -1.4722  0.6640  0.6515
   9323SM  H23G12623   5.504   5.410   4.853 -1.0221  0.9445  0.1085
   9323SM  H23H12624   5.322   5.411   4.892 -3.2692  2.6655 -2.6674
   9423SM     N12625   5.140   6.686   3.050  0.3780 -0.0713 -0.2069
   9423SM   C1512626   5.229   6.756   2.950 -0.0917 -0.3240  0.1441
   9423SM  H15A12627   5.333   6.728   2.960 -0.1751  0.1365  3.6455
   9423SM  H15B12628   5.236   6.863   2.968 -2.3794  0.0775 -0.9249
   9423SM  H15C12629   5.193   6.744   2.849 -2.8031 -0.8665  1.0740
   9423SM   C1412630   5.128   6.540   3.007 -0.8259  0.1618 -0.6529
   9423SM  H14A12631   5.225   6.494   3.020 -1.4818 -1.3168 -0.7367
   9423SM  H14B12632   5.099   6.532   2.904 -0.9270 -0.5932 -0.5693
   9423SM  H14C12633   5.060   6.488   3.074  0.5767  0.1139  0.7945
   9423SM   C1312634   5.197   6.696   3.189 -0.1118 -0.1255  0.2454
   9423SM  H13A12635   5.137   6.634   3.254  0.6147 -1.8995 -0.6956
   9423SM  H13B12636   5.213   6.797   3.224  1.5733 -0.3521  0.1849
   9423SM  H13C12637   5.297   6.657   3.189 -0.4117 -0.9250 -0.4353
   9423SM   C1212638   5.005   6.745   3.051  0.6839  0.0672  0.0107
   9423SM  H12A12639   4.959   6.767   2.956  2.2613  1.2677 -0.5147
   9423SM  H12B12640   5.020   6.843   3.094  1.7010  0.6319 -1.5419
   9423SM   C1112641   4.900   6.672   3.133  0.0331 -0.3620  0.1032
   9423SM  H11A12642   4.817   6.742   3.158 -0.8435 -1.2910 -0.1472
   9423SM  H11B12643   4.947   6.653   3.232  1.4127  0.6522 -0.3270
   9423SM     P12644   4.754   6.561   2.956  0.2202  0.0306 -0.2146
   9423SM   O1312645   4.756   6.699   2.903 -0.2967  0.0508 -0.0123
   9423SM   O1412646   4.783   6.450   2.861 -0.0879  0.1193  0.0357
   9423SM   O1112647   4.617   6.533   3.037 -0.0094 -0.0251 -0.4192
   9423SM   O1212648   4.861   6.547   3.073  0.3377 -0.2445  0.0086
   9423SM   C1S12649   4.617   6.481   3.170  0.1067 -0.4265  0.4228
   9423SM   H1S12650   4.712   6.428   3.187  1.2142  1.3825  0.1964
   9423SM   H1T12651   4.537   6.406   3.185  0.6108 -1.0516  0.0241
   9423SM    NF12652   4.604   6.519   3.420 -0.3493  0.6216  0.3561
   9423SM   HNF12653   4.516   6.492   3.458  0.0265 -1.6172 -0.1668
   9423SM   C2S12654   4.595   6.589   3.289  0.1373 -0.2170  0.0376
   9423SM   H2S12655   4.669   6.671   3.277 -0.0672  0.0034  0.3013
   9423SM   C3S12656   4.457   6.657   3.273  0.3042  1.0363  0.4642
   9423SM   H3S12657   4.380   6.576   3.271  1.4318 -0.0826  0.9887
   9423SM    O312658   4.436   6.722   3.149 -0.3617 -0.6045 -0.3672
   9423SM   HO312659   4.502   6.688   3.088  1.9391  1.9463  0.4650
   9423SM   C4S12660   4.426   6.759   3.386  0.2152  0.9266 -0.0738
   9423SM   H4S12661   4.522   6.803   3.417  0.3388  0.9158 -0.4281
   9423SM   C5S12662   4.310   6.793   3.445  0.1777 -0.5869 -0.1323
   9423SM   H5S12663   4.216   6.739   3.428  0.5222 -2.5175  3.2503
   9423SM   C6S12664   4.307   6.895   3.559 -0.0141  0.4402 -0.4543
   9423SM   H6S12665   4.230   6.970   3.531 -1.5577 -1.1770 -0.7097
   9423SM   H6T12666   4.406   6.942   3.577 -0.9158  2.6642 -0.9414
   9423SM   C7S12667   4.273   6.843   3.696  0.4659  0.8339  0.0283
   9423SM   H7S12668   4.344   6.761   3.721  0.1871  1.3139  2.6976
   9423SM   H7T12669   4.167   6.809   3.690  0.9521 -0.5794 -1.0559
   9423SM   C8S12670   4.298   6.943   3.809  0.8755  0.5335  0.6097
   9423SM   H8S12671   4.221   7.022   3.799 -0.0830 -0.5722 -1.3746
   9423SM   H8T12672   4.400   6.983   3.790  0.9192 -0.2228 -0.8999
   9423SM   C9S12673   4.306   6.893   3.950 -0.4830 -0.0867 -0.0045
   9423SM   H9S12674   4.207   6.854   3.981 -1.6167  1.4231 -1.5759
   9423SM   H9T12675   4.333   6.985   4.006  3.3735 -0.0249 -1.6707
   9423SM  C10S12676   4.410   6.781   3.984 -0.2561 -1.0874  0.0483
   9423SM  H10S12677   4.512   6.809   3.951 -0.7355  1.2560  0.3970
   9423SM  H10T12678   4.376   6.690   3.930 -0.2917 -1.8960  1.3934
   9423SM  C11S12679   4.402   6.737   4.131  0.1589  0.4033  0.1285
   9423SM  H11S12680   4.452   6.640   4.152 -0.5083 -0.5342 -2.2303
   9423SM  H11T12681   4.296   6.715   4.153  0.7738 -1.7643  1.1992
   9423SM  C12S12682   4.463   6.843   4.225 -0.2563  0.8029 -0.9065
   9423SM  H12S12683   4.385   6.922   4.233 -0.4302  0.4656  1.4163
   9423SM  H12T12684   4.557   6.883   4.182 -0.4927  0.6386 -1.5916
   9423SM  C13S12685   4.486   6.789   4.367  0.0498 -0.0904 -0.0319
   9423SM  H13S12686   4.542   6.693   4.366 -1.9203 -1.3078 -1.5771
   9423SM  H13T12687   4.387   6.755   4.401 -0.8728  2.2468 -0.1818
   9423SM  C14S12688   4.550   6.887   4.470  0.2905  0.0364  0.0523
   9423SM  H14S12689   4.501   6.986   4.457 -2.9904 -0.8109  3.9173
   9423SM  H14T12690   4.657   6.897   4.443  0.6617  1.9069  2.0228
   9423SM  C15S12691   4.536   6.850   4.624 -0.1847  0.7441 -0.9081
   9423SM  H15S12692   4.561   6.742   4.621 -0.8256  0.5420  0.2689
   9423SM  H15T12693   4.427   6.846   4.643 -0.4862 -0.6876 -2.6961
   9423SM  C16S12694   4.618   6.927   4.731  0.1288 -0.3683 -0.0326
   9423SM  H16S12695   4.573   7.028   4.746  1.8864  0.5613 -0.7712
   9423SM  H16T12696   4.719   6.944   4.687 -0.3397  1.6862 -0.4614
   9423SM  C17S12697   4.620   6.869   4.873 -0.0521  0.1864  0.4977
   9423SM  H17S12698   4.669   6.769   4.870 -2.1595 -0.9662  2.2699
   9423SM  H17T12699   4.519   6.849   4.914  0.5408  0.9549  2.4015
   9423SM  C18S12700   4.705   6.952   4.975  0.0196  0.0396 -0.2935
   9423SM  H18S12701   4.663   7.053   4.994  1.2890  0.8496 -1.5790
   9423SM  H18T12702   4.808   6.961   4.934  0.8758 -0.8952  1.5200
   9423SM  H18U12703   4.716   6.899   5.072  1.7045  1.3136  0.2667
   9423SM   C1F12704   4.723   6.480   3.465 -0.6428 -0.7527  0.0984
   9423SM    OF12705   4.822   6.539   3.421 -0.0999 -0.3504  0.1329
   9423SM   C2F12706   4.730   6.371   3.566  0.0393 -0.4367  0.3779
   9423SM   H2F12707   4.668   6.283   3.540  0.1539  0.3829 -3.1075
   9423SM   H2G12708   4.705   6.412   3.666 -3.3540 -0.1309 -0.4809
   9423SM   C3F12709   4.875   6.328   3.582  0.7891 -0.1365 -0.3209
   9423SM   H3F12710   4.934   6.410   3.626  2.2663 -1.4109  0.1747
   9423SM   H3G12711   4.925   6.323   3.482  1.8813  0.7516  0.1586
   9423SM   C4F12712   4.888   6.204   3.666  0.1625  0.4992 -0.1235
   9423SM   H4F12713   4.996   6.183   3.680  0.3066  0.2461 -1.4808
   9423SM   H4G12714   4.844   6.112   3.623  0.7004  1.1967 -2.2833
   9423SM   C5F12715   4.836   6.212   3.809 -0.0935  0.5521 -0.2188
   9423SM   H5F12716   4.728   6.184   3.809 -0.2055  0.8908 -1.9659
   9423SM   H5G12717   4.851   6.320   3.828 -0.0955  0.4755  0.2290
   9423SM   C6F12718   4.897   6.115   3.908 -0.5131 -0.0327  0.6824
   9423SM   H6F12719   5.007   6.127   3.906 -0.5475  0.2989 -0.8881
   9423SM   H6G12720   4.869   6.009   3.891 -0.6046 -0.0133  0.7095
   9423SM   C7F12721   4.843   6.152   4.044 -0.4726  0.3344  0.0199
   9423SM   H7F12722   4.735   6.129   4.027 -0.0178 -3.2272  1.1772
   9423SM   H7G12723   4.858   6.259   4.068  0.1947  0.7885 -2.1734
   9423SM   C8F12724   4.899   6.049   4.145 -0.6524  0.7619 -0.2967
   9423SM   H8F12725   5.010   6.050   4.131 -0.0811 -1.2615  2.8904
   9423SM   H8G12726   4.855   5.948   4.138 -0.5892  0.6767  0.4241
   9423SM   C9F12727   4.895   6.094   4.293  0.8037 -0.7325  0.1360
   9423SM   H9F12728   4.800   6.082   4.349  0.9575  2.6710  1.3995
   9423SM   H9G12729   4.899   6.204   4.276  1.4803 -1.0798 -2.3954
   9423SM  C10F12730   4.998   6.022   4.374  0.2596 -0.4747  0.0552
   9423SM  H10F12731   5.092   6.021   4.315 -0.7730 -0.1422 -1.6518
   9423SM  H10G12732   4.956   5.921   4.390 -2.3872  0.6908  1.0206
   9423SM  C11F12733   5.008   6.108   4.505 -0.0059  1.1133  0.1072
   9423SM  H11F12734   4.908   6.100   4.553 -0.6512 -0.9663 -1.4496
   9423SM  H11G12735   5.018   6.218   4.492 -1.5909  1.1968 -0.6273
   9423SM  C12F12736   5.123   6.058   4.593  0.4593  0.6184 -0.1213
   9423SM  H12F12737   5.218   6.062   4.536  0.2339 -0.0905 -0.5589
   9423SM  H12G12738   5.097   5.951   4.612 -0.0185  0.6840 -0.3795
   9423SM  C13F12739   5.134   6.136   4.725  0.3110 -0.3479 -0.6000
   9423SM  H13F12740   5.035   6.128   4.776 -0.3037 -1.9722 -1.9440
   9423SM  H13G12741   5.147   6.244   4.702  0.1760 -0.2886 -0.4009
   9423SM  C14F12742   5.254   6.087   4.816  0.1480 -0.1757  0.6960
   9423SM  H14F12743   5.250   5.976   4.811 -0.3968 -0.0940 -2.4753
   9423SM  H14G12744   5.233   6.126   4.918 -2.4645  0.7015 -0.1134
   9423SM  C15F12745   5.396   6.139   4.787 -0.0017 -0.3264  0.5400
   9423SM  H15F12746   5.408   6.248   4.805  1.4337 -0.2503 -0.6797
   9423SM  H15G12747   5.403   6.130   4.677  1.9148 -1.8883  0.7264
   9423SM  C16F12748   5.508   6.066   4.862 -0.1635 -0.0981  0.1600
   9423SM  H16F12749   5.596   6.131   4.841 -0.4264  0.7875  1.6406
   9423SM  H16G12750   5.524   5.972   4.805  0.0287  0.0903 -0.1034
   9423SM  C17F12751   5.480   6.044   5.010 -0.0917  0.3737  0.3844
   9423SM  H17F12752   5.416   5.956   5.033  0.1336 -0.1088 -0.7705
   9423SM  H17G12753   5.429   6.138   5.042  0.9086  0.3408  2.1776
   9423SM  C18F12754   5.609   6.004   5.072  0.5905  0.5225 -0.1656
   9423SM  H18F12755   5.683   6.087   5.070 -1.0761  2.0349 -1.9249
   9423SM  H18G12756   5.653   5.916   5.020 -1.6365 -1.4134  1.0507
   9423SM  C19F12757   5.592   5.968   5.224  0.3198  0.6670  1.0947
   9423SM  H19F12758   5.532   5.875   5.238  0.2454  0.0749 -2.2747
   9423SM  H19G12759   5.549   6.052   5.282  1.0032  1.3440  0.6421
   9423SM  C20F12760   5.722   5.931   5.298  0.3607 -0.0691 -0.0152
   9423SM  H20F12761   5.784   6.023   5.309 -1.2067  1.0523 -0.1903
   9423SM  H20G12762   5.788   5.855   5.252  0.2572  0.6215 -1.3657
   9423SM  C21F12763   5.684   5.898   5.443 -0.6275  0.0718 -0.2099
   9423SM  H21F12764   5.624   5.805   5.457 -0.5329 -0.3542 -2.3446
   9423SM  H21G12765   5.629   5.986   5.480  0.0606  1.2398 -1.8605
   9423SM  C22F12766   5.794   5.888   5.552  1.0053 -0.0016  0.7236
   9423SM  H22F12767   5.739   5.845   5.638  1.0977 -2.1322 -0.2248
   9423SM  H22G12768   5.821   5.991   5.583  3.8750 -0.8843  1.4024
   9423SM  C23F12769   5.910   5.801   5.523  0.2912 -0.5866  0.0977
   9423SM  H23F12770   5.968   5.770   5.613 -1.5235 -1.4651  1.0494
   9423SM  H23G12771   5.981   5.846   5.451  0.6853 -0.4607  0.5587
   9423SM  H23H12772   5.866   5.710   5.476 -0.1679 -0.0026 -0.6261
   9523SM     N12773   1.434   1.032   2.536 -0.2980  0.2321  0.1361
   9523SM   C1512774   1.528   1.141   2.492 -0.4487  0.5439 -0.7785
   9523SM  H15A12775   1.480   1.196   2.413  1.5591 -0.0745 -2.5038
   9523SM  H15B12776   1.617   1.097   2.450 -0.4315 -0.3172  0.1065
   9523SM  H15C12777   1.547   1.205   2.577 -0.0036 -0.4327 -0.1235
   9523SM   C1412778   1.367   0.992   2.407 -0.5236  0.6959  0.1405
   9523SM  H14A12779   1.271   0.948   2.429 -0.7272  1.5904  1.1113
   9523SM  H14B12780   1.422   0.921   2.346 -0.6118  0.8515 -0.1198
   9523SM  H14C12781   1.343   1.080   2.350  0.6958 -0.3343 -2.0840
   9523SM   C1312782   1.510   0.910   2.589  0.7529 -0.3841  0.0232
   9523SM  H13A12783   1.588   0.887   2.519 -0.8801  0.4010 -2.1799
   9523SM  H13B12784   1.445   0.824   2.601  1.5565 -1.0246 -0.1124
   9523SM  H13C12785   1.566   0.936   2.678  0.4410  2.4724 -0.5154
   9523SM   C1212786   1.324   1.081   2.629  0.9120  0.1283  0.0079
   9523SM  H12A12787   1.266   0.994   2.656  3.0224 -0.9880  1.2410
   9523SM  H12B12788   1.262   1.158   2.586 -1.7110 -1.6938  0.3088
   9523SM   C1112789   1.372   1.137   2.767  0.2274  0.3859  0.1012
   9523SM  H11A12790   1.292   1.206   2.802  0.0689  0.7988 -1.0263
   9523SM  H11B12791   1.466   1.196   2.771  0.9027 -0.6301 -0.3097
   9523SM     P12792   1.266   0.954   2.910 -0.0916 -0.2888 -0.2667
   9523SM   O1312793   1.177   1.053   2.980 -0.0274 -0.1005 -0.1380
   9523SM   O1412794   1.202   0.886   2.797 -0.0305  0.1594 -0.4293
   9523SM   O1112795   1.337   0.853   3.002 -0.4200 -0.2150  0.3044
   9523SM   O1212796   1.384   1.027   2.857 -0.0688  0.4915 -0.4825
   9523SM   C1S12797   1.420   0.751   2.951 -0.9551  0.1099 -0.1331
   9523SM   H1S12798   1.486   0.785   2.868 -0.2372  2.0167  1.1348
   9523SM   H1T12799   1.359   0.667   2.913 -1.4358  0.4014 -0.0141
   9523SM    NF12800   1.603   0.594   3.017  0.0569  0.6634 -0.7152
   9523SM   HNF12801   1.589   0.506   3.061  0.7300  1.6815  1.6946
   9523SM   C2S12802   1.514   0.704   3.064  0.0283  0.0242  0.7699
   9523SM   H2S12803   1.576   0.791   3.093 -0.4447  1.1346 -1.3167
   9523SM   C3S12804   1.419   0.666   3.182  0.3571 -0.2616 -0.1607
   9523SM   H3S12805   1.328   0.612   3.150  0.6272 -1.4091  0.9385
   9523SM    O312806   1.377   0.785   3.264 -0.3621 -0.0079 -0.0114
   9523SM   HO312807   1.380   0.859   3.204  0.2356  1.0395  1.2578
   9523SM   C4S12808   1.487   0.576   3.274 -0.5011  0.0770 -0.0060
   9523SM   H4S12809   1.429   0.490   3.312  0.2724 -1.8517 -2.9045
   9523SM   C5S12810   1.611   0.594   3.320  0.3536 -0.1931  0.6161
   9523SM   H5S12811   1.668   0.680   3.283 -0.1859  0.0108  0.2442
   9523SM   C6S12812   1.679   0.508   3.418 -0.0448  0.7587 -0.4175
   9523SM   H6S12813   1.742   0.572   3.483  0.0064  0.0165  0.2868
   9523SM   H6T12814   1.755   0.439   3.375 -1.6795 -1.6082  0.2338
   9523SM   C7S12815   1.593   0.428   3.518  0.1226 -0.8052  0.7443
   9523SM   H7S12816   1.546   0.342   3.467 -1.1278  1.1201 -1.5845
   9523SM   H7T12817   1.517   0.501   3.554  0.9909  1.7690 -2.1517
   9523SM   C8S12818   1.665   0.381   3.644 -0.2262 -0.4686 -0.5879
   9523SM   H8S12819   1.718   0.471   3.682  0.7039  0.0543 -2.9460
   9523SM   H8T12820   1.749   0.314   3.617  0.1768 -1.1681  2.1182
   9523SM   C9S12821   1.576   0.315   3.744 -0.0060 -0.9753 -0.3771
   9523SM   H9S12822   1.500   0.246   3.702 -0.4260 -2.3219  2.3870
   9523SM   H9T12823   1.530   0.398   3.801 -0.7082 -0.9027 -1.0313
   9523SM  C10S12824   1.655   0.230   3.847  0.1427 -0.5878 -0.7439
   9523SM  H10S12825   1.736   0.288   3.894 -0.9515  0.4505 -0.0731
   9523SM  H10T12826   1.700   0.149   3.786 -1.6125 -0.4272 -2.3385
   9523SM  C11S12827   1.569   0.170   3.962  0.1603  0.3965 -0.4794
   9523SM  H11S12828   1.481   0.121   3.915 -0.2143 -0.8501  1.4167
   9523SM  H11T12829   1.532   0.254   4.024  0.9336  0.7979 -0.5565
   9523SM  C12S12830   1.650   0.069   4.043 -0.0348 -0.0149 -0.1088
   9523SM  H12S12831   1.744   0.121   4.072 -0.8134 -0.0060  2.7097
   9523SM  H12T12832   1.678  -0.016   3.978 -2.4179  0.1585 -1.4842
   9523SM  C13S12833   1.573   0.032   4.171  0.3157 -0.1529 -0.7981
   9523SM  H13S12834   1.475  -0.017   4.149 -0.2391  0.1088  0.9686
   9523SM  H13T12835   1.569   0.125   4.231 -1.8512 -1.7735  1.8189
   9523SM  C14S12836   1.663  -0.068   4.250 -0.5172 -0.3024  0.2223
   9523SM  H14S12837   1.766  -0.027   4.255  0.2561 -1.9311 -1.3449
   9523SM  H14T12838   1.666  -0.168   4.203 -0.4546  0.7195 -2.1092
   9523SM  C15S12839   1.610  -0.093   4.390  0.0363  0.4917  0.1832
   9523SM  H15S12840   1.509  -0.137   4.386 -1.7618  4.1302  1.4599
   9523SM  H15T12841   1.607  -0.000   4.451  1.7128  0.4295  0.4140
   9523SM  C16S12842   1.713  -0.183   4.468  0.2792 -0.0180 -0.5539
   9523SM  H16S12843   1.802  -0.117   4.474  0.0202  0.2953 -0.0286
   9523SM  H16T12844   1.717  -0.276   4.408 -1.1925 -1.1737  1.0454
   9523SM  C17S12845   1.672  -0.232   4.615 -0.0760 -0.1096 -0.1988
   9523SM  H17S12846   1.568  -0.271   4.615  0.6935 -2.4504  2.1316
   9523SM  H17T12847   1.679  -0.142   4.680 -1.6469 -0.7232  0.8939
   9523SM  C18S12848   1.771  -0.337   4.669 -0.2965  0.1696 -0.1839
   9523SM  H18S12849   1.749  -0.434   4.619  0.0444  2.0120 -4.3300
   9523SM  H18T12850   1.765  -0.338   4.780 -2.3112  1.2764 -0.2297
   9523SM  H18U12851   1.873  -0.320   4.630 -0.2395 -1.4549 -0.8291
   9523SM   C1F12852   1.699   0.614   2.927 -0.7246 -0.6451 -0.9694
   9523SM    OF12853   1.719   0.723   2.871 -0.5816  0.6337 -0.5400
   9523SM   C2F12854   1.782   0.497   2.891 -0.2392 -0.0851 -0.1095
   9523SM   H2F12855   1.870   0.526   2.829 -1.3512 -1.2411 -2.3778
   9523SM   H2G12856   1.725   0.421   2.833  0.4271 -1.0765  0.5022
   9523SM   C3F12857   1.845   0.426   3.012  0.5538  0.1887 -0.1663
   9523SM   H3F12858   1.918   0.356   2.965  0.7901  0.4881 -0.2479
   9523SM   H3G12859   1.773   0.370   3.075  1.7333 -1.6510 -0.3651
   9523SM   C4F12860   1.942   0.512   3.103  0.5314  0.7836  0.6860
   9523SM   H4F12861   1.986   0.446   3.180  0.1953  0.0864  0.2883
   9523SM   H4G12862   1.891   0.593   3.160 -0.0741  0.3296  0.7960
   9523SM   C5F12863   2.048   0.577   3.021  0.2032 -0.1543  0.2445
   9523SM   H5F12864   2.006   0.636   2.937 -1.8751 -3.0063 -0.8952
   9523SM   H5G12865   2.090   0.488   2.968 -3.6679 -2.8432  1.2567
   9523SM   C6F12866   2.148   0.646   3.111  0.3180  0.3037  0.0759
   9523SM   H6F12867   2.145   0.604   3.214  0.4194  0.4630  0.1454
   9523SM   H6G12868   2.111   0.750   3.115 -0.6076  0.0937 -1.9270
   9523SM   C7F12869   2.290   0.625   3.057  0.2693  0.2004  0.3709
   9523SM   H7F12870   2.290   0.665   2.953  2.4569 -0.2223  0.1623
   9523SM   H7G12871   2.315   0.517   3.065  1.3959  0.5855  3.8374
   9523SM   C8F12872   2.384   0.700   3.153 -0.4101 -0.0618 -0.5286
   9523SM   H8F12873   2.333   0.792   3.189  0.7513  0.5387 -0.3742
   9523SM   H8G12874   2.480   0.730   3.106 -1.1331  3.6227 -0.0086
   9523SM   C9F12875   2.415   0.621   3.287  0.2874 -0.3587  0.0129
   9523SM   H9F12876   2.479   0.531   3.269  1.2270  0.5849 -1.6660
   9523SM   H9G12877   2.323   0.584   3.337 -0.0348  0.7184  0.2319
   9523SM  C10F12878   2.490   0.722   3.388  0.2134  0.6647 -0.5111
   9523SM  H10F12879   2.420   0.808   3.392 -2.2930 -1.3117  0.5398
   9523SM  H10G12880   2.584   0.756   3.340  0.9707  0.5246  0.8270
   9523SM  C11F12881   2.509   0.656   3.527  0.1843 -0.2504 -0.1925
   9523SM  H11F12882   2.581   0.572   3.522 -0.8688 -1.2827  1.0877
   9523SM  H11G12883   2.410   0.613   3.553  0.1901 -0.1143  0.0584
   9523SM  C12F12884   2.534   0.756   3.644 -0.7001 -0.3735  0.1298
   9523SM  H12F12885   2.546   0.700   3.739  0.3272  0.0230  0.2483
   9523SM  H12G12886   2.445   0.822   3.650 -1.1514 -0.8814 -0.7488
   9523SM  C13F12887   2.667   0.842   3.623  0.4543  0.6070 -0.3622
   9523SM  H13F12888   2.657   0.887   3.522 -1.4688  1.4595  0.1678
   9523SM  H13G12889   2.758   0.779   3.612 -0.4241 -0.7578 -0.0162
   9523SM  C14F12890   2.693   0.954   3.730  0.6383  0.6745 -0.1667
   9523SM  H14F12891   2.608   1.025   3.729 -0.8393 -0.7398  3.7078
   9523SM  H14G12892   2.786   0.995   3.685  0.5163 -0.2217 -1.2780
   9523SM  C15F12893   2.728   0.902   3.872  0.2474  0.1475  0.2074
   9523SM  H15F12894   2.825   0.849   3.871 -0.9114 -2.2735 -3.0532
   9523SM  H15G12895   2.641   0.834   3.887  0.9513 -1.3727 -2.0835
   9523SM  C16F12896   2.719   1.019   3.971 -0.1106 -0.7111 -0.3956
   9523SM  H16F12897   2.628   1.083   3.960  1.3619  1.4972 -0.5328
   9523SM  H16G12898   2.800   1.095   3.962  1.6601 -2.4977 -0.1933
   9523SM  C17F12899   2.737   0.969   4.120 -0.5775 -0.2020  0.3250
   9523SM  H17F12900   2.839   0.927   4.135 -0.1276  1.5821  2.9411
   9523SM  H17G12901   2.655   0.895   4.128  0.8300 -1.9074 -0.6500
   9523SM  C18F12902   2.721   1.071   4.229  0.0521  0.0828 -0.3333
   9523SM  H18F12903   2.677   1.023   4.319 -2.0621  0.9993 -0.8059
   9523SM  H18G12904   2.635   1.125   4.184 -0.7084  0.6914  1.7211
   9523SM  C19F12905   2.843   1.152   4.263 -0.4319  0.2728 -0.5245
   9523SM  H19F12906   2.886   1.192   4.169  0.2540 -1.1651 -0.8515
   9523SM  H19G12907   2.917   1.081   4.307 -0.8150  0.9458  1.2732
   9523SM  C20F12908   2.811   1.260   4.363  0.1267  0.1102  0.0953
   9523SM  H20F12909   2.843   1.229   4.465 -1.0436  0.9003  0.7288
   9523SM  H20G12910   2.700   1.270   4.367  0.2637  2.1015  0.1090
   9523SM  C21F12911   2.872   1.399   4.338  0.0462 -0.1005 -0.0812
   9523SM  H21F12912   2.812   1.461   4.268  0.4220 -0.9918 -1.2328
   9523SM  H21G12913   2.976   1.375   4.307  0.8143  3.1273 -0.2652
   9523SM  C22F12914   2.876   1.490   4.470 -0.0823 -0.0118 -0.3137
   9523SM  H22F12915   2.911   1.588   4.432  0.3310  0.2462  0.7025
   9523SM  H22G12916   2.946   1.448   4.545  1.6408  1.9289 -0.7413
   9523SM  C23F12917   2.749   1.510   4.545 -0.1925  0.4195 -0.0222
   9523SM  H23F12918   2.670   1.539   4.472  1.2164 -0.3374 -1.9365
   9523SM  H23G12919   2.746   1.587   4.624 -2.9922  0.2322  0.1699
   9523SM  H23H12920   2.718   1.411   4.584  3.1569 -0.7020  0.1512
   9623SM     N12921   2.448   7.365   2.317 -0.5468  0.0052 -0.1152
   9623SM   C1512922   2.410   7.216   2.294  0.0762 -0.5035 -0.3239
   9623SM  H15A12923   2.318   7.207   2.349 -1.2210  1.4455 -2.0042
   9623SM  H15B12924   2.478   7.150   2.345  0.8420  0.5321  0.0379
   9623SM  H15C12925   2.392   7.192   2.190 -1.3333 -1.8845  0.2017
   9623SM   C1412926   2.585   7.384   2.254 -0.0592 -0.0048  0.4942
   9623SM  H14A12927   2.585   7.336   2.157 -0.5568 -1.5888  1.2387
   9623SM  H14B12928   2.668   7.334   2.303 -0.2897 -1.7664 -0.7772
   9623SM  H14C12929   2.617   7.487   2.257 -0.5607  0.1490  0.6896
   9623SM   C1312930   2.344   7.459   2.262  0.3466 -0.6228 -0.3570
   9623SM  H13A12931   2.327   7.440   2.157 -1.0423 -1.3340 -0.0326
   9623SM  H13B12932   2.375   7.561   2.279  0.8005 -0.6659 -0.8796
   9623SM  H13C12933   2.255   7.460   2.324  0.2715  2.0922 -0.4038
   9623SM   C1212934   2.460   7.393   2.468 -0.6889 -0.2285  0.1555
   9623SM  H12A12935   2.480   7.498   2.484 -0.7657 -0.0507 -0.8344
   9623SM  H12B12936   2.545   7.338   2.504 -1.4240 -1.2872  0.3329
   9623SM   C1112937   2.334   7.349   2.547  0.1206 -0.0285 -0.0581
   9623SM  H11A12938   2.361   7.350   2.654 -0.4205 -0.5440  0.0866
   9623SM  H11B12939   2.306   7.244   2.528  0.1077 -0.3285  1.5096
   9623SM     P12940   2.223   7.585   2.585  0.1207 -0.0995  0.1294
   9623SM   O1312941   2.320   7.669   2.514  0.0473 -0.5764  0.7189
   9623SM   O1412942   2.088   7.637   2.586 -0.4270  0.3020  0.1808
   9623SM   O1112943   2.279   7.559   2.727 -0.1415 -0.1408  0.1272
   9623SM   O1212944   2.225   7.439   2.520  0.0066  0.0946  0.3768
   9623SM   C1S12945   2.201   7.484   2.830 -0.3196 -0.3843 -0.2032
   9623SM   H1S12946   2.249   7.385   2.849 -0.4152 -0.4882 -0.5051
   9623SM   H1T12947   2.093   7.479   2.804 -0.3873  0.1297 -0.0257
   9623SM    NF12948   2.111   7.472   3.056  0.3077  0.2595 -0.0200
   9623SM   HNF12949   2.045   7.532   3.099  0.9467  1.3186 -0.4798
   9623SM   C2S12950   2.203   7.545   2.977  0.1883  0.4957 -0.5042
   9623SM   H2S12951   2.303   7.526   3.021  0.4339  1.3167 -0.6798
   9623SM   C3S12952   2.175   7.699   2.969 -0.1131 -0.3427  0.0139
   9623SM   H3S12953   2.090   7.723   2.902 -1.2052  0.8352  1.7471
   9623SM    O312954   2.285   7.778   2.926 -0.4548 -0.0762  0.0130
   9623SM   HO312955   2.342   7.719   2.875 -2.0245 -0.6179 -1.2068
   9623SM   C4S12956   2.137   7.754   3.106 -0.2580 -0.1686  0.4167
   9623SM   H4S12957   2.029   7.770   3.114 -0.2090  2.0857 -2.0019
   9623SM   C5S12958   2.214   7.793   3.210  0.6446 -0.2009  0.2728
   9623SM   H5S12959   2.324   7.783   3.211  0.7987  1.2631  1.6428
   9623SM   C6S12960   2.158   7.850   3.338  0.2688  0.2050  0.5568
   9623SM   H6S12961   2.051   7.824   3.354  0.3661  1.1357  3.0217
   9623SM   H6T12962   2.155   7.961   3.334  1.8512  0.3096  1.6328
   9623SM   C7S12963   2.233   7.803   3.457  0.7732  0.0927 -0.3280
   9623SM   H7S12964   2.333   7.849   3.474  0.6344 -0.7164  3.9729
   9623SM   H7T12965   2.253   7.694   3.447  2.4011  0.5159 -2.0263
   9623SM   C8S12966   2.151   7.821   3.593  0.0685 -0.2627 -0.1337
   9623SM   H8S12967   2.055   7.769   3.578  1.0354 -2.5264  0.9732
   9623SM   H8T12968   2.127   7.928   3.613 -3.1869 -0.9227 -0.0754
   9623SM   C9S12969   2.213   7.740   3.714  0.0314  0.6203 -0.2465
   9623SM   H9S12970   2.305   7.795   3.744 -0.6772  1.5640  0.2092
   9623SM   H9T12971   2.237   7.633   3.693  1.7130  0.6150  1.3841
   9623SM  C10S12972   2.111   7.720   3.829 -0.1160  0.3326  0.1885
   9623SM  H10S12973   2.019   7.665   3.799  0.5388 -0.6256 -0.1088
   9623SM  H10T12974   2.077   7.816   3.874 -0.5631  0.5928 -0.6865
   9623SM  C11S12975   2.171   7.638   3.942  0.4164  0.3106 -0.4041
   9623SM  H11S12976   2.269   7.673   3.981  0.6357 -1.6908  1.0294
   9623SM  H11T12977   2.181   7.536   3.898 -0.9014  0.4652 -1.1110
   9623SM  C12S12978   2.086   7.626   4.066 -0.3883 -0.5586 -0.3605
   9623SM  H12S12979   1.983   7.596   4.037 -0.5375  0.4639 -0.9462
   9623SM  H12T12980   2.082   7.730   4.105 -2.1605 -0.5557 -0.4726
   9623SM  C13S12981   2.150   7.536   4.175 -0.0728  0.0921  0.4120
   9623SM  H13S12982   2.248   7.580   4.200 -0.7297  1.8955 -0.0199
   9623SM  H13T12983   2.159   7.442   4.117  0.7037  0.2188  0.3261
   9623SM  C14S12984   2.062   7.505   4.293 -0.2290  0.3644 -0.6124
   9623SM  H14S12985   1.961   7.476   4.258 -0.1616 -0.1470 -0.3811
   9623SM  H14T12986   2.050   7.604   4.343 -0.3408 -0.4171  0.9514
   9623SM  C15S12987   2.124   7.410   4.389  0.1212  0.1879 -0.1857
   9623SM  H15S12988   2.160   7.321   4.332 -0.2149 -1.8049  2.4721
   9623SM  H15T12989   2.044   7.366   4.452  0.8353 -2.0696 -0.7248
   9623SM  C16S12990   2.235   7.467   4.484  0.4953  0.0573  0.3663
   9623SM  H16S12991   2.193   7.544   4.552  1.4381  0.1277  0.8984
   9623SM  H16T12992   2.304   7.524   4.418 -0.1751 -0.6289 -0.9607
   9623SM  C17S12993   2.318   7.356   4.566  0.5358  0.8773  0.9975
   9623SM  H17S12994   2.391   7.402   4.635 -0.3350 -0.2099  2.7289
   9623SM  H17T12995   2.373   7.310   4.481  0.6585  1.5450  0.7144
   9623SM  C18S12996   2.221   7.263   4.630  0.9492  0.5382 -0.9199
   9623SM  H18S12997   2.170   7.206   4.549  0.7059 -0.5532 -0.0335
   9623SM  H18T12998   2.148   7.320   4.692  2.3271 -2.0652  3.5137
   9623SM  H18U12999   2.267   7.196   4.706  0.6540  0.5554 -0.7244
   9623SM   C1F13000   2.127   7.345   3.096  0.1890  0.3782  0.1950
   9623SM    OF13001   2.230   7.284   3.060  0.1547 -0.4476  0.5429
   9623SM   C2F13002   2.037   7.292   3.203  0.2018 -0.2734  0.1507
   9623SM   H2F13003   1.931   7.278   3.174  0.0504 -1.4932  1.2232
   9623SM   H2G13004   2.028   7.357   3.293  0.0816  0.5524 -0.4384
   9623SM   C3F13005   2.084   7.149   3.249 -0.6633 -0.1896  0.1946
   9623SM   H3F13006   2.178   7.162   3.307 -1.8442  2.6389  1.6777
   9623SM   H3G13007   2.096   7.086   3.158  1.7051  0.0806  0.2794
   9623SM   C4F13008   1.979   7.080   3.336  0.0583  0.6946 -0.2285
   9623SM   H4F13009   1.892   7.068   3.267  0.4542 -0.3403 -0.5716
   9623SM   H4G13010   1.935   7.146   3.414 -0.9624 -1.6868  1.3239
   9623SM   C5F13011   2.026   6.948   3.403 -0.7645 -0.7190 -0.0305
   9623SM   H5F13012   2.077   6.881   3.331  1.0100  0.1684  0.3386
   9623SM   H5G13013   1.939   6.897   3.448 -1.5115  1.0951  0.6978
   9623SM   C6F13014   2.123   6.982   3.521  0.3587 -0.6220 -0.4681
   9623SM   H6F13015   2.091   7.064   3.588  0.0251 -1.8839  0.9748
   9623SM   H6G13016   2.221   7.012   3.479  0.4087 -1.7860 -1.2544
   9623SM   C7F13017   2.137   6.857   3.615 -0.1250 -0.0009  0.1225
   9623SM   H7F13018   2.184   6.781   3.548 -3.6753 -0.8847 -1.6561
   9623SM   H7G13019   2.039   6.817   3.647  0.8217 -1.4975  1.2886
   9623SM   C8F13020   2.212   6.888   3.748  0.3561  0.5404 -0.3733
   9623SM   H8F13021   2.201   6.992   3.785 -0.2779  1.1007 -2.0549
   9623SM   H8G13022   2.318   6.866   3.722  0.1812 -1.7674  0.6262
   9623SM   C9F13023   2.171   6.783   3.861 -0.2319 -0.2846  0.3081
   9623SM   H9F13024   2.141   6.693   3.803 -1.7770  2.2347 -3.1335
   9623SM   H9G13025   2.078   6.829   3.900 -1.2430 -2.3254  0.4656
   9623SM  C10F13026   2.270   6.760   3.965 -0.4058 -0.4937  0.3117
   9623SM  H10F13027   2.271   6.854   4.024  3.1474 -0.1866  0.0015
   9623SM  H10G13028   2.366   6.731   3.916 -0.6598  0.0141 -0.5020
   9623SM  C11F13029   2.227   6.644   4.061  0.2205 -0.2345 -0.6148
   9623SM  H11F13030   2.264   6.546   4.024 -0.1463 -1.2036  1.4356
   9623SM  H11G13031   2.117   6.649   4.075 -0.0192 -3.9100 -0.2376
   9623SM  C12F13032   2.296   6.671   4.198 -0.1106  0.0960  0.3740
   9623SM  H12F13033   2.288   6.777   4.231  0.2765  0.9056 -1.9445
   9623SM  H12G13034   2.407   6.667   4.192  0.0518  0.7119  2.1831
   9623SM  C13F13035   2.267   6.576   4.316  0.3710 -0.9691 -0.3010
   9623SM  H13F13036   2.303   6.475   4.285 -1.2188 -0.9680 -2.4222
   9623SM  H13G13037   2.159   6.565   4.339  0.7744 -1.4215  1.5373
   9623SM  C14F13038   2.331   6.618   4.453  0.4591  0.2379 -0.0728
   9623SM  H14F13039   2.324   6.726   4.477  0.1076 -0.6527  4.7836
   9623SM  H14G13040   2.440   6.597   4.450  0.7397  1.5854 -0.1998
   9623SM  C15F13041   2.269   6.538   4.581 -0.2553 -0.3592  0.2487
   9623SM  H15F13042   2.278   6.429   4.560 -2.8407 -0.3686 -1.1388
   9623SM  H15G13043   2.160   6.554   4.586 -0.6910 -2.3159 -1.5696
   9623SM  C16F13044   2.334   6.582   4.712  0.3630  0.0885 -0.3201
   9623SM  H16F13045   2.300   6.687   4.729 -2.6807 -0.7640 -0.4567
   9623SM  H16G13046   2.445   6.587   4.707  0.3512  0.0404 -0.6558
   9623SM  C17F13047   2.278   6.505   4.839  0.2793 -0.0039  0.1060
   9623SM  H17F13048   2.276   6.395   4.825 -2.6251 -0.0118  0.1074
   9623SM  H17G13049   2.171   6.533   4.842  0.8243  2.3276 -0.1005
   9623SM  C18F13050   2.342   6.549   4.973  1.6376  0.4234 -0.4390
   9623SM  H18F13051   2.272   6.522   5.055 -0.6849  2.1432 -1.7258
   9623SM  H18G13052   2.351   6.660   4.976  1.0091  0.4720 -0.1402
   9623SM  C19F13053   2.484   6.491   5.000  0.6979 -0.5709  0.5837
   9623SM  H19F13054   2.559   6.504   4.920  0.6398 -3.4989 -0.0713
   9623SM  H19G13055   2.459   6.383   5.011  0.7006 -0.7273 -0.7351
   9623SM  C20F13056   2.551   6.536   5.132 -0.3873 -0.1794  0.0219
   9623SM  H20F13057   2.498   6.478   5.211 -1.4922 -0.1828 -0.6900
   9623SM  H20G13058   2.531   6.642   5.161 -2.2424 -0.0182 -1.6062
   9623SM  C21F13059   2.702   6.517   5.120 -0.5578 -0.2500 -0.0051
   9623SM  H21F13060   2.721   6.441   5.041  1.6380 -1.5519  1.6193
   9623SM  H21G13061   2.730   6.468   5.216 -0.9045  2.4423  1.5545
   9623SM  C22F13062   2.792   6.640   5.091 -0.0336 -0.3118  0.3290
   9623SM  H22F13063   2.900   6.615   5.078 -0.4526 -1.5370 -1.0941
   9623SM  H22G13064   2.787   6.698   5.186  0.7723  0.7605 -0.2626
   9623SM  C23F13065   2.735   6.733   4.984  0.3206 -0.1132 -0.3394
   9623SM  H23F13066   2.797   6.825   4.975 -1.7543  1.3033 -0.8769
   9623SM  H23G13067   2.644   6.783   5.024  1.4536 -0.7645  3.4060
   9623SM  H23H13068   2.716   6.682   4.887 -0.4085  0.1245 -0.3296
   9723SM     N13069   3.389   1.809   2.412  0.1122 -0.4164  0.4378
   9723SM   C1513070   3.383   1.895   2.284 -0.4743  0.0366 -0.0002
   9723SM  H15A13071   3.330   1.848   2.203  1.2590 -0.2828 -0.9934
   9723SM  H15B13072   3.482   1.924   2.252  0.8590 -2.2627  1.6958
   9723SM  H15C13073   3.325   1.986   2.298  0.1544  0.6057 -1.0266
   9723SM   C1413074   3.253   1.774   2.458 -0.7037  0.7554 -0.4730
   9723SM  H14A13075   3.189   1.740   2.378 -0.7616 -1.6047  0.4936
   9723SM  H14B13076   3.205   1.860   2.501 -1.7385  1.9815 -3.7524
   9723SM  H14C13077   3.251   1.698   2.535 -3.4076  0.5899 -0.5936
   9723SM   C1313078   3.455   1.684   2.376  0.3403  0.1169  0.0921
   9723SM  H13A13079   3.457   1.615   2.459  4.4882 -1.0309 -0.7208
   9723SM  H13B13080   3.560   1.699   2.357  0.6673 -0.1203  1.6101
   9723SM  H13C13081   3.395   1.642   2.296 -0.4258  0.2984  0.5640
   9723SM   C1213082   3.470   1.891   2.518  0.4034 -0.0338  0.3180
   9723SM  H12A13083   3.424   1.988   2.531  0.2639 -0.0761  0.1490
   9723SM  H12B13084   3.563   1.923   2.474 -0.0365  2.4646  1.0406
   9723SM   C1113085   3.484   1.824   2.650  0.3009 -0.0775  0.4363
   9723SM  H11A13086   3.385   1.794   2.691 -0.1984  0.3041 -0.4648
   9723SM  H11B13087   3.530   1.907   2.708  0.5216 -0.2872  0.5677
   9723SM     P13088   3.721   1.731   2.650  0.1127  0.4259  0.2210
   9723SM   O1313089   3.785   1.623   2.571  0.0449  0.5091  0.1360
   9723SM   O1413090   3.752   1.864   2.597 -0.2816 -0.3507  0.2930
   9723SM   O1113091   3.768   1.722   2.798 -0.2028  0.1563 -0.1859
   9723SM   O1213092   3.562   1.709   2.662  0.7619  0.2037  0.0361
   9723SM   C1S13093   3.679   1.739   2.905 -0.9282 -0.1659 -1.0934
   9723SM   H1S13094   3.594   1.668   2.902 -1.7126  0.7486 -0.9136
   9723SM   H1T13095   3.642   1.844   2.907  4.3679  2.0324 -0.2409
   9723SM    NF13096   3.660   1.733   3.156 -0.1169  0.1031 -0.4490
   9723SM   HNF13097   3.680   1.807   3.221 -1.0230 -0.9899  1.1578
   9723SM   C2S13098   3.750   1.713   3.038 -0.1945 -0.1453 -0.2572
   9723SM   H2S13099   3.782   1.606   3.034  0.6336  0.1280 -1.5411
   9723SM   C3S13100   3.881   1.798   3.040  0.2024 -0.4298  0.1741
   9723SM   H3S13101   3.851   1.904   3.020 -0.5594 -0.3412  1.6305
   9723SM    O313102   3.971   1.764   2.937  0.0369 -0.0110 -0.1458
   9723SM   HO313103   3.907   1.741   2.869  0.9656  1.0307 -1.4149
   9723SM   C4S13104   3.953   1.779   3.168 -0.4288 -0.3344  0.4661
   9723SM   H4S13105   3.950   1.672   3.193 -2.6000 -0.7711 -1.3572
   9723SM   C5S13106   4.024   1.873   3.224  0.1296 -1.0267  0.2254
   9723SM   H5S13107   4.011   1.974   3.184 -0.6350 -1.8099 -1.5951
   9723SM   C6S13108   4.103   1.866   3.351 -0.6973 -0.1452  0.1320
   9723SM   H6S13109   4.083   1.962   3.403 -1.2636  0.6036 -1.4243
   9723SM   H6T13110   4.214   1.871   3.339 -0.5022 -1.1415  1.2955
   9723SM   C7S13111   4.078   1.747   3.441 -0.7030 -0.1818  0.3086
   9723SM   H7S13112   4.155   1.740   3.520  1.4666  0.6903 -1.6189
   9723SM   H7T13113   4.096   1.654   3.383  3.0055 -0.2888  1.3963
   9723SM   C8S13114   3.945   1.740   3.518  0.2909 -0.1910  0.1285
   9723SM   H8S13115   3.871   1.733   3.436  2.1167 -0.0318 -1.5997
   9723SM   H8T13116   3.922   1.833   3.575  0.9540  0.2009 -0.2223
   9723SM   C9S13117   3.935   1.617   3.604 -0.8300  0.8468 -0.5346
   9723SM   H9S13118   3.998   1.616   3.695 -1.9480 -4.4323  0.5447
   9723SM   H9T13119   3.968   1.532   3.541 -0.5154  0.6944 -0.1652
   9723SM  C10S13120   3.784   1.592   3.652 -1.1090  0.5065 -0.2175
   9723SM  H10S13121   3.717   1.615   3.566 -0.8286 -1.4246 -1.0217
   9723SM  H10T13122   3.767   1.667   3.732  0.0491  1.1169 -0.5272
   9723SM  C11S13123   3.755   1.452   3.715 -0.6146 -0.5648 -0.4132
   9723SM  H11S13124   3.788   1.376   3.641  2.4581  2.0937 -2.0608
   9723SM  H11T13125   3.649   1.445   3.747 -0.5919  1.9664  0.4516
   9723SM  C12S13126   3.841   1.411   3.838  0.0824 -0.3613 -0.1959
   9723SM  H12S13127   3.815   1.497   3.904  1.3416 -0.0413 -0.0967
   9723SM  H12T13128   3.945   1.412   3.800 -0.2122  0.2536 -1.0150
   9723SM  C13S13129   3.798   1.278   3.899  0.1089 -0.3360 -0.4341
   9723SM  H13S13130   3.814   1.204   3.818  1.6763 -0.0624 -0.4160
   9723SM  H13T13131   3.691   1.279   3.929 -0.4618  2.2518 -2.2087
   9723SM  C14S13132   3.897   1.243   4.017 -0.2400  1.3636 -0.0826
   9723SM  H14S13133   3.902   1.323   4.094 -0.9633 -1.5873  3.2804
   9723SM  H14T13134   3.999   1.229   3.974 -0.5343 -1.8237 -0.0313
   9723SM  C15S13135   3.870   1.107   4.092 -0.1794  0.2994 -0.3329
   9723SM  H15S13136   3.879   1.026   4.017  0.9093  3.3188 -3.8032
   9723SM  H15T13137   3.781   1.098   4.157  1.6625 -3.4785  1.9900
   9723SM  C16S13138   3.987   1.076   4.184  0.6418  0.1844  0.0211
   9723SM  H16S13139   3.990   1.163   4.254  0.8148  0.8016 -0.7343
   9723SM  H16T13140   4.082   1.081   4.127  0.3541  0.9682 -0.4041
   9723SM  C17S13141   3.979   0.942   4.256  0.4690 -0.5486  0.7717
   9723SM  H17S13142   3.935   0.872   4.182  2.5198 -1.5171  0.3969
   9723SM  H17T13143   3.902   0.941   4.336  0.2465  0.6830  0.5868
   9723SM  C18S13144   4.116   0.890   4.307  0.8494 -0.5342 -0.8316
   9723SM  H18S13145   4.170   0.831   4.229 -0.1626 -1.0295 -1.1669
   9723SM  H18T13146   4.114   0.844   4.408  0.1420  0.8856 -0.1727
   9723SM  H18U13147   4.179   0.979   4.327 -1.8168  0.9389  1.7056
   9723SM   C1F13148   3.554   1.657   3.186 -0.4063  0.0971 -0.4753
   9723SM    OF13149   3.517   1.561   3.117  0.5262 -0.4724 -0.1744
   9723SM   C2F13150   3.488   1.688   3.318 -1.3186 -0.0083  0.0881
   9723SM   H2F13151   3.396   1.746   3.292  0.9222  3.0788 -1.6220
   9723SM   H2G13152   3.562   1.747   3.376  0.4690 -3.0459  1.1220
   9723SM   C3F13153   3.458   1.570   3.406 -0.5639  0.0383  0.4653
   9723SM   H3F13154   3.445   1.590   3.514  0.7825 -0.1210  0.6682
   9723SM   H3G13155   3.552   1.511   3.412 -0.5073  0.2354  1.6726
   9723SM   C4F13156   3.341   1.487   3.355 -0.9462 -0.2537 -0.5847
   9723SM   H4F13157   3.379   1.416   3.278  0.1484 -0.9780  0.5790
   9723SM   H4G13158   3.264   1.563   3.332 -1.8861 -0.3254  2.0804
   9723SM   C5F13159   3.275   1.393   3.458  0.4910 -0.2599  0.6977
   9723SM   H5F13160   3.177   1.358   3.417 -0.4560  1.8266  1.0820
   9723SM   H5G13161   3.251   1.454   3.547  1.3677  0.7382  0.2642
   9723SM   C6F13162   3.366   1.275   3.496  0.2479 -0.3879 -0.5025
   9723SM   H6F13163   3.467   1.308   3.528  0.0680 -0.8083  0.5323
   9723SM   H6G13164   3.379   1.207   3.409 -1.3265  0.6730 -1.6104
   9723SM   C7F13165   3.313   1.194   3.620 -0.1972 -0.6018  0.1873
   9723SM   H7F13166   3.383   1.111   3.642  0.2705 -0.2955 -0.1335
   9723SM   H7G13167   3.208   1.161   3.602 -1.0936  0.7214  2.5501
   9723SM   C8F13168   3.308   1.267   3.762  0.0677 -0.1214  0.6643
   9723SM   H8F13169   3.241   1.355   3.746  1.8723  0.8910 -2.2323
   9723SM   H8G13170   3.412   1.296   3.788  0.1058 -1.9238  2.7375
   9723SM   C9F13171   3.254   1.180   3.875 -0.4672 -0.2553  0.0499
   9723SM   H9F13172   3.310   1.088   3.901 -0.0344  0.7621  3.0846
   9723SM   H9G13173   3.153   1.138   3.856 -1.3872  1.0161  1.8518
   9723SM  C10F13174   3.240   1.257   4.003 -0.1783 -0.6055 -0.0771
   9723SM  H10F13175   3.165   1.338   3.992  1.1856  0.6800 -0.1600
   9723SM  H10G13176   3.335   1.311   4.022 -1.1642  0.6487  1.6517
   9723SM  C11F13177   3.185   1.169   4.122 -0.6191  0.0303  0.7187
   9723SM  H11F13178   3.126   1.091   4.069  0.8066  0.0407 -0.9932
   9723SM  H11G13179   3.116   1.237   4.177 -0.2861  1.2403 -0.2992
   9723SM  C12F13180   3.309   1.118   4.202 -0.2293  0.1117 -0.3962
   9723SM  H12F13181   3.359   1.210   4.239 -1.2564  0.3423  0.4643
   9723SM  H12G13182   3.379   1.076   4.127 -0.6017  2.3977 -2.1548
   9723SM  C13F13183   3.286   1.030   4.329  0.0945 -0.1675  0.0986
   9723SM  H13F13184   3.244   0.932   4.298 -0.1072 -0.0949  0.1365
   9723SM  H13G13185   3.212   1.076   4.398  2.2412  0.0034  2.4433
   9723SM  C14F13186   3.421   1.016   4.405 -0.5855 -0.8212  0.6337
   9723SM  H14F13187   3.397   0.953   4.493 -1.7517 -0.5624  0.5144
   9723SM  H14G13188   3.440   1.116   4.450  1.1437 -1.2371  0.8911
   9723SM  C15F13189   3.534   0.962   4.320 -0.0658  0.2771 -0.0390
   9723SM  H15F13190   3.575   1.043   4.257  1.1961 -0.6991 -0.5180
   9723SM  H15G13191   3.493   0.882   4.255  2.6238  1.5183 -3.5993
   9723SM  C16F13192   3.651   0.913   4.404  0.0032  0.2184 -0.1029
   9723SM  H16F13193   3.694   1.002   4.455 -1.5316  0.6410  0.5018
   9723SM  H16G13194   3.722   0.863   4.334 -0.0521  1.6006 -1.1872
   9723SM  C17F13195   3.619   0.805   4.510  0.6666 -0.2431 -1.1092
   9723SM  H17F13196   3.548   0.844   4.586  1.6401  3.3808 -1.8718
   9723SM  H17G13197   3.715   0.783   4.560 -0.4222 -0.7156  0.8991
   9723SM  C18F13198   3.567   0.670   4.465 -0.6726  0.3186  0.0772
   9723SM  H18F13199   3.632   0.637   4.382  2.6068 -0.3571  2.7036
   9723SM  H18G13200   3.463   0.676   4.427 -0.7590 -1.2660  0.0043
   9723SM  C19F13201   3.569   0.561   4.577 -0.2670  0.4588 -0.1518
   9723SM  H19F13202   3.529   0.614   4.667 -0.8221  1.8307 -1.1580
   9723SM  H19G13203   3.678   0.542   4.587  0.7810  1.4909 -5.8624
   9723SM  C20F13204   3.487   0.437   4.547  0.0656 -0.4100  0.0844
   9723SM  H20F13205   3.522   0.404   4.447 -0.5800  1.3377 -0.7704
   9723SM  H20G13206   3.380   0.467   4.538 -0.4112 -1.5828  1.5177
   9723SM  C21F13207   3.500   0.325   4.649 -0.0584 -0.3118 -0.3006
   9723SM  H21F13208   3.464   0.353   4.751  1.1837  0.4680 -0.0530
   9723SM  H21G13209   3.610   0.312   4.660  0.1384  0.9419 -0.6804
   9723SM  C22F13210   3.442   0.189   4.608  0.3288  0.0720  0.2204
   9723SM  H22F13211   3.429   0.125   4.698  0.9192 -0.5226 -0.1149
   9723SM  H22G13212   3.511   0.130   4.545 -0.9987  0.3388 -1.5409
   9723SM  C23F13213   3.309   0.196   4.534  0.0748  0.0458  0.0287
   9723SM  H23F13214   3.268   0.093   4.524  0.8778 -0.1755 -1.3741
   9723SM  H23G13215   3.325   0.241   4.433  2.2748  1.0328  0.7578
   9723SM  H23H13216   3.235   0.265   4.578  0.3409  1.9643 -2.3243
   9823SM     N13217   0.381   0.190   2.539 -0.1140  0.3903  0.0017
   9823SM   C1513218   0.386   0.071   2.455 -0.2639 -0.0072  0.2958
   9823SM  H15A13219   0.484   0.028   2.468  0.2078  0.9781  0.0993
   9823SM  H15B13220   0.361   0.088   2.351 -0.2401  0.1824  0.3210
   9823SM  H15C13221   0.320  -0.006   2.491 -1.1151  0.0681 -1.0155
   9823SM   C1413222   0.480   0.287   2.473  0.0761  0.2001  0.4346
   9823SM  H14A13223   0.503   0.368   2.541 -2.5919  1.1182  0.3577
   9823SM  H14B13224   0.441   0.315   2.377 -3.2623 -0.3263  1.4897
   9823SM  H14C13225   0.572   0.236   2.447 -0.0357 -0.4486  1.2791
   9823SM   C1313226   0.245   0.249   2.522 -0.1766  0.1793  0.0453
   9823SM  H13A13227   0.234   0.342   2.574 -0.5011 -0.1788  0.6312
   9823SM  H13B13228   0.167   0.185   2.562 -1.1497  0.8984 -0.6474
   9823SM  H13C13229   0.215   0.266   2.419  1.3880  3.3079  0.0063
   9823SM   C1213230   0.414   0.168   2.680 -0.5477  0.6335  0.3579
   9823SM  H12A13231   0.518   0.137   2.681 -0.4915  0.6643 -1.1938
   9823SM  H12B13232   0.360   0.080   2.712 -0.1023  0.3310  0.2894
   9823SM   C1113233   0.414   0.279   2.787 -0.1911 -0.1345  0.2031
   9823SM  H11A13234   0.509   0.335   2.785 -0.0077 -0.4631 -0.5938
   9823SM  H11B13235   0.420   0.239   2.891 -0.3579 -0.1819  0.1953
   9823SM     P13236   0.311   0.509   2.820 -0.0145  0.0417 -0.0528
   9823SM   O1313237   0.387   0.600   2.730  0.0184  0.1936  0.4578
   9823SM   O1413238   0.167   0.545   2.838  0.1279 -0.6490 -0.3720
   9823SM   O1113239   0.375   0.498   2.965 -0.2269 -0.1164 -0.3260
   9823SM   O1213240   0.305   0.360   2.768 -0.0854  0.0080  0.3060
   9823SM   C1S13241   0.304   0.579   3.061  0.5963 -0.1683  0.0233
   9823SM   H1S13242   0.197   0.551   3.070  1.4141 -3.7634 -0.1597
   9823SM   H1T13243   0.323   0.685   3.031 -1.4107  0.3512  0.4714
   9823SM    NF13244   0.286   0.656   3.289  0.7521 -0.4466  1.0665
   9823SM   HNF13245   0.317   0.749   3.301  0.2789  0.1474 -1.6682
   9823SM   C2S13246   0.366   0.581   3.197 -0.7314  0.3732  0.0777
   9823SM   H2S13247   0.368   0.477   3.238  0.1339  0.7059  0.9244
   9823SM   C3S13248   0.509   0.647   3.191  0.3882  0.3895  0.3651
   9823SM   H3S13249   0.502   0.747   3.143 -0.5975 -0.2927 -0.9757
   9823SM    O313250   0.604   0.571   3.115 -0.3460 -0.4156  0.0381
   9823SM   HO313251   0.551   0.505   3.069  0.2027  0.1446 -1.4569
   9823SM   C4S13252   0.572   0.673   3.328  0.2037 -1.3469  0.4960
   9823SM   H4S13253   0.559   0.775   3.365 -0.3508 -1.7885  1.5451
   9823SM   C5S13254   0.620   0.576   3.409 -0.1595 -0.5301  0.4541
   9823SM   H5S13255   0.601   0.473   3.376 -1.0198  0.2175 -1.4691
   9823SM   C6S13256   0.683   0.598   3.540  0.3318 -0.4346 -0.9060
   9823SM   H6S13257   0.675   0.702   3.579 -0.8329 -2.0358  3.6228
   9823SM   H6T13258   0.793   0.583   3.533  0.3732  0.0499 -1.4371
   9823SM   C7S13259   0.621   0.500   3.644 -0.0640 -0.3879  0.2878
   9823SM   H7S13260   0.653   0.397   3.617  1.6148  0.4525 -1.1860
   9823SM   H7T13261   0.510   0.498   3.650 -0.0607 -1.5020  0.1996
   9823SM   C8S13262   0.671   0.520   3.787  0.5627 -0.1156  0.0770
   9823SM   H8S13263   0.641   0.622   3.822 -2.4084 -0.2290 -1.7467
   9823SM   H8T13264   0.780   0.502   3.785  0.8638  1.4915  0.0969
   9823SM   C9S13265   0.603   0.424   3.883  0.2528  0.1873  0.1706
   9823SM   H9S13266   0.617   0.320   3.847 -0.8422  0.5200 -1.2899
   9823SM   H9T13267   0.495   0.446   3.898 -0.3074 -1.7495 -0.7418
   9823SM  C10S13268   0.679   0.425   4.018  0.0577  0.5802 -0.1188
   9823SM  H10S13269   0.646   0.515   4.074  1.2082  1.5271 -0.9176
   9823SM  H10T13270   0.789   0.437   4.012 -0.1354  3.5114  0.6310
   9823SM  C11S13271   0.651   0.296   4.093  0.4355 -0.2894 -0.9498
   9823SM  H11S13272   0.693   0.209   4.037 -2.4337 -1.2675 -1.7761
   9823SM  H11T13273   0.544   0.266   4.103  1.0212 -2.3885 -0.3894
   9823SM  C12S13274   0.729   0.293   4.228  0.1648 -0.4845  0.4442
   9823SM  H12S13275   0.709   0.387   4.284 -0.7688  0.9858 -2.1757
   9823SM  H12T13276   0.837   0.280   4.207 -0.2670 -2.6721 -0.6540
   9823SM  C13S13277   0.684   0.184   4.319 -0.4665  0.6696 -0.5722
   9823SM  H13S13278   0.724   0.086   4.283  0.9207 -0.0821  2.6483
   9823SM  H13T13279   0.575   0.174   4.334 -0.5259  2.2562  0.1966
   9823SM  C14S13280   0.752   0.200   4.458 -0.0900  0.3285  0.5285
   9823SM  H14S13281   0.717   0.294   4.505 -3.0413 -0.5459  0.2835
   9823SM  H14T13282   0.860   0.211   4.432 -0.5736  1.4986 -1.1126
   9823SM  C15S13283   0.737   0.072   4.538  0.0294 -0.0584 -0.6724
   9823SM  H15S13284   0.803   0.077   4.627 -3.3052 -1.9507  2.1705
   9823SM  H15T13285   0.772  -0.021   4.489 -0.2514 -0.9903  0.8223
   9823SM  C16S13286   0.597   0.052   4.605 -0.1847 -0.5575 -0.0072
   9823SM  H16S13287   0.524   0.045   4.522 -0.9727  2.3316  0.3208
   9823SM  H16T13288   0.575   0.142   4.668 -0.6021  0.1121 -1.0817
   9823SM  C17S13289   0.581  -0.063   4.698  0.3907  0.3480  0.6787
   9823SM  H17S13290   0.475  -0.060   4.732 -0.4090  1.3800 -1.7209
   9823SM  H17T13291   0.649  -0.044   4.784 -2.3029  0.8148  2.8453
   9823SM  C18S13292   0.627  -0.194   4.632 -0.0448  0.0965 -0.1191
   9823SM  H18S13293   0.613  -0.279   4.702  0.3630  0.4483  0.3927
   9823SM  H18T13294   0.738  -0.200   4.622  0.0410 -0.7324  1.1218
   9823SM  H18U13295   0.572  -0.212   4.537  0.4032 -0.7435 -0.2324
   9823SM   C1F13296   0.160   0.628   3.332  0.0395  0.2864  1.0566
   9823SM    OF13297   0.109   0.519   3.302 -0.5538 -0.3805  0.1378
   9823SM   C2F13298   0.085   0.740   3.399  0.1226  0.2065  0.1482
   9823SM   H2F13299   0.002   0.774   3.334  0.6201 -0.6745 -0.9978
   9823SM   H2G13300   0.157   0.824   3.387 -2.2497  2.4763  1.0280
   9823SM   C3F13301   0.049   0.704   3.548  0.3060  0.5226  0.5472
   9823SM   H3F13302  -0.023   0.622   3.565  0.2975  0.5237  0.5153
   9823SM   H3G13303  -0.001   0.797   3.585  0.8434  1.0948 -0.1341
   9823SM   C4F13304   0.167   0.649   3.628  0.0346 -0.0679  0.1553
   9823SM   H4F13305   0.245   0.728   3.628 -0.0997  0.0656  0.5764
   9823SM   H4G13306   0.213   0.560   3.578 -0.0666  0.4819 -0.9452
   9823SM   C5F13307   0.130   0.621   3.772 -0.2395  0.2754  0.2937
   9823SM   H5F13308   0.085   0.519   3.774 -0.9943  0.5919 -0.0587
   9823SM   H5G13309   0.064   0.696   3.822 -2.0348 -0.6872 -0.5119
   9823SM   C6F13310   0.251   0.596   3.863  0.2212 -0.3294  0.5895
   9823SM   H6F13311   0.339   0.659   3.840  1.1553 -1.2297  1.5643
   9823SM   H6G13312   0.287   0.497   3.828  0.7514 -0.1023  0.4750
   9823SM   C7F13313   0.226   0.605   4.017 -0.0033  0.6837 -1.0160
   9823SM   H7F13314   0.142   0.535   4.038 -0.6740  0.8092 -3.0170
   9823SM   H7G13315   0.181   0.702   4.048  0.9263  0.4468  1.2328
   9823SM   C8F13316   0.339   0.562   4.112  0.4448  0.2373 -0.1724
   9823SM   H8F13317   0.426   0.621   4.074 -0.6833  2.9061  1.0939
   9823SM   H8G13318   0.353   0.453   4.102 -3.8564 -0.5016  0.0416
   9823SM   C9F13319   0.328   0.596   4.258  0.4680 -0.5417  0.0476
   9823SM   H9F13320   0.245   0.535   4.300  0.3311  1.2685  2.6643
   9823SM   H9G13321   0.305   0.705   4.262  0.7908 -0.3374 -2.2280
   9823SM  C10F13322   0.462   0.569   4.328  0.1833 -0.3936  0.5985
   9823SM  H10F13323   0.543   0.622   4.273  1.1133  1.4863  3.5156
   9823SM  H10G13324   0.478   0.459   4.320 -0.3969 -0.4370 -0.0254
   9823SM  C11F13325   0.467   0.619   4.472 -0.0902  0.2656  0.2370
   9823SM  H11F13326   0.450   0.728   4.471 -1.7176  0.0342 -0.0724
   9823SM  H11G13327   0.576   0.610   4.495  0.1436 -1.2216 -1.2209
   9823SM  C12F13328   0.388   0.543   4.582 -0.4929 -0.3447 -0.5315
   9823SM  H12F13329   0.425   0.438   4.580  1.2410  0.2403 -2.0588
   9823SM  H12G13330   0.283   0.560   4.549 -0.9194  2.4309  1.9050
   9823SM  C13F13331   0.410   0.602   4.716 -0.1342  0.1468  0.1497
   9823SM  H13F13332   0.409   0.712   4.725  1.8052  0.2843 -0.7986
   9823SM  H13G13333   0.507   0.565   4.756 -0.4438 -0.1886  0.6112
   9823SM  C14F13334   0.306   0.548   4.822 -0.1364 -0.0963  0.3419
   9823SM  H14F13335   0.209   0.595   4.792 -0.9507 -0.6868  1.9241
   9823SM  H14G13336   0.327   0.577   4.927 -2.5604  0.2853  0.7883
   9823SM  C15F13337   0.284   0.398   4.811 -0.4214  0.7993 -0.3622
   9823SM  H15F13338   0.380   0.343   4.821  0.0370  1.9439  2.5159
   9823SM  H15G13339   0.239   0.376   4.712 -1.0173  1.4777 -0.2458
   9823SM  C16F13340   0.185   0.350   4.921 -0.0009  0.1778 -0.2807
   9823SM  H16F13341   0.086   0.391   4.891 -0.1627  0.0359  0.0543
   9823SM  H16G13342   0.211   0.394   5.020  1.4531  0.8551 -0.9437
   9823SM  C17F13343   0.169   0.196   4.921  0.5736 -0.2820 -0.4152
   9823SM  H17F13344   0.147   0.163   4.817 -2.1706 -2.0083  0.5945
   9823SM  H17G13345   0.087   0.170   4.991 -0.6522  1.0495 -1.3021
   9823SM  C18F13346   0.298   0.126   4.965 -0.1827 -0.0306  0.4965
   9823SM  H18F13347   0.375   0.163   4.893  0.8302 -0.1422  1.4946
   9823SM  H18G13348   0.279   0.018   4.947  4.0142 -0.8203 -0.2680
   9823SM  C19F13349   0.339   0.144   5.110 -0.5287 -0.2655  1.1061
   9823SM  H19F13350   0.245   0.135   5.170 -2.0480 -1.2002 -1.2320
   9823SM  H19G13351   0.371   0.247   5.135 -0.5630 -0.0576  0.3304
   9823SM  C20F13352   0.454   0.039   5.148  0.3049 -0.0391 -0.0479
   9823SM  H20F13353   0.411  -0.061   5.123 -1.1152  0.8214 -1.1800
   9823SM  H20G13354   0.471   0.048   5.257 -0.4536  0.5191  0.0295
   9823SM  C21F13355   0.591   0.064   5.077 -0.3785  0.6886  0.3265
   9823SM  H21F13356   0.633   0.163   5.104  2.1295  0.2341 -1.5143
   9823SM  H21G13357   0.563   0.065   4.970  0.3934  0.0548  0.1088
   9823SM  C22F13358   0.698  -0.042   5.104 -0.4228 -0.9307  0.3362
   9823SM  H22F13359   0.778  -0.026   5.029  0.0940  1.3204  1.2762
   9823SM  H22G13360   0.647  -0.139   5.089 -0.7656 -0.6872 -0.1072
   9823SM  C23F13361   0.762  -0.028   5.242  0.5514  0.7712  0.8696
   9823SM  H23F13362   0.819   0.067   5.255  1.2421  0.3426  0.9695
   9823SM  H23G13363   0.832  -0.112   5.256 -0.5532  0.2106  3.7156
   9823SM  H23H13364   0.685  -0.037   5.322  1.6990  1.8496  2.1375
   9923SM     N13365   7.401   7.122   2.458 -0.2270 -0.5257  0.0716
   9923SM   C1513366   7.365   6.999   2.380  0.5871  0.0804  1.6046
   9923SM  H15A13367   7.264   7.010   2.343  1.1519  0.6381  0.1502
   9923SM  H15B13368   7.365   6.909   2.440 -1.1804 -0.4851  0.8213
   9923SM  H15C13369   7.429   6.981   2.295 -0.8550 -0.0974  0.5224
   9923SM   C1413370   7.425   7.229   2.361 -0.5945 -0.0263 -0.4566
   9923SM  H14A13371   7.340   7.258   2.302  0.4353  0.7930 -1.6031
   9923SM  H14B13372   7.507   7.208   2.294 -0.7818  0.1091 -0.7277
   9923SM  H14C13373   7.461   7.314   2.418  0.2056 -0.1256 -0.8032
   9923SM   C1313374   7.285   7.167   2.544 -0.4772  0.7419 -0.2744
   9923SM  H13A13375   7.323   7.247   2.606 -0.9730  1.4129 -0.8233
   9923SM  H13B13376   7.252   7.086   2.607 -1.5275 -0.7630 -2.6432
   9923SM  H13C13377   7.199   7.199   2.488  0.7817  0.1229 -2.6840
   9923SM   C1213378   7.526   7.096   2.542  0.4258  0.5740 -0.5528
   9923SM  H12A13379   7.487   7.048   2.631  0.5495  2.0282  0.3201
   9923SM  H12B13380   7.564   7.192   2.573 -0.1993  0.1493  1.7126
   9923SM   C1113381   7.645   7.008   2.491 -0.1414 -1.1228 -0.6270
   9923SM  H11A13382   7.718   7.025   2.572  0.0569 -2.7128 -0.4371
   9923SM  H11B13383   7.678   7.050   2.393 -0.2213  2.4126  0.7519
   9923SM     P13384   7.581   6.775   2.611  0.2913  0.3284 -0.3477
   9923SM   O1313385   7.452   6.709   2.587 -0.9490  0.0536  0.6032
   9923SM   O1413386   7.697   6.682   2.640 -0.0167  0.2950 -0.7516
   9923SM   O1113387   7.572   6.883   2.729  0.5870  0.4494  0.0237
   9923SM   O1213388   7.610   6.866   2.487 -0.3542 -0.3237 -0.1570
   9923SM   C1S13389   7.500   6.840   2.851 -0.1742 -0.4810 -0.1615
   9923SM   H1S13390   7.399   6.799   2.829  1.3638 -3.9457 -1.5202
   9923SM   H1T13391   7.487   6.932   2.912  2.2709 -0.2478  0.0993
   9923SM    NF13392   7.513   6.713   3.071  0.1556  0.3137 -0.8946
   9923SM   HNF13393   7.559   6.758   3.148  2.3676 -0.6010 -1.5875
   9923SM   C2S13394   7.592   6.746   2.947  0.6195  0.0635 -0.3393
   9923SM   H2S13395   7.610   6.654   2.887 -0.7639 -0.3125 -0.2113
   9923SM   C3S13396   7.734   6.803   2.975 -0.1064  1.1077 -0.6861
   9923SM   H3S13397   7.733   6.898   3.032 -1.8081  0.6429  0.1149
   9923SM    O313398   7.805   6.836   2.859 -0.1877 -0.4802 -0.0434
   9923SM   HO313399   7.738   6.851   2.792 -0.0567 -0.6351 -0.2100
   9923SM   C4S13400   7.811   6.704   3.056  0.3052  0.1631  0.1069
   9923SM   H4S13401   7.835   6.615   2.997 -0.3519  0.0202  0.0505
   9923SM   C5S13402   7.841   6.708   3.186 -0.1808  0.3019  0.8002
   9923SM   H5S13403   7.794   6.786   3.249  0.9077 -0.1281  2.2237
   9923SM   C6S13404   7.924   6.601   3.262 -0.1393 -0.1108 -0.1021
   9923SM   H6S13405   7.995   6.654   3.329 -0.6241  0.1706  0.1975
   9923SM   H6T13406   7.983   6.548   3.185  2.6896  2.6764 -0.0734
   9923SM   C7S13407   7.830   6.517   3.346  0.2276  0.2386  0.6678
   9923SM   H7S13408   7.888   6.427   3.375  2.1460  0.9791 -0.6497
   9923SM   H7T13409   7.743   6.477   3.291 -1.6218  2.5292  1.7126
   9923SM   C8S13410   7.785   6.584   3.477  0.2464 -0.0214 -0.2665
   9923SM   H8S13411   7.685   6.543   3.504 -0.3995  0.2902 -2.0600
   9923SM   H8T13412   7.772   6.693   3.464 -0.7363 -0.1703 -0.6616
   9923SM   C9S13413   7.866   6.561   3.602 -0.1951 -0.0149 -0.3989
   9923SM   H9S13414   7.971   6.592   3.583  0.4352  0.0873  2.7184
   9923SM   H9T13415   7.869   6.451   3.618 -1.9868  0.0441  0.5483
   9923SM  C10S13416   7.806   6.634   3.723  0.1479  0.8411 -0.3364
   9923SM  H10S13417   7.698   6.611   3.715  0.4875 -0.2851 -2.3995
   9923SM  H10T13418   7.819   6.744   3.737 -0.9071  0.7583  1.6093
   9923SM  C11S13419   7.848   6.568   3.859  0.1509 -0.1245 -0.0880
   9923SM  H11S13420   7.957   6.554   3.866  0.4718  2.6987  3.0708
   9923SM  H11T13421   7.792   6.472   3.866 -3.7738  1.8304 -1.5687
   9923SM  C12S13422   7.803   6.647   3.982 -0.7230  0.1315 -0.4129
   9923SM  H12S13423   7.693   6.647   3.997 -1.1458 -0.1152 -3.0108
   9923SM  H12T13424   7.842   6.751   3.987  2.2121 -0.6706 -3.1211
   9923SM  C13S13425   7.867   6.587   4.113  0.0729 -0.2850 -0.3806
   9923SM  H13S13426   7.830   6.485   4.135 -0.9340  0.4981  1.8962
   9923SM  H13T13427   7.825   6.653   4.192  1.1185 -2.5689  2.1972
   9923SM  C14S13428   8.013   6.593   4.125 -0.5409  0.4784 -0.2464
   9923SM  H14S13429   8.060   6.676   4.067  3.4593 -1.6173 -0.3577
   9923SM  H14T13430   8.043   6.503   4.069  0.0593  0.7054 -0.2919
   9923SM  C15S13431   8.059   6.583   4.275 -0.8381  0.1846  0.0429
   9923SM  H15S13432   7.993   6.637   4.346 -0.2758 -0.2588  0.9231
   9923SM  H15T13433   8.162   6.625   4.267 -2.0076  3.1092 -0.9424
   9923SM  C16S13434   8.076   6.438   4.321  0.3794 -0.0408 -0.1527
   9923SM  H16S13435   8.120   6.381   4.236 -0.6358 -1.4171  0.2132
   9923SM  H16T13436   7.977   6.388   4.327  1.1163 -1.4426  1.0391
   9923SM  C17S13437   8.146   6.401   4.452  0.1483 -0.1245 -0.0035
   9923SM  H17S13438   8.075   6.446   4.525  1.0143 -0.7176  1.2467
   9923SM  H17T13439   8.241   6.460   4.456  0.2646 -0.3325  0.4180
   9923SM  C18S13440   8.163   6.250   4.474  0.0094 -0.0130  0.1151
   9923SM  H18S13441   8.193   6.205   4.377  2.7107  2.5856 -0.4082
   9923SM  H18T13442   8.068   6.206   4.510 -0.7632  1.3839 -0.1455
   9923SM  H18U13443   8.249   6.238   4.543 -0.4943 -3.9280  0.2618
   9923SM   C1F13444   7.402   6.646   3.076  0.2518  0.0626 -0.6819
   9923SM    OF13445   7.367   6.578   2.980  0.1186  0.2630  0.1704
   9923SM   C2F13446   7.326   6.651   3.204 -0.4670  0.0808  0.2515
   9923SM   H2F13447   7.316   6.754   3.244 -1.8687  0.2985 -0.6067
   9923SM   H2G13448   7.381   6.596   3.284 -0.8920  2.1909  2.0962
   9923SM   C3F13449   7.182   6.578   3.203 -1.0371 -0.0133 -0.4134
   9923SM   H3F13450   7.179   6.484   3.145  1.9752 -0.6263  0.2710
   9923SM   H3G13451   7.103   6.650   3.171  0.0544  1.4884  0.1271
   9923SM   C4F13452   7.136   6.531   3.344  0.0182 -0.1459  0.4241
   9923SM   H4F13453   7.209   6.457   3.382 -2.2997 -2.4630  0.6482
   9923SM   H4G13454   7.032   6.492   3.334  0.1022 -0.6138  1.2656
   9923SM   C5F13455   7.119   6.649   3.443  0.4856  0.0071  0.0231
   9923SM   H5F13456   7.060   6.723   3.384  1.0871 -1.3967 -2.4932
   9923SM   H5G13457   7.223   6.683   3.464  0.2041 -0.1224  1.6963
   9923SM   C6F13458   7.067   6.610   3.583 -0.5362 -0.5507  0.0078
   9923SM   H6F13459   7.087   6.691   3.656  0.1737  0.3950 -1.1988
   9923SM   H6G13460   7.117   6.514   3.609  2.8422  0.5451 -1.8453
   9923SM   C7F13461   6.915   6.594   3.584 -0.6807 -0.1994 -0.5182
   9923SM   H7F13462   6.881   6.533   3.497  2.1529 -4.2622  0.8785
   9923SM   H7G13463   6.853   6.685   3.573 -3.6266 -2.1590 -1.5639
   9923SM   C8F13464   6.874   6.515   3.706  1.1753  0.2151 -0.9518
   9923SM   H8F13465   6.919   6.419   3.675 -0.5146 -0.5756 -1.0412
   9923SM   H8G13466   6.763   6.510   3.704  1.1873 -0.8091  0.2841
   9923SM   C9F13467   6.910   6.589   3.843 -0.3277  0.1312  0.5617
   9923SM   H9F13468   6.849   6.682   3.851  0.5871  0.8007 -0.0399
   9923SM   H9G13469   7.017   6.618   3.848 -0.3541  0.4965 -0.6118
   9923SM  C10F13470   6.873   6.502   3.969  0.3594 -0.5831 -0.6546
   9923SM  H10F13471   6.872   6.395   3.939  0.9006 -0.8371  0.1814
   9923SM  H10G13472   6.774   6.541   4.003  0.4960 -1.8699  1.3804
   9923SM  C11F13473   6.965   6.531   4.081 -0.2278 -0.2463  0.8668
   9923SM  H11F13474   6.958   6.641   4.094 -2.5836 -0.2343 -0.1082
   9923SM  H11G13475   7.065   6.514   4.036 -0.8789 -0.0431 -0.7323
   9923SM  C12F13476   6.937   6.447   4.206 -0.3427 -0.0524 -0.2950
   9923SM  H12F13477   6.934   6.340   4.177  1.1366 -0.2996  0.3295
   9923SM  H12G13478   6.837   6.480   4.241 -0.0731  0.2281  0.2208
   9923SM  C13F13479   7.045   6.449   4.317  0.3555 -0.6491 -0.5976
   9923SM  H13F13480   7.147   6.420   4.286  1.5024  1.7184  0.6927
   9923SM  H13G13481   7.016   6.380   4.400 -1.0822  0.5079 -0.0929
   9923SM  C14F13482   7.075   6.586   4.388  0.2707 -0.3157  0.5215
   9923SM  H14F13483   7.033   6.658   4.315  0.7441  0.2442  0.7961
   9923SM  H14G13484   7.185   6.602   4.396  0.5327 -1.2363 -0.8500
   9923SM  C15F13485   7.005   6.602   4.526  0.1034  0.3787 -0.3152
   9923SM  H15F13486   6.924   6.526   4.525 -0.2019  0.7028 -0.9418
   9923SM  H15G13487   6.964   6.705   4.537 -0.7557  0.0009  0.0881
   9923SM  C16F13488   7.116   6.573   4.635 -1.3334  0.5664 -0.1157
   9923SM  H16F13489   7.207   6.631   4.609 -0.2940 -0.3570  1.3681
   9923SM  H16G13490   7.142   6.465   4.627  1.0316  1.0537  0.4582
   9923SM  C17F13491   7.088   6.605   4.786  0.8165  0.1219  0.8231
   9923SM  H17F13492   6.984   6.575   4.811 -0.3736  0.1866 -3.2306
   9923SM  H17G13493   7.088   6.715   4.795 -1.1011  0.0161  3.2610
   9923SM  C18F13494   7.184   6.542   4.891 -0.2634  0.0358 -0.2234
   9923SM  H18F13495   7.156   6.565   4.996 -2.4484  1.7898 -1.1079
   9923SM  H18G13496   7.289   6.577   4.877 -0.0645 -0.3202  0.3293
   9923SM  C19F13497   7.189   6.389   4.865  0.3535 -0.1882  0.3731
   9923SM  H19F13498   7.101   6.355   4.807  0.2274 -0.3851  0.6749
   9923SM  H19G13499   7.177   6.342   4.965 -0.5963 -1.7746 -0.4448
   9923SM  C20F13500   7.321   6.337   4.812  0.0042  0.8817  0.0385
   9923SM  H20F13501   7.402   6.399   4.857 -0.5927  0.8640  1.1754
   9923SM  H20G13502   7.326   6.363   4.704 -0.1157  0.4054 -0.0805
   9923SM  C21F13503   7.326   6.177   4.813  0.0886  0.0710  0.7730
   9923SM  H21F13504   7.264   6.150   4.901 -2.0052  1.2336 -0.2778
   9923SM  H21G13505   7.432   6.148   4.827  0.5994  0.7713 -1.3330
   9923SM  C22F13506   7.270   6.106   4.682 -0.4826  0.1822 -0.9600
   9923SM  H22F13507   7.261   5.995   4.679 -0.4413  0.0270  1.9280
   9923SM  H22G13508   7.337   6.132   4.597  2.1423 -0.5472  0.7476
   9923SM  C23F13509   7.130   6.150   4.638  0.3666 -0.4061  0.7780
   9923SM  H23F13510   7.101   6.099   4.543 -1.6828 -0.1473  1.2117
   9923SM  H23G13511   7.139   6.258   4.615  0.4644 -0.9911 -2.3658
   9923SM  H23H13512   7.050   6.135   4.714 -0.9163 -0.7668 -0.5821
  10023SM     N13513   6.426   0.275   2.991  1.0071 -0.0461  0.4797
  10023SM   C1513514   6.347   0.152   2.979 -0.5896 -0.9412  0.6045
  10023SM  H15A13515   6.327   0.117   3.080  0.4448  0.6114  1.3899
  10023SM  H15B13516   6.405   0.067   2.949  0.3679 -0.0155 -0.2215
  10023SM  H15C13517   6.261   0.156   2.914 -1.2021 -0.6751  1.4065
  10023SM   C1413518   6.340   0.386   3.033  0.1656  0.0848 -0.2255
  10023SM  H14A13519   6.402   0.472   3.051 -1.2219  1.0940 -0.1331
  10023SM  H14B13520   6.306   0.365   3.133 -0.3118  1.3192 -0.1061
  10023SM  H14C13521   6.261   0.416   2.965  0.6507  0.3158 -0.6891
  10023SM   C1313522   6.537   0.264   3.091  0.0177 -0.3925 -0.4663
  10023SM  H13A13523   6.607   0.193   3.050 -0.2215 -1.3381  0.7042
  10023SM  H13B13524   6.505   0.221   3.185 -1.4471  2.9099  0.7244
  10023SM  H13C13525   6.593   0.356   3.102  1.7791 -1.3961 -0.6322
  10023SM   C1213526   6.488   0.311   2.854  0.6002 -0.4971  0.1154
  10023SM  H12A13527   6.554   0.392   2.878 -0.7193  0.4147  0.8127
  10023SM  H12B13528   6.413   0.356   2.790 -1.5934  0.1170  2.9057
  10023SM   C1113529   6.563   0.205   2.774 -0.5632  0.2294  0.8554
  10023SM  H11A13530   6.599   0.254   2.681  1.2330  0.3778  1.5827
  10023SM  H11B13531   6.494   0.122   2.746 -0.5686  0.1669  1.0515
  10023SM     P13532   6.775   0.060   2.792  0.1585  0.6521  0.3331
  10023SM   O1313533   6.702  -0.067   2.765  0.0952 -0.3528 -0.6182
  10023SM   O1413534   6.842   0.130   2.680  0.2088  0.2381 -0.3874
  10023SM   O1113535   6.876   0.042   2.913 -0.0247  0.4619  0.1005
  10023SM   O1213536   6.663   0.146   2.856  0.0993 -0.4889  0.0869
  10023SM   C1S13537   6.829   0.062   3.048 -0.3094  0.7233 -0.2232
  10023SM   H1S13538   6.740  -0.002   3.066 -1.4050  2.0374 -0.7585
  10023SM   H1T13539   6.792   0.163   3.075  0.2663  0.2901  2.4332
  10023SM    NF13540   6.872  -0.036   3.277 -0.0112 -0.2397 -0.1608
  10023SM   HNF13541   6.896   0.018   3.357 -3.5209 -1.7067  2.1248
  10023SM   C2S13542   6.932   0.000   3.149  0.3063 -0.7263  0.3999
  10023SM   H2S13543   6.966  -0.097   3.107  1.0410 -0.5876  0.6525
  10023SM   C3S13544   7.044   0.102   3.167  0.3924  0.3937 -0.9322
  10023SM   H3S13545   6.997   0.186   3.223 -0.0440 -1.5372  1.7872
  10023SM    O313546   7.098   0.153   3.049  0.6635  0.0567 -0.2824
  10023SM   HO313547   7.060   0.098   2.981 -0.4957  2.0212 -1.2812
  10023SM   C4S13548   7.154   0.038   3.241  0.8549  0.1087 -0.3512
  10023SM   H4S13549   7.179  -0.063   3.206  0.5195 -0.8205  1.9441
  10023SM   C5S13550   7.212   0.096   3.346 -0.3102  0.2813  0.2017
  10023SM   H5S13551   7.181   0.196   3.380 -0.6254 -0.1327  1.1646
  10023SM   C6S13552   7.330   0.034   3.428  0.7446 -0.2664  0.0607
  10023SM   H6S13553   7.401   0.118   3.448  0.6409  0.2687 -1.6696
  10023SM   H6T13554   7.395  -0.043   3.382  0.1670 -0.4686 -0.4286
  10023SM   C7S13555   7.281  -0.033   3.558 -0.0483 -0.2921 -0.4401
  10023SM   H7S13556   7.200  -0.108   3.541 -2.0558  2.0241 -1.7768
  10023SM   H7T13557   7.241   0.054   3.616 -0.0324  0.4766 -1.5523
  10023SM   C8S13558   7.391  -0.093   3.649  0.1686 -0.0955  0.0251
  10023SM   H8S13559   7.453  -0.013   3.694  0.3286  1.0364 -2.0809
  10023SM   H8T13560   7.450  -0.171   3.596  0.5287 -0.9467  1.6282
  10023SM   C9S13561   7.330  -0.190   3.752 -0.3616 -0.2988  0.4587
  10023SM   H9S13562   7.254  -0.255   3.703 -0.8141  0.5858 -0.0537
  10023SM   H9T13563   7.278  -0.132   3.832 -1.3588 -0.7681  0.1694
  10023SM  C10S13564   7.443  -0.280   3.820  0.1109 -0.7304  0.2008
  10023SM  H10S13565   7.514  -0.202   3.854  1.8132 -1.1567 -2.1707
  10023SM  H10T13566   7.488  -0.346   3.743  1.0931 -0.2807  0.3802
  10023SM  C11S13567   7.384  -0.373   3.934  0.1055  0.0017  0.4411
  10023SM  H11S13568   7.307  -0.429   3.876  0.1822 -0.3542  0.6819
  10023SM  H11T13569   7.337  -0.312   4.013 -1.9783 -0.8667 -0.0693
  10023SM  C12S13570   7.485  -0.486   3.983 -0.0319  0.0833 -0.5446
  10023SM  H12S13571   7.528  -0.526   3.889  2.3894 -0.3362  0.6680
  10023SM  H12T13572   7.440  -0.581   4.017  3.7298 -1.3970  0.8259
  10023SM  C13S13573   7.607  -0.441   4.063 -0.3174  0.2176  0.1731
  10023SM  H13S13574   7.581  -0.382   4.153 -0.0432 -0.4210  0.6710
  10023SM  H13T13575   7.656  -0.360   4.004 -1.1621  1.5457  1.2284
  10023SM  C14S13576   7.701  -0.563   4.101  0.2144 -0.1300 -0.0570
  10023SM  H14S13577   7.758  -0.592   4.009  0.2027  2.2250 -0.8805
  10023SM  H14T13578   7.634  -0.644   4.136 -0.1094  0.9606  1.9593
  10023SM  C15S13579   7.812  -0.534   4.207  0.2551 -0.3658  0.6479
  10023SM  H15S13580   7.884  -0.457   4.175 -1.5262  1.2531  0.3703
  10023SM  H15T13581   7.869  -0.629   4.220  1.6266  0.0372 -1.8005
  10023SM  C16S13582   7.759  -0.497   4.348  1.2120 -0.1804 -0.0388
  10023SM  H16S13583   7.696  -0.583   4.380  0.8986  0.3274  0.7498
  10023SM  H16T13584   7.691  -0.411   4.329  2.3276  1.2026  1.8824
  10023SM  C17S13585   7.861  -0.458   4.452  1.1483 -0.1506 -0.0681
  10023SM  H17S13586   7.792  -0.431   4.535  0.0543 -0.9660 -0.6751
  10023SM  H17T13587   7.907  -0.366   4.410 -0.3533  0.1612 -1.1240
  10023SM  C18S13588   7.960  -0.561   4.496 -0.7429  0.2894 -0.0995
  10023SM  H18S13589   7.906  -0.657   4.504  0.4033 -0.3457  0.3152
  10023SM  H18T13590   8.009  -0.535   4.593 -0.5560 -0.5421  0.0317
  10023SM  H18U13591   8.035  -0.582   4.416  0.2181  1.1108  0.5550
  10023SM   C1F13592   6.790  -0.136   3.294 -0.3935  0.2391 -0.1050
  10023SM    OF13593   6.757  -0.216   3.206  0.6575 -0.0626 -0.5758
  10023SM   C2F13594   6.737  -0.145   3.435  0.4339  0.2959  0.1125
  10023SM   H2F13595   6.701  -0.047   3.472  0.4470  0.2141  0.3472
  10023SM   H2G13596   6.811  -0.183   3.509  0.1487 -2.9715 -1.1193
  10023SM   C3F13597   6.624  -0.255   3.444 -0.1704 -0.0487  0.2274
  10023SM   H3F13598   6.676  -0.351   3.428 -0.3474  0.0448 -0.9683
  10023SM   H3G13599   6.546  -0.242   3.366  0.5259 -1.2409 -0.6891
  10023SM   C4F13600   6.551  -0.267   3.588  0.1142 -0.1565  0.5811
  10023SM   H4F13601   6.467  -0.339   3.586 -0.6143  0.6834  0.1304
  10023SM   H4G13602   6.507  -0.168   3.614 -1.9803 -1.6588  3.1401
  10023SM   C5F13603   6.643  -0.304   3.699 -0.0994 -0.4414  0.4662
  10023SM   H5F13604   6.713  -0.219   3.714  0.5552 -0.7006 -0.9090
  10023SM   H5G13605   6.714  -0.385   3.673  1.0559  0.0515  1.9901
  10023SM   C6F13606   6.564  -0.331   3.828 -0.1534 -0.1607 -0.5172
  10023SM   H6F13607   6.490  -0.411   3.807 -1.0990  0.9817 -1.7960
  10023SM   H6G13608   6.513  -0.232   3.837  1.3212  0.4694  1.6764
  10023SM   C7F13609   6.640  -0.352   3.958  0.2741 -0.4245  0.1479
  10023SM   H7F13610   6.718  -0.274   3.965  1.9275 -2.1183  1.9377
  10023SM   H7G13611   6.691  -0.451   3.961 -1.2074 -1.2090  0.9630
  10023SM   C8F13612   6.530  -0.352   4.060 -0.0571  0.3634  0.6825
  10023SM   H8F13613   6.460  -0.436   4.043 -0.6302  1.0502 -0.4942
  10023SM   H8G13614   6.465  -0.262   4.052  0.2554  0.5670  0.3656
  10023SM   C9F13615   6.589  -0.341   4.200  0.0088 -0.1721  0.6138
  10023SM   H9F13616   6.628  -0.238   4.213  0.6928 -0.1417 -1.3169
  10023SM   H9G13617   6.667  -0.416   4.224 -0.4402 -0.8861 -0.1062
  10023SM  C10F13618   6.474  -0.354   4.301  0.4614  0.1467  0.3091
  10023SM  H10F13619   6.431  -0.457   4.299  0.8184 -0.0541  1.6367
  10023SM  H10G13620   6.398  -0.281   4.266  0.7307  1.2734  1.9443
  10023SM  C11F13621   6.510  -0.321   4.447  0.5309 -0.0343  0.3873
  10023SM  H11F13622   6.520  -0.211   4.459 -0.7747 -0.0632  2.0964
  10023SM  H11G13623   6.608  -0.365   4.477  0.3629 -0.7003 -0.0173
  10023SM  C12F13624   6.396  -0.371   4.538 -0.0465 -1.1946  0.0858
  10023SM  H12F13625   6.402  -0.480   4.523  0.3906 -0.7620 -4.2671
  10023SM  H12G13626   6.302  -0.326   4.498  0.9712  1.0203 -0.0003
  10023SM  C13F13627   6.403  -0.345   4.688  0.6169  0.3366  0.2463
  10023SM  H13F13628   6.502  -0.386   4.719  1.0220  0.8446 -0.3436
  10023SM  H13G13629   6.321  -0.405   4.733  0.7715 -1.4091 -1.6799
  10023SM  C14F13630   6.386  -0.203   4.731 -0.2431 -0.1558  0.6003
  10023SM  H14F13631   6.305  -0.144   4.683  0.3589  0.3346  0.1812
  10023SM  H14G13632   6.476  -0.147   4.698 -0.3599 -0.9648 -1.2739
  10023SM  C15F13633   6.367  -0.182   4.884  1.3915  0.3866  0.2068
  10023SM  H15F13634   6.261  -0.203   4.906  0.8619  2.6220  0.0891
  10023SM  H15G13635   6.374  -0.072   4.899 -0.3642  0.1814  3.0903
  10023SM  C16F13636   6.470  -0.249   4.984 -0.5434 -0.2109  0.2613
  10023SM  H16F13637   6.447  -0.357   4.992 -2.0540  0.0508 -0.1909
  10023SM  H16G13638   6.447  -0.206   5.084 -1.3211 -0.9048  0.3847
  10023SM  C17F13639   6.616  -0.224   4.954 -0.5198  0.4157 -0.1464
  10023SM  H17F13640   6.645  -0.233   4.847 -0.1039  1.5889 -0.1494
  10023SM  H17G13641   6.689  -0.275   5.019 -1.9626 -0.0004  1.1992
  10023SM  C18F13642   6.657  -0.076   4.977  0.5513  0.4639  0.2173
  10023SM  H18F13643   6.649  -0.043   5.083  2.1127  1.1537  0.1549
  10023SM  H18G13644   6.597  -0.007   4.915  1.6864 -0.0333 -1.5168
  10023SM  C19F13645   6.798  -0.025   4.934  0.1078 -0.3646 -0.7856
  10023SM  H19F13646   6.793   0.086   4.944  0.3851 -0.5409  2.2395
  10023SM  H19G13647   6.818  -0.050   4.828  0.3194  0.3586 -0.9215
  10023SM  C20F13648   6.896  -0.068   5.038  0.1158 -0.8599 -0.0303
  10023SM  H20F13649   6.910  -0.177   5.047  1.7329 -0.6127  0.7035
  10023SM  H20G13650   6.851  -0.035   5.134  1.0439 -1.6276  0.6844
  10023SM  C21F13651   7.042  -0.012   5.019  0.8636 -0.0330  0.4908
  10023SM  H21F13652   7.083  -0.050   4.923  0.5231  1.0346 -0.0940
  10023SM  H21G13653   7.100  -0.042   5.108  2.4460  1.1905 -0.0771
  10023SM  C22F13654   7.036   0.144   5.019  0.0619 -0.5848  0.1053
  10023SM  H22F13655   6.988   0.196   5.104 -0.7234 -2.3775  0.8062
  10023SM  H22G13656   6.989   0.171   4.922 -1.1216  1.3762  1.1545
  10023SM  C23F13657   7.177   0.198   5.005 -0.0115  0.0421 -0.4876
  10023SM  H23F13658   7.231   0.186   5.101  0.5573 -0.6495 -0.8854
  10023SM  H23G13659   7.157   0.302   4.972 -1.6834 -1.0240 -3.1873
  10023SM  H23H13660   7.228   0.137   4.928  1.0848  0.2369  0.0696
  101CHL1    C313661   4.627   4.087   7.065  0.7840 -0.4236  0.2866
  101CHL1    H313662   4.710   4.069   6.992 -1.1161 -2.1522 -1.5754
  101CHL1    O313663   4.682   4.119   7.188  0.0124 -0.0118 -0.3140
  101CHL1   H3'13664   4.746   4.049   7.202 -0.8638 -0.2573  3.4507
  101CHL1    C413665   4.536   4.202   7.019  0.2039  0.5534 -0.5802
  101CHL1   H4A13666   4.480   4.225   7.112 -2.0094 -0.3134 -1.6186
  101CHL1   H4B13667   4.598   4.292   7.000 -0.5786  1.3689  0.6185
  101CHL1    C513668   4.436   4.170   6.916 -0.2692 -0.0778  1.0814
  101CHL1    C613669   4.430   4.245   6.806  0.8294  0.7937 -0.2136
  101CHL1    H613670   4.493   4.335   6.802 -0.3932  1.7480  1.1898
  101CHL1    C713671   4.327   4.236   6.702  0.3912 -0.1810  0.5758
  101CHL1   H7A13672   4.293   4.340   6.683  2.2427  0.5043  0.7940
  101CHL1   H7B13673   4.379   4.201   6.611  0.8931 -1.2795  1.2492
  101CHL1    C813674   4.207   4.136   6.739 -0.6112  0.5095 -0.1664
  101CHL1    H813675   4.144   4.193   6.811  1.3145  1.4146  0.8760
  101CHL1   C1413676   4.132   4.100   6.612  0.4046 -0.0837 -1.0489
  101CHL1   H1413677   4.201   4.058   6.534  0.3040 -1.4018 -0.4534
  101CHL1   C1513678   4.054   4.214   6.543 -0.5031  0.2875  0.0458
  101CHL1  H15A13679   4.022   4.295   6.612  2.1537  2.2770 -0.9168
  101CHL1  H15B13680   4.125   4.252   6.468  0.7157  0.0808  1.0580
  101CHL1   C1613681   3.926   4.158   6.484  0.1632 -0.3157  0.2110
  101CHL1  H16A13682   3.844   4.209   6.539 -0.6953 -0.6869 -0.6954
  101CHL1  H16B13683   3.925   4.179   6.374  0.3523 -0.1921  0.2320
  101CHL1   C1713684   3.932   4.001   6.514  0.0655  0.6131  0.3547
  101CHL1   H1713685   4.004   3.964   6.438 -0.2789  0.1281  0.2561
  101CHL1   C1313686   4.023   3.991   6.646 -0.0557 -0.1075  1.1504
  101CHL1   C1813687   3.934   4.030   6.765 -0.3406 -0.1688 -1.0395
  101CHL1  H18A13688   3.863   4.112   6.740 -1.0305 -0.6694 -0.7684
  101CHL1  H18B13689   3.868   3.944   6.787  1.1506 -0.8965  0.8914
  101CHL1  H18C13690   3.988   4.049   6.861 -2.4864  0.7392  0.0825
  101CHL1   C1213691   4.097   3.858   6.677  0.6849 -0.6852  0.1652
  101CHL1  H12A13692   4.022   3.782   6.705  0.5562  0.0498  1.9660
  101CHL1  H12B13693   4.165   3.828   6.594  0.9100 -1.1280  0.5102
  101CHL1   C1113694   4.184   3.885   6.802 -0.1048 -0.4524  0.3166
  101CHL1  H11A13695   4.118   3.893   6.891  1.6918  1.0940  1.5819
  101CHL1  H11B13696   4.256   3.801   6.813 -1.4528 -2.0796 -2.1304
  101CHL1    C913697   4.275   4.011   6.798 -0.9810  0.1677 -0.0888
  101CHL1    H913698   4.353   3.980   6.724 -0.1343 -0.2330  0.9522
  101CHL1   C1013699   4.349   4.041   6.937 -0.5668  0.3396 -0.3738
  101CHL1   C1913700   4.245   4.063   7.047  0.0618  0.1760  0.1742
  101CHL1  H19A13701   4.172   4.143   7.020  0.7573  0.4876 -0.8227
  101CHL1  H19B13702   4.180   3.976   7.070 -0.2016  0.6592  1.3038
  101CHL1  H19C13703   4.299   4.090   7.140  1.0390  1.1997 -0.6677
  101CHL1    C113704   4.460   3.934   6.966 -0.3471  0.2149  0.1984
  101CHL1   H1A13705   4.398   3.842   6.976 -0.7697  0.5679  0.8746
  101CHL1   H1B13706   4.519   3.925   6.872 -0.4606 -1.0526  0.2218
  101CHL1    C213707   4.552   3.959   7.087  0.3348  0.5140  0.0216
  101CHL1   H2A13708   4.623   3.877   7.111  0.2361  0.4406  0.0633
  101CHL1   H2B13709   4.479   3.970   7.171 -0.1657  1.8213 -0.5499
  101CHL1   C2013710   3.796   3.926   6.488 -0.3605 -0.2355 -0.2432
  101CHL1   H2013711   3.725   3.980   6.554 -0.7956  0.4905 -1.2719
  101CHL1   C2113712   3.804   3.776   6.512 -0.3797  0.5228 -0.0577
  101CHL1  H21A13713   3.707   3.727   6.493  0.2941 -1.3308  0.9971
  101CHL1  H21B13714   3.828   3.757   6.619 -1.5082  0.7559  0.2488
  101CHL1  H21C13715   3.877   3.734   6.440 -1.9386 -0.7542 -0.9607
  101CHL1   C2213716   3.739   3.944   6.342  0.0865 -0.0260 -0.1462
  101CHL1  H22A13717   3.742   4.053   6.318 -1.0562 -0.5919 -3.3331
  101CHL1  H22B13718   3.808   3.898   6.269  1.9637  1.0305  0.8751
  101CHL1   C2313719   3.593   3.897   6.298 -0.4951 -0.6723  0.2274
  101CHL1  H23A13720   3.594   3.786   6.305  2.8314 -0.7669  0.0715
  101CHL1  H23B13721   3.515   3.933   6.369 -1.1843  0.4094 -1.0481
  101CHL1   C2413722   3.563   3.951   6.160 -0.0023 -0.2415  0.6782
  101CHL1  H24A13723   3.587   4.059   6.163 -2.0778  0.4499 -2.4617
  101CHL1  H24B13724   3.629   3.906   6.083 -0.3512 -0.4746  0.5070
  101CHL1   C2513725   3.416   3.915   6.113 -0.2078 -0.0818  0.4678
  101CHL1   H2513726   3.348   3.948   6.194 -0.4456 -0.7976  0.5726
  101CHL1   C2613727   3.386   3.988   5.972  0.1040  0.7761  0.0375
  101CHL1  H26A13728   3.288   3.948   5.939  0.8561 -2.3194  1.2214
  101CHL1  H26B13729   3.382   4.097   5.995 -1.4269  0.3399  2.1155
  101CHL1  H26C13730   3.468   3.963   5.901  0.1298  1.0826 -0.0406
  101CHL1   C2713731   3.391   3.761   6.094  0.0108 -0.1486  0.5213
  101CHL1  H27A13732   3.294   3.745   6.042  0.2379 -1.4303  0.4595
  101CHL1  H27B13733   3.466   3.728   6.018 -2.9139 -3.0396 -1.3747
  101CHL1  H27C13734   3.398   3.704   6.189 -0.8090  0.3622  0.9013
  102CHL1    C313735   2.005   4.284   6.176  0.3633  0.5857 -0.4453
  102CHL1    H313736   2.020   4.393   6.161 -1.1526  1.3815  2.7963
  102CHL1    O313737   2.005   4.266   6.319  0.2693  0.4162  0.2587
  102CHL1   H3'13738   1.951   4.340   6.348  0.9552  0.8865  0.3572
  102CHL1    C413739   1.866   4.255   6.115 -0.3597  0.8417 -0.4291
  102CHL1   H4A13740   1.835   4.153   6.146 -1.5615  1.2481 -0.1976
  102CHL1   H4B13741   1.798   4.328   6.165 -0.8865  0.4678 -0.5902
  102CHL1    C513742   1.853   4.266   5.967 -0.0669 -0.5667  0.0641
  102CHL1    C613743   1.763   4.351   5.906  0.6914  0.1029 -0.2431
  102CHL1    H613744   1.703   4.418   5.969 -0.2521  0.3737 -1.3938
  102CHL1    C713745   1.747   4.370   5.759  0.6158 -0.0501 -0.3036
  102CHL1   H7A13746   1.638   4.367   5.736  0.3008  0.7551  0.9515
  102CHL1   H7B13747   1.777   4.472   5.727 -1.9361  0.8408 -0.1394
  102CHL1    C813748   1.836   4.270   5.680  1.3075 -0.2611  0.0776
  102CHL1    H813749   1.787   4.170   5.683  3.1059 -1.1732  1.6764
  102CHL1   C1413750   1.850   4.325   5.532  0.2574  0.3667 -0.6954
  102CHL1   H1413751   1.904   4.421   5.548  0.7781 -0.0491  0.1702
  102CHL1   C1513752   1.721   4.360   5.450  0.0326 -0.0904 -0.3460
  102CHL1  H15A13753   1.640   4.286   5.469  0.4344 -1.5604 -3.5582
  102CHL1  H15B13754   1.679   4.457   5.483  1.8276  0.5873  0.0357
  102CHL1   C1613755   1.774   4.361   5.306  0.5554 -0.2371 -0.1340
  102CHL1  H16A13756   1.721   4.286   5.243 -0.3798 -1.2665  1.8004
  102CHL1  H16B13757   1.749   4.459   5.259 -1.5547 -0.8375 -0.3764
  102CHL1   C1713758   1.929   4.337   5.317  0.0942  0.1773  0.5175
  102CHL1   H1713759   1.968   4.439   5.337 -1.0231  0.2321  2.6599
  102CHL1   C1313760   1.948   4.251   5.441 -0.0037  0.4952 -0.0013
  102CHL1   C1813761   1.904   4.105   5.423 -1.1005 -0.8693  0.1699
  102CHL1  H18A13762   1.862   4.069   5.519 -1.1873  0.7734  0.7946
  102CHL1  H18B13763   1.830   4.096   5.341  0.5470 -0.9978 -1.3686
  102CHL1  H18C13764   1.981   4.032   5.392 -0.2767  0.6620 -1.5869
  102CHL1   C1213765   2.083   4.253   5.512 -0.8448 -0.1300 -0.1882
  102CHL1  H12A13766   2.153   4.197   5.447 -2.3192 -3.3494  0.7915
  102CHL1  H12B13767   2.124   4.357   5.512  1.0028 -0.8242 -0.3889
  102CHL1   C1113768   2.074   4.189   5.656 -0.3216  0.1772  1.1695
  102CHL1  H11A13769   2.065   4.079   5.647  1.2336  0.2494 -2.7923
  102CHL1  H11B13770   2.173   4.212   5.702  0.5093  3.2565 -1.7488
  102CHL1    C913771   1.967   4.255   5.744 -0.9697 -0.2154 -0.6129
  102CHL1    H913772   2.006   4.357   5.764 -0.8731  0.4112 -3.4743
  102CHL1   C1013773   1.968   4.197   5.889  0.6532  0.0268  0.3158
  102CHL1   C1913774   1.946   4.045   5.888 -0.3848 -0.1687 -0.3447
  102CHL1  H19A13775   1.873   4.017   5.809 -0.8059 -1.8208  0.5687
  102CHL1  H19B13776   2.037   3.985   5.868  1.9490  3.4021 -1.3255
  102CHL1  H19C13777   1.901   4.002   5.980  0.6344  1.1241  0.7961
  102CHL1    C113778   2.108   4.226   5.950 -0.0842 -0.2020 -0.2047
  102CHL1   H1A13779   2.182   4.161   5.899  0.2226 -0.8782  1.0619
  102CHL1   H1B13780   2.138   4.332   5.936 -1.7858  0.8419  3.0894
  102CHL1    C213781   2.115   4.203   6.108 -0.5140 -0.2037  0.2524
  102CHL1   H2A13782   2.218   4.235   6.134 -0.3175  0.3256 -1.0937
  102CHL1   H2B13783   2.091   4.097   6.132 -1.1673 -0.2469 -0.5244
  102CHL1   C2013784   1.995   4.279   5.182 -0.7208 -0.0563  0.3116
  102CHL1   H2013785   1.983   4.169   5.193  0.5629 -0.4864 -2.1051
  102CHL1   C2113786   2.142   4.314   5.170 -0.3424  0.5857 -0.4959
  102CHL1  H21A13787   2.191   4.228   5.119 -2.0812 -0.4613 -0.4713
  102CHL1  H21B13788   2.194   4.320   5.268  0.4133  3.1553 -0.9896
  102CHL1  H21C13789   2.158   4.405   5.108  1.6545  2.2294  2.2438
  102CHL1   C2213790   1.926   4.330   5.055  0.1325  0.9874  0.7154
  102CHL1  H22A13791   1.824   4.288   5.055  0.5176 -0.0307 -0.7137
  102CHL1  H22B13792   1.936   4.440   5.069 -0.1869  1.1012  0.0569
  102CHL1   C2313793   1.978   4.287   4.918 -0.8918 -0.4468  0.7217
  102CHL1  H23A13794   1.923   4.349   4.844  0.7663  1.9225  1.3428
  102CHL1  H23B13795   2.084   4.318   4.908 -0.7447 -0.6331  1.6203
  102CHL1   C2413796   1.989   4.135   4.879  0.4184 -0.5463 -0.5239
  102CHL1  H24A13797   2.040   4.079   4.960  1.4966  1.2398  0.1040
  102CHL1  H24B13798   1.884   4.100   4.873  0.9243 -2.2581  0.2838
  102CHL1   C2513799   2.057   4.102   4.739 -0.6739 -0.2407 -0.3340
  102CHL1   H2513800   2.152   4.159   4.734 -1.9019  1.8074 -2.6312
  102CHL1   C2613801   2.083   3.950   4.734  0.1142  0.1028  0.5156
  102CHL1  H26A13802   2.012   3.894   4.798 -2.3878  1.2075 -1.1698
  102CHL1  H26B13803   2.076   3.919   4.627 -0.7001  0.4259  0.4754
  102CHL1  H26C13804   2.189   3.924   4.759 -0.3842 -1.6000  0.9684
  102CHL1   C2713805   1.972   4.145   4.622 -0.2466  0.0392  0.4097
  102CHL1  H27A13806   1.981   4.256   4.627 -1.8113  0.1539  5.1725
  102CHL1  H27B13807   2.002   4.105   4.523  1.2390  0.3055  0.7223
  102CHL1  H27C13808   1.864   4.128   4.640 -0.6188  1.2592 -0.5079
  103CHL1    C313809   1.969   3.289   6.221  0.0809  0.5711  0.5460
  103CHL1    H313810   1.893   3.370   6.210  1.3893  1.7743  0.0579
  103CHL1    O313811   2.001   3.302   6.360  0.1098 -0.2108  0.0165
  103CHL1   H3'13812   2.035   3.390   6.374 -0.9834  0.0693  1.0806
  103CHL1    C413813   1.921   3.152   6.181 -0.0315  0.0786 -0.5791
  103CHL1   H4A13814   1.998   3.078   6.212 -1.3769 -0.4386  1.7762
  103CHL1   H4B13815   1.830   3.128   6.240 -0.8306  1.5798 -1.1759
  103CHL1    C513816   1.890   3.148   6.032 -0.3506 -0.5819  0.1206
  103CHL1    C613817   1.769   3.107   5.991  0.4232 -0.1241 -0.1431
  103CHL1    H613818   1.700   3.081   6.072  0.9685  0.5049  0.5398
  103CHL1    C713819   1.738   3.097   5.847  0.2192 -0.1524  0.6423
  103CHL1   H7A13820   1.686   3.000   5.830  0.0332 -0.1156  0.9846
  103CHL1   H7B13821   1.668   3.180   5.824 -1.3350 -1.5332  0.1995
  103CHL1    C813822   1.861   3.096   5.751  0.3715 -0.1645 -0.1919
  103CHL1    H813823   1.906   2.996   5.735 -0.2795 -0.5353  0.2403
  103CHL1   C1413824   1.805   3.126   5.612  0.1895 -0.0413 -0.2590
  103CHL1   H1413825   1.748   3.221   5.623  1.2066  0.7984 -1.8791
  103CHL1   C1513826   1.703   3.031   5.554  0.0728 -0.3469 -1.1624
  103CHL1  H15A13827   1.738   2.928   5.572  0.1707 -0.0842  0.2401
  103CHL1  H15B13828   1.607   3.043   5.609 -0.3520 -0.3678 -1.8729
  103CHL1   C1613829   1.707   3.073   5.403  0.2329  0.3661  0.2266
  103CHL1  H16A13830   1.714   2.985   5.335 -4.7344 -0.4564  0.3954
  103CHL1  H16B13831   1.611   3.125   5.383 -1.2857 -1.3834  2.5192
  103CHL1   C1713832   1.825   3.167   5.378 -0.0944 -0.4436  0.3629
  103CHL1   H1713833   1.785   3.270   5.379 -0.7937 -0.7156  0.4949
  103CHL1   C1313834   1.912   3.151   5.505  0.0477 -0.2483  0.7438
  103CHL1   C1813835   1.997   3.017   5.491 -0.1644 -0.1488  0.0802
  103CHL1  H18A13836   2.055   3.017   5.586 -0.8612  1.3822  0.5394
  103CHL1  H18B13837   1.943   2.921   5.475 -1.6791  0.3288  1.9389
  103CHL1  H18C13838   2.072   3.037   5.412 -0.0442 -2.5138 -0.5005
  103CHL1   C1213839   1.999   3.279   5.546 -1.0747 -0.3057 -0.4122
  103CHL1  H12A13840   2.077   3.310   5.474 -2.6800  1.3844 -1.5245
  103CHL1  H12B13841   1.935   3.368   5.562 -2.3959 -1.3912  0.5276
  103CHL1   C1113842   2.050   3.272   5.690 -0.4909  0.5119 -0.2844
  103CHL1  H11A13843   2.136   3.201   5.697 -0.2733  0.6494 -1.3379
  103CHL1  H11B13844   2.089   3.372   5.717 -1.7202  1.8040 -2.9125
  103CHL1    C913845   1.947   3.220   5.793  0.1063 -0.7047  0.3994
  103CHL1    H913846   1.873   3.303   5.798 -2.1992 -2.6971  1.4166
  103CHL1   C1013847   1.999   3.196   5.937 -0.1472 -0.3324  0.4341
  103CHL1   C1913848   2.119   3.093   5.936  0.3881  0.6361 -0.5019
  103CHL1  H19A13849   2.146   3.061   6.039 -1.3945 -0.5919 -0.3762
  103CHL1  H19B13850   2.110   3.002   5.873  5.0886 -0.7258  0.3711
  103CHL1  H19C13851   2.206   3.156   5.906  0.5225  0.7880  0.1989
  103CHL1    C113852   2.048   3.336   5.994 -0.4612 -0.1816  0.1584
  103CHL1   H1A13853   2.125   3.378   5.926  2.0565 -1.7479  1.8562
  103CHL1   H1B13854   1.963   3.408   5.988  0.9933  1.4512 -3.2318
  103CHL1    C213855   2.090   3.339   6.143 -0.7336  0.4942  0.0465
  103CHL1   H2A13856   2.129   3.441   6.164 -0.1053  0.7986 -2.2509
  103CHL1   H2B13857   2.175   3.268   6.155  0.1953  1.8429  2.0350
  103CHL1   C2013858   1.880   3.159   5.236  0.1444  0.4299 -0.0405
  103CHL1   H2013859   1.913   3.057   5.207  1.7525  1.6987 -3.0115
  103CHL1   C2113860   2.011   3.244   5.223  0.2283 -0.2824 -1.0427
  103CHL1  H21A13861   2.087   3.199   5.290  0.5303 -2.9247 -3.0083
  103CHL1  H21B13862   1.990   3.348   5.256 -3.9813 -1.1710 -0.3776
  103CHL1  H21C13863   2.051   3.246   5.119  0.7526  2.8332 -0.8874
  103CHL1   C2213864   1.783   3.197   5.123  0.9091 -0.3335  0.0390
  103CHL1  H22A13865   1.682   3.162   5.151  0.4638  1.5591  0.9968
  103CHL1  H22B13866   1.773   3.308   5.130  1.5173 -0.1935 -1.0718
  103CHL1   C2313867   1.826   3.166   4.982 -0.0409  0.2892  0.4049
  103CHL1  H23A13868   1.926   3.202   4.947  0.2884 -1.5617 -0.6572
  103CHL1  H23B13869   1.845   3.058   4.969 -1.9039  0.0405 -0.5377
  103CHL1   C2413870   1.737   3.227   4.864  0.2736 -0.5722  0.2717
  103CHL1  H24A13871   1.629   3.231   4.889  0.1577  1.6242 -0.3514
  103CHL1  H24B13872   1.767   3.330   4.835 -1.7587  0.1237  0.4953
  103CHL1   C2513873   1.733   3.135   4.745 -0.7426  0.4501 -0.4077
  103CHL1   H2513874   1.714   3.034   4.788  0.4605 -0.5975 -2.1658
  103CHL1   C2613875   1.612   3.164   4.650  0.0962 -0.4807  0.6122
  103CHL1  H26A13876   1.622   3.124   4.547  1.3697  1.0049  0.1190
  103CHL1  H26B13877   1.521   3.123   4.699 -0.7018  2.5207  1.9058
  103CHL1  H26C13878   1.598   3.274   4.652 -2.8438 -0.7378 -0.9226
  103CHL1   C2713879   1.867   3.148   4.676  0.2465 -0.6094  0.9042
  103CHL1  H27A13880   1.879   3.247   4.626  1.1548 -2.5609 -3.1592
  103CHL1  H27B13881   1.956   3.130   4.739  0.3496 -1.2320  0.5902
  103CHL1  H27C13882   1.877   3.079   4.589  0.4809  1.0527 -0.4443
  104CHL1    C313883   5.684   4.733   6.333  0.8836  0.5006 -0.7314
  104CHL1    H313884   5.576   4.762   6.331  0.7423  0.1828  0.8745
  104CHL1    O313885   5.724   4.771   6.466  0.1733  0.4031 -0.0389
  104CHL1   H3'13886   5.820   4.771   6.465  0.2838 -2.6262  1.0026
  104CHL1    C413887   5.701   4.584   6.295  0.6166 -1.2822  0.0040
  104CHL1   H4A13888   5.807   4.556   6.311  1.2313  0.5450 -0.6376
  104CHL1   H4B13889   5.652   4.526   6.376  1.4577  0.5470  1.9262
  104CHL1    C513890   5.659   4.558   6.148 -0.0464  0.6160 -1.1419
  104CHL1    C613891   5.567   4.459   6.131  0.0938 -0.2343 -0.7036
  104CHL1    H613892   5.534   4.397   6.217 -0.6229  0.9335 -0.1112
  104CHL1    C713893   5.510   4.412   6.002 -0.0513  0.1670 -0.8686
  104CHL1   H7A13894   5.531   4.304   5.992  0.4523  0.1456  0.2944
  104CHL1   H7B13895   5.399   4.420   6.004 -0.1214 -0.7855  0.2593
  104CHL1    C813896   5.575   4.484   5.888 -0.9758  0.0158 -0.0932
  104CHL1    H813897   5.668   4.428   5.863 -0.4673  1.3007 -1.2446
  104CHL1   C1413898   5.477   4.481   5.771  0.3090  0.5285  0.2422
  104CHL1   H1413899   5.395   4.540   5.817  0.3667 -0.0753  1.1446
  104CHL1   C1513900   5.418   4.344   5.732 -0.6342 -0.1164  0.0022
  104CHL1  H15A13901   5.496   4.265   5.724  0.0251  0.6806 -2.6284
  104CHL1  H15B13902   5.337   4.313   5.800 -0.7402 -1.2372 -0.6051
  104CHL1   C1613903   5.352   4.367   5.595 -0.4084 -0.2515  0.1555
  104CHL1  H16A13904   5.404   4.295   5.529  1.2176  3.2727 -2.7463
  104CHL1  H16B13905   5.241   4.357   5.590 -0.2146 -1.9819 -2.4360
  104CHL1   C1713906   5.395   4.514   5.555 -0.3981  0.5166  0.3615
  104CHL1   H1713907   5.314   4.580   5.594 -1.6352  0.6582 -2.2578
  104CHL1   C1313908   5.519   4.542   5.637 -0.0676 -0.3464  0.0712
  104CHL1   C1813909   5.649   4.474   5.581 -0.3427 -0.1039 -0.0605
  104CHL1  H18A13910   5.692   4.527   5.493  2.2098  0.3649  1.3576
  104CHL1  H18B13911   5.737   4.472   5.649 -0.3341  3.1499  0.1795
  104CHL1  H18C13912   5.618   4.369   5.559 -1.0883 -0.1892  1.3250
  104CHL1   C1213913   5.553   4.689   5.670  0.1911 -0.0359  0.0820
  104CHL1  H12A13914   5.600   4.742   5.585  0.7342  1.9902  1.5494
  104CHL1  H12B13915   5.462   4.748   5.691  0.8108  0.9581  0.0627
  104CHL1   C1113916   5.653   4.703   5.783  0.4873 -0.2720 -0.2592
  104CHL1  H11A13917   5.752   4.662   5.754  1.5409 -0.6608  3.4009
  104CHL1  H11B13918   5.672   4.809   5.811  0.7189 -0.4053  0.0930
  104CHL1    C913919   5.610   4.631   5.913 -0.4162  0.0581  0.5346
  104CHL1    H913920   5.516   4.681   5.943 -0.7143 -0.6637  0.8514
  104CHL1   C1013921   5.713   4.645   6.037 -0.1270 -0.0752  0.2125
  104CHL1   C1913922   5.853   4.607   5.999 -0.6382 -0.4174 -0.0800
  104CHL1  H19A13923   5.916   4.619   6.089 -1.0645 -0.0768  0.1754
  104CHL1  H19B13924   5.867   4.499   5.974  0.0290 -0.2736 -0.3356
  104CHL1  H19C13925   5.900   4.662   5.915  1.9147 -1.4250  0.6134
  104CHL1    C113926   5.702   4.795   6.085 -0.2649 -0.1533 -0.0409
  104CHL1   H1A13927   5.766   4.854   6.016  1.2458  0.7443  2.0471
  104CHL1   H1B13928   5.598   4.833   6.074 -1.1991 -2.4607  0.1205
  104CHL1    C213929   5.750   4.830   6.238 -0.1786  0.2633  0.4093
  104CHL1   H2A13930   5.717   4.935   6.252 -1.1160 -0.1031  1.0601
  104CHL1   H2B13931   5.861   4.835   6.239 -0.2178  1.2520  0.9157
  104CHL1   C2013932   5.400   4.531   5.403 -0.0343  0.5276 -0.2855
  104CHL1   H2013933   5.494   4.479   5.374  1.7034  1.4480  3.1745
  104CHL1   C2113934   5.415   4.681   5.369  0.8224  0.3236  0.0285
  104CHL1  H21A13935   5.515   4.719   5.398 -0.3443  4.2386 -0.4493
  104CHL1  H21B13936   5.337   4.734   5.428  0.8855  1.0896 -0.5603
  104CHL1  H21C13937   5.408   4.702   5.260 -2.0462  1.5732  0.3541
  104CHL1   C2213938   5.274   4.481   5.325  0.3985 -0.5158  0.2406
  104CHL1  H22A13939   5.245   4.375   5.340 -2.0771 -0.0590 -0.7445
  104CHL1  H22B13940   5.186   4.523   5.379  0.1319 -1.6986  0.7519
  104CHL1   C2313941   5.256   4.518   5.174 -0.0811  0.3561  0.1039
  104CHL1  H23A13942   5.216   4.622   5.176 -0.9873  0.0609 -1.2639
  104CHL1  H23B13943   5.350   4.514   5.116  0.0535  2.4403  0.0842
  104CHL1   C2413944   5.158   4.422   5.102  0.4279 -0.9624 -0.5174
  104CHL1  H24A13945   5.187   4.315   5.098  2.5396 -0.4214 -0.8857
  104CHL1  H24B13946   5.058   4.428   5.151  1.0520  1.4178  0.6309
  104CHL1   C2513947   5.124   4.475   4.958 -0.2335 -0.4790  0.0726
  104CHL1   H2513948   5.212   4.487   4.892 -0.2523  1.2018  0.3281
  104CHL1   C2613949   5.035   4.359   4.902  1.4637 -0.9108  0.4300
  104CHL1  H26A13950   4.992   4.384   4.802 -1.8463 -2.9021  1.1745
  104CHL1  H26B13951   5.090   4.263   4.894  0.2968 -1.6378  0.8962
  104CHL1  H26C13952   4.953   4.339   4.974  0.8287 -0.9404 -0.2797
  104CHL1   C2713953   5.039   4.608   4.972  0.0139 -0.2719  0.7623
  104CHL1  H27A13954   4.940   4.579   5.015  0.5683 -0.2777  2.0950
  104CHL1  H27B13955   5.074   4.689   5.040 -0.8092 -0.1549  1.0678
  104CHL1  H27C13956   5.023   4.637   4.866  1.1484  0.3737  0.7497
  105CHL1    C313957   6.494   3.359   6.845 -0.0472  0.0404 -0.2956
  105CHL1    H313958   6.504   3.256   6.805  2.4448 -0.0855  0.5052
  105CHL1    O313959   6.563   3.371   6.965 -0.6563  0.3614  0.8068
  105CHL1   H3'13960   6.528   3.304   7.024  1.5887 -0.5651  1.1902
  105CHL1    C413961   6.553   3.463   6.746  0.0654 -0.3884  0.1964
  105CHL1   H4A13962   6.546   3.560   6.800 -1.5939  0.0793 -0.7919
  105CHL1   H4B13963   6.661   3.438   6.734 -0.6208 -2.9004 -1.6534
  105CHL1    C513964   6.484   3.478   6.610  0.7376 -0.1896 -0.6487
  105CHL1    C613965   6.551   3.487   6.490 -0.6955 -0.7556 -0.4376
  105CHL1    H613966   6.660   3.495   6.491 -0.6265 -0.4838 -3.4601
  105CHL1    C713967   6.497   3.511   6.354  0.6713  0.3440 -0.0721
  105CHL1   H7A13968   6.544   3.603   6.312  0.7472  1.7704  2.9126
  105CHL1   H7B13969   6.508   3.423   6.287  1.9503  1.6792 -1.7442
  105CHL1    C813970   6.341   3.526   6.358  1.0102 -0.0879 -0.7742
  105CHL1    H813971   6.313   3.633   6.369  0.9061 -0.2089  0.2631
  105CHL1   C1413972   6.274   3.465   6.236 -0.0410  0.2230  0.6214
  105CHL1   H1413973   6.283   3.355   6.243  0.0271  0.2037  0.2653
  105CHL1   C1513974   6.338   3.505   6.100 -0.7511 -0.3645  0.8172
  105CHL1  H15A13975   6.368   3.612   6.109 -2.0834  0.0348  0.7048
  105CHL1  H15B13976   6.433   3.455   6.071 -0.0635  0.8464  0.8989
  105CHL1   C1613977   6.225   3.496   5.992 -0.0416  0.0072  0.8126
  105CHL1  H16A13978   6.202   3.600   5.963  1.0134 -0.3259 -1.4051
  105CHL1  H16B13979   6.256   3.429   5.909 -2.0821  1.2432 -1.0278
  105CHL1   C1713980   6.101   3.442   6.066  0.5162 -0.0880 -0.1800
  105CHL1   H1713981   6.104   3.331   6.060 -2.6160 -0.2273 -0.7801
  105CHL1   C1313982   6.124   3.484   6.216  0.6020 -0.4243 -0.5695
  105CHL1   C1813983   6.095   3.641   6.226  0.3875  0.1468 -0.7019
  105CHL1  H18A13984   6.147   3.696   6.145 -0.8951 -0.1223 -1.7431
  105CHL1  H18B13985   5.986   3.659   6.224  0.0623 -1.5184 -0.0203
  105CHL1  H18C13986   6.132   3.683   6.322  0.6470 -0.5868 -0.4661
  105CHL1   C1213987   6.045   3.416   6.337 -0.0188  0.4855  0.5136
  105CHL1  H12A13988   5.939   3.447   6.338 -0.2279 -0.1474 -0.4301
  105CHL1  H12B13989   6.063   3.306   6.342  1.8111  0.6832 -0.6299
  105CHL1   C1113990   6.112   3.467   6.468  0.0092 -0.0081 -0.2988
  105CHL1  H11A13991   6.089   3.572   6.499 -0.0347 -0.1406  0.1241
  105CHL1  H11B13992   6.075   3.405   6.552  0.8525  0.9035  0.7907
  105CHL1    C913993   6.271   3.456   6.479  0.1205  0.4129  0.1091
  105CHL1    H913994   6.288   3.347   6.466 -0.3962  0.2624  0.6581
  105CHL1   C1013995   6.331   3.487   6.621 -0.3053 -0.0292 -0.2984
  105CHL1   C1913996   6.286   3.627   6.673  0.1900  0.5626  0.1596
  105CHL1  H19A13997   6.295   3.704   6.593  0.4777 -0.0630 -0.4189
  105CHL1  H19B13998   6.177   3.627   6.698 -0.0425 -1.4969 -0.6937
  105CHL1  H19C13999   6.349   3.669   6.754  0.2986 -2.3907  1.7061
  105CHL1    C114000   6.272   3.397   6.733 -0.0477 -0.3801  0.7380
  105CHL1   H1A14001   6.167   3.425   6.753 -0.3293 -0.0858 -1.0025
  105CHL1   H1B14002   6.269   3.293   6.694 -0.0942  0.0855 -0.5471
  105CHL1    C214003   6.348   3.396   6.864  0.1557  0.1058 -1.0532
  105CHL1   H2A14004   6.304   3.328   6.940 -0.6201  2.3159  0.6145
  105CHL1   H2B14005   6.340   3.498   6.909  1.2103 -0.1810 -0.1889
  105CHL1   C2014006   5.968   3.486   6.000 -0.0794 -0.0122 -0.0573
  105CHL1   H2014007   5.960   3.597   6.004 -2.9132 -0.1755  1.7465
  105CHL1   C2114008   5.841   3.425   6.075 -0.3536 -0.0045  0.5109
  105CHL1  H21A14009   5.834   3.472   6.175  2.7954 -0.6947  1.1512
  105CHL1  H21B14010   5.862   3.316   6.087  0.4183  0.1284  0.4187
  105CHL1  H21C14011   5.753   3.442   6.010 -1.5906 -0.3744  2.0157
  105CHL1   C2214012   5.965   3.450   5.848 -0.4029  0.1775 -0.1112
  105CHL1  H22A14013   5.873   3.486   5.797  0.3034  2.0244 -0.1756
  105CHL1  H22B14014   6.050   3.499   5.795  0.4766  0.5542  1.5883
  105CHL1   C2314015   5.980   3.302   5.818  0.4039  0.5749  0.1491
  105CHL1  H23A14016   6.082   3.270   5.849 -0.4034 -2.3868  0.0996
  105CHL1  H23B14017   5.914   3.245   5.887  0.1761 -1.6102 -1.7300
  105CHL1   C2414018   5.950   3.273   5.670 -0.0475 -0.2242 -0.6914
  105CHL1  H24A14019   5.854   3.328   5.655  0.2083 -0.0875 -1.9384
  105CHL1  H24B14020   6.020   3.313   5.593  0.2349 -0.1295 -0.3847
  105CHL1   C2514021   5.925   3.127   5.649 -0.6072 -0.2452 -0.2251
  105CHL1   H2514022   5.863   3.080   5.728  1.0279 -0.9974  0.6492
  105CHL1   C2614023   5.857   3.099   5.518 -0.2019  0.0856  0.6457
  105CHL1  H26A14024   5.759   3.152   5.509 -0.0758  0.4872  1.5486
  105CHL1  H26B14025   5.923   3.135   5.436 -1.1987  0.0721 -0.1941
  105CHL1  H26C14026   5.828   2.993   5.500  0.1282  0.0259  0.4637
  105CHL1   C2714027   6.050   3.032   5.658 -0.1629 -0.2596  0.0004
  105CHL1  H27A14028   6.133   3.050   5.587 -0.6708  1.6652 -0.1670
  105CHL1  H27B14029   6.090   3.033   5.761  0.3713 -2.6972 -0.1394
  105CHL1  H27C14030   6.015   2.928   5.644 -1.4972  0.0838  0.6262
  106CHL1    C314031   2.351   1.193   6.374 -0.6747  0.6432  0.4511
  106CHL1    H314032   2.240   1.185   6.382 -0.4521 -1.1439  3.1912
  106CHL1    O314033   2.415   1.211   6.503 -0.2850 -0.5903  0.3768
  106CHL1   H3'14034   2.449   1.301   6.504 -1.1231 -0.2619  0.0509
  106CHL1    C414035   2.412   1.069   6.306  0.3591  0.9571  0.2775
  106CHL1   H4A14036   2.520   1.092   6.302  0.5404  0.8506  2.7384
  106CHL1   H4B14037   2.418   0.974   6.363 -0.1240  0.6439 -0.1784
  106CHL1    C514038   2.361   1.050   6.159 -0.2194 -0.6922  0.0998
  106CHL1    C614039   2.306   0.939   6.126  0.5280 -0.8220  0.1714
  106CHL1    H614040   2.307   0.860   6.202  2.6503 -0.6556  0.3633
  106CHL1    C714041   2.254   0.906   5.984 -0.1869  0.4400 -0.6584
  106CHL1   H7A14042   2.299   0.814   5.942 -0.6594 -0.5251  0.8619
  106CHL1   H7B14043   2.144   0.894   5.978 -0.2332  1.0020 -1.0846
  106CHL1    C814044   2.286   1.021   5.889  0.2648  0.1303  0.1814
  106CHL1    H814045   2.392   1.010   5.857  0.7013 -2.2915  2.1864
  106CHL1   C1414046   2.199   1.009   5.763  0.5325 -0.0221 -0.1661
  106CHL1   H1414047   2.093   1.016   5.795  0.6689 -0.2416  0.3445
  106CHL1   C1514048   2.199   0.874   5.697 -0.5496 -0.2270 -1.0096
  106CHL1  H15A14049   2.303   0.837   5.682  0.2003  0.9593  0.9543
  106CHL1  H15B14050   2.138   0.797   5.748 -0.1270  0.7751  1.1170
  106CHL1   C1614051   2.132   0.902   5.560 -0.5765 -0.5618 -0.2091
  106CHL1  H16A14052   2.200   0.857   5.484 -0.2838  0.2229 -0.4281
  106CHL1  H16B14053   2.028   0.863   5.562  0.1790 -2.6752 -0.0426
  106CHL1   C1714054   2.118   1.059   5.551 -0.0141 -0.0646  0.0169
  106CHL1   H1714055   2.011   1.080   5.574 -0.3733  3.0817 -3.5832
  106CHL1   C1314056   2.217   1.116   5.652 -0.0150  0.3481  0.5790
  106CHL1   C1814057   2.356   1.104   5.599  0.3520  0.2896  0.3495
  106CHL1  H18A14058   2.362   1.181   5.519 -0.9071 -0.9306 -0.9841
  106CHL1  H18B14059   2.427   1.121   5.683  0.9274 -0.1276 -0.0457
  106CHL1  H18C14060   2.374   1.014   5.536  1.2278 -0.1973  1.2620
  106CHL1   C1214061   2.178   1.250   5.722  0.3205 -0.2377 -0.6282
  106CHL1  H12A14062   2.184   1.335   5.651  1.8208  0.7121  0.5648
  106CHL1  H12B14063   2.073   1.233   5.752  0.7443 -2.0097 -0.0371
  106CHL1   C1114064   2.270   1.272   5.841  0.3362  0.1006  0.1471
  106CHL1  H11A14065   2.374   1.280   5.804  0.4627 -0.7457  0.3124
  106CHL1  H11B14066   2.246   1.364   5.898  0.4080 -1.0226  2.0913
  106CHL1    C914067   2.265   1.163   5.953  0.2747 -0.9868  0.4690
  106CHL1    H914068   2.160   1.166   5.990 -0.0188 -1.7360 -0.2774
  106CHL1   C1014069   2.360   1.181   6.074  0.4304  0.1682  0.2971
  106CHL1   C1914070   2.505   1.212   6.021  0.2631  0.1573 -0.2012
  106CHL1  H19A14071   2.512   1.308   5.966  0.3943 -0.8669 -2.0875
  106CHL1  H19B14072   2.577   1.207   6.105  0.6775  0.7998 -0.5101
  106CHL1  H19C14073   2.538   1.136   5.947  1.6118  1.7118 -1.2473
  106CHL1    C114074   2.310   1.308   6.156 -0.1025 -1.0842  0.2397
  106CHL1   H1A14075   2.332   1.397   6.092  0.5372 -0.6958  0.9838
  106CHL1   H1B14076   2.202   1.304   6.180  0.1465 -1.8739  1.2756
  106CHL1    C214077   2.383   1.320   6.292  0.9593  0.1819  0.4598
  106CHL1   H2A14078   2.338   1.412   6.336  0.4103  0.5153 -0.7393
  106CHL1   H2B14079   2.493   1.329   6.280  0.9574 -0.7893 -0.4412
  106CHL1   C2014080   2.110   1.106   5.400 -0.5266  0.2566 -0.3476
  106CHL1   H2014081   2.215   1.113   5.365 -0.9617  0.1147 -1.7232
  106CHL1   C2114082   2.049   1.250   5.389 -0.1254 -0.1290  0.2278
  106CHL1  H21A14083   2.050   1.274   5.280 -1.6704 -1.7204 -0.1744
  106CHL1  H21B14084   2.108   1.332   5.436  0.1360  0.8230 -1.6564
  106CHL1  H21C14085   1.941   1.257   5.413 -0.9497 -2.0640 -2.4161
  106CHL1   C2214086   2.035   1.000   5.310  0.1542 -0.2123  0.1234
  106CHL1  H22A14087   2.025   1.051   5.212 -0.2060  0.2619  0.4026
  106CHL1  H22B14088   2.084   0.901   5.302 -0.5480 -0.5537 -0.1141
  106CHL1   C2314089   1.888   0.975   5.350 -0.1506 -0.1054 -0.2381
  106CHL1  H23A14090   1.885   0.914   5.443  1.3861  0.5988  0.3065
  106CHL1  H23B14091   1.826   1.067   5.358  0.6172  0.2205  3.3614
  106CHL1   C2414092   1.821   0.877   5.248 -0.0855 -0.1354  0.0519
  106CHL1  H24A14093   1.811   0.921   5.147 -0.7358  3.3411  1.5024
  106CHL1  H24B14094   1.882   0.784   5.255 -0.0893 -0.0857  0.8442
  106CHL1   C2514095   1.682   0.834   5.286 -0.2500  0.3521 -0.3432
  106CHL1   H2514096   1.668   0.864   5.392  3.8312 -0.3852  0.5487
  106CHL1   C2614097   1.570   0.892   5.202 -0.0484 -0.8611 -0.8923
  106CHL1  H26A14098   1.596   0.869   5.097  4.4389 -2.0498  0.2448
  106CHL1  H26B14099   1.477   0.836   5.226 -0.2442 -0.9463 -1.8289
  106CHL1  H26C14100   1.571   1.002   5.217  2.3483 -0.7608 -1.4921
  106CHL1   C2714101   1.669   0.683   5.291 -0.1013  0.2638  0.6926
  106CHL1  H27A14102   1.673   0.631   5.193 -1.2421 -0.5619  1.0713
  106CHL1  H27B14103   1.741   0.637   5.362  0.5321 -1.7852 -1.1622
  106CHL1  H27C14104   1.570   0.656   5.332 -0.5604 -0.2565 -0.6830
  107CHL1    C314105   2.864   5.952   6.341  0.1761  0.0173  0.3498
  107CHL1    H314106   2.755   5.929   6.333  0.1787 -0.7273  2.0004
  107CHL1    O314107   2.897   5.927   6.476  0.0390 -0.0554 -0.0607
  107CHL1   H3'14108   2.979   5.974   6.489  0.2423 -0.9292  2.0472
  107CHL1    C414109   2.944   5.850   6.259  0.1936  0.2442 -0.1781
  107CHL1   H4A14110   3.054   5.864   6.267 -0.0149  1.1032  1.7346
  107CHL1   H4B14111   2.919   5.748   6.294  0.2253 -0.3440 -1.8063
  107CHL1    C514112   2.895   5.874   6.118 -0.0414  0.0011  0.6496
  107CHL1    C614113   2.857   5.770   6.045  0.8235  0.1449 -0.8938
  107CHL1    H614114   2.845   5.676   6.102 -4.2014  1.7745  1.3051
  107CHL1    C714115   2.817   5.760   5.900 -0.6182 -0.1957 -0.2780
  107CHL1   H7A14116   2.870   5.680   5.845  0.0606 -0.3207  0.5267
  107CHL1   H7B14117   2.708   5.746   5.911 -0.9231  2.1394  0.2622
  107CHL1    C814118   2.840   5.900   5.831 -0.5556  0.5823 -0.0435
  107CHL1    H814119   2.945   5.909   5.796 -0.5014 -2.8150 -1.1529
  107CHL1   C1414120   2.743   5.922   5.717 -0.3865 -0.0777 -0.3422
  107CHL1   H1414121   2.642   5.914   5.764  0.0685 -0.1917  0.6367
  107CHL1   C1514122   2.745   5.814   5.607 -0.1072 -0.0386  0.1783
  107CHL1  H15A14123   2.847   5.787   5.571  0.0549 -0.7000  1.1000
  107CHL1  H15B14124   2.699   5.723   5.651 -1.1669 -0.1334 -1.0535
  107CHL1   C1614125   2.675   5.883   5.490 -0.5549 -0.0631 -0.0862
  107CHL1  H16A14126   2.748   5.884   5.407 -0.7052 -0.5859 -0.2300
  107CHL1  H16B14127   2.582   5.826   5.466 -2.8289  3.5624 -0.6022
  107CHL1   C1714128   2.638   6.026   5.534 -0.2230 -0.1881 -0.3436
  107CHL1   H1714129   2.537   6.020   5.581 -0.9343 -1.1905 -1.9353
  107CHL1   C1314130   2.744   6.056   5.645  0.0213  0.0415 -0.1873
  107CHL1   C1814131   2.883   6.080   5.578  0.1939 -0.0539 -0.4021
  107CHL1  H18A14132   2.903   6.001   5.503 -0.9469 -0.7332 -0.0303
  107CHL1  H18B14133   2.884   6.179   5.528  1.3844 -0.5597 -1.3958
  107CHL1  H18C14134   2.960   6.081   5.658  0.7558  2.8630 -0.8668
  107CHL1   C1214135   2.698   6.161   5.747  0.5240  0.1246 -0.2612
  107CHL1  H12A14136   2.697   6.262   5.701  0.3480 -0.8989 -2.6152
  107CHL1  H12B14137   2.593   6.134   5.773  0.4297 -0.5491 -1.2812
  107CHL1   C1114138   2.800   6.158   5.866  0.7599 -0.1052  0.4894
  107CHL1  H11A14139   2.904   6.176   5.829 -0.2346 -0.4424 -2.7317
  107CHL1  H11B14140   2.771   6.239   5.936 -1.0647 -0.9844  0.7917
  107CHL1    C914141   2.803   6.016   5.930 -0.5468  0.2429 -0.4247
  107CHL1    H914142   2.700   5.995   5.966 -0.1943 -1.6748 -0.4413
  107CHL1   C1014143   2.896   6.008   6.057  0.0779 -0.6848  0.4848
  107CHL1   C1914144   3.046   6.045   6.023  0.3793  0.6599 -0.6261
  107CHL1  H19A14145   3.052   6.141   5.968 -1.7082  0.5404 -1.1629
  107CHL1  H19B14146   3.107   6.042   6.116  0.6514 -1.4215 -0.8219
  107CHL1  H19C14147   3.071   5.967   5.948 -0.6998 -0.0736 -0.2609
  107CHL1    C114148   2.838   6.110   6.161 -0.3171  0.4185  0.5770
  107CHL1   H1A14149   2.865   6.212   6.127  1.2460  0.0819  0.7110
  107CHL1   H1B14150   2.728   6.100   6.161 -0.2179 -0.9846  0.9419
  107CHL1    C214151   2.891   6.094   6.300 -0.1254  0.4066 -0.8509
  107CHL1   H2A14152   2.848   6.164   6.375  1.0363  0.7250 -0.4441
  107CHL1   H2B14153   3.000   6.111   6.314 -0.3637  0.7435  0.8889
  107CHL1   C2014154   2.629   6.114   5.413  0.7070  0.3480  0.0942
  107CHL1   H2014155   2.728   6.139   5.369  1.4962  2.1630  2.6440
  107CHL1   C2114156   2.571   6.246   5.453 -0.8808 -0.2380 -0.2216
  107CHL1  H21A14157   2.656   6.302   5.497  0.0309 -1.7421  0.0189
  107CHL1  H21B14158   2.484   6.242   5.522  0.3609 -1.6303  1.3506
  107CHL1  H21C14159   2.542   6.308   5.365  1.4593  0.7070 -0.4077
  107CHL1   C2214160   2.540   6.049   5.290  0.2680  0.4443 -0.4960
  107CHL1  H22A14161   2.580   5.949   5.264  2.3285  0.7640  1.2379
  107CHL1  H22B14162   2.437   6.023   5.320  0.9472  0.1251  1.6755
  107CHL1   C2314163   2.549   6.124   5.153 -0.4264 -0.0572 -0.1850
  107CHL1  H23A14164   2.465   6.196   5.139 -2.5541 -2.5901 -1.3934
  107CHL1  H23B14165   2.633   6.196   5.163  0.2704 -0.8603 -0.1522
  107CHL1   C2414166   2.567   6.026   5.042 -0.5244  0.4570  0.3884
  107CHL1  H24A14167   2.658   5.969   5.071 -0.1850  1.4817  1.3962
  107CHL1  H24B14168   2.494   5.943   5.033  2.0156 -2.0514  1.0399
  107CHL1   C2514169   2.589   6.073   4.894 -0.0010 -0.6710 -0.1203
  107CHL1   H2514170   2.637   6.173   4.898 -2.9942  0.9517 -1.4028
  107CHL1   C2614171   2.684   5.984   4.812  0.1117  0.6814  0.1320
  107CHL1  H26A14172   2.654   5.878   4.825  0.0291  0.0362 -3.9001
  107CHL1  H26B14173   2.687   6.003   4.702  1.3286 -0.5331 -0.0732
  107CHL1  H26C14174   2.788   5.991   4.848  1.0055 -2.3942 -1.5429
  107CHL1   C2714175   2.459   6.103   4.820 -0.7405  0.6025 -0.2982
  107CHL1  H27A14176   2.491   6.137   4.719 -0.6727  2.2544  0.2497
  107CHL1  H27B14177   2.395   6.015   4.798 -2.3273  1.8204 -0.7262
  107CHL1  H27C14178   2.408   6.188   4.869  3.0735  1.9037  1.7992
  108CHL1    C314179   5.506   2.825   6.895 -0.8094  0.4628 -0.2312
  108CHL1    H314180   5.407   2.873   6.881 -0.9495  0.5622  0.9873
  108CHL1    O314181   5.552   2.863   7.029  0.0547  0.5315  0.0191
  108CHL1   H3'14182   5.633   2.813   7.039 -0.1816  0.0935 -0.2172
  108CHL1    C414183   5.493   2.673   6.891 -0.2319  0.0597 -0.5465
  108CHL1   H4A14184   5.590   2.626   6.919  0.4315  2.5326  1.7220
  108CHL1   H4B14185   5.423   2.643   6.972  1.1056  0.1993  0.6989
  108CHL1    C514186   5.444   2.623   6.756 -0.3248  0.6950 -0.6436
  108CHL1    C614187   5.329   2.560   6.740  0.0175  0.0661  0.0360
  108CHL1    H614188   5.265   2.530   6.824  0.4244 -1.6455 -0.2270
  108CHL1    C714189   5.281   2.512   6.600 -0.6351  0.5974 -0.3329
  108CHL1   H7A14190   5.244   2.408   6.606 -0.5564  0.6481  2.1943
  108CHL1   H7B14191   5.193   2.567   6.560 -2.3072 -1.1326  0.8208
  108CHL1    C814192   5.406   2.505   6.494  0.2748  0.1092 -0.5957
  108CHL1    H814193   5.479   2.426   6.522  2.0979  0.7565 -3.1183
  108CHL1   C1414194   5.357   2.486   6.354 -0.4437  0.1774  0.2690
  108CHL1   H1414195   5.310   2.582   6.325  0.2073  0.8870  1.4647
  108CHL1   C1514196   5.254   2.379   6.328 -0.9647 -0.6692  0.8257
  108CHL1  H15A14197   5.277   2.279   6.369  0.6329 -0.1911  1.1896
  108CHL1  H15B14198   5.152   2.418   6.348 -1.1844  0.1824 -1.5887
  108CHL1   C1614199   5.265   2.357   6.174  0.0668 -0.2924 -0.2197
  108CHL1  H16A14200   5.301   2.253   6.161 -0.9351 -1.0205  2.2324
  108CHL1  H16B14201   5.169   2.366   6.119 -0.2885  1.3225  0.6058
  108CHL1   C1714202   5.378   2.446   6.119 -0.2528  0.5357  0.0716
  108CHL1   H1714203   5.337   2.543   6.081  0.4467  0.7523 -0.1526
  108CHL1   C1314204   5.461   2.475   6.245 -0.1670  0.2554 -0.0053
  108CHL1   C1814205   5.547   2.353   6.267 -0.7458  0.4887  0.0851
  108CHL1  H18A14206   5.492   2.262   6.234  0.9365 -0.3144 -0.6103
  108CHL1  H18B14207   5.634   2.358   6.198 -1.2709  0.7747 -0.5631
  108CHL1  H18C14208   5.595   2.331   6.365  2.4423 -2.5613 -1.9103
  108CHL1   C1214209   5.545   2.607   6.243  0.8982  0.1445 -0.4647
  108CHL1  H12A14210   5.636   2.606   6.178  2.0150  1.8839  0.9743
  108CHL1  H12B14211   5.480   2.686   6.199  0.2788 -0.1350 -0.0551
  108CHL1   C1114212   5.597   2.634   6.384 -0.1173 -0.8533 -0.0428
  108CHL1  H11A14213   5.679   2.563   6.408 -1.5538 -1.8835  2.1466
  108CHL1  H11B14214   5.639   2.738   6.387 -0.3672 -0.7619  1.6331
  108CHL1    C914215   5.490   2.632   6.487 -0.0355 -0.4748 -0.4898
  108CHL1    H914216   5.413   2.710   6.467 -0.6346 -0.6058  1.0860
  108CHL1   C1014217   5.543   2.653   6.636  0.4917  0.2666  0.2358
  108CHL1   C1914218   5.683   2.582   6.656 -0.0025 -0.6693 -0.3699
  108CHL1  H19A14219   5.723   2.586   6.760  1.3605  1.7784 -0.8873
  108CHL1  H19B14220   5.668   2.475   6.634 -2.0549 -0.8233  1.4133
  108CHL1  H19C14221   5.769   2.623   6.598  2.7823 -4.0724  0.9552
  108CHL1    C114222   5.561   2.810   6.652  0.6193 -0.0214  0.4133
  108CHL1   H1A14223   5.641   2.849   6.585  0.8602 -2.8575 -1.1052
  108CHL1   H1B14224   5.467   2.862   6.626  0.3563  0.2481  1.7929
  108CHL1    C214225   5.606   2.861   6.791 -0.4182 -0.3128 -0.3491
  108CHL1   H2A14226   5.607   2.972   6.785 -0.0158 -0.3340 -0.7662
  108CHL1   H2B14227   5.708   2.833   6.825  0.0164  1.4457 -0.1062
  108CHL1   C2014228   5.454   2.392   5.990 -0.3976  0.9233 -0.7888
  108CHL1   H2014229   5.503   2.297   6.019 -0.1091  1.6686  1.3496
  108CHL1   C2114230   5.578   2.479   5.938 -0.1945  0.2964 -0.1326
  108CHL1  H21A14231   5.639   2.483   6.031 -2.2511 -1.5804  1.4153
  108CHL1  H21B14232   5.547   2.582   5.913 -2.1250  0.0583  1.0602
  108CHL1  H21C14233   5.623   2.413   5.861  0.5984  1.5986 -0.7996
  108CHL1   C2214234   5.353   2.380   5.871  0.2629  0.2988 -0.0738
  108CHL1  H22A14235   5.262   2.329   5.908  1.5317 -0.4514  2.1889
  108CHL1  H22B14236   5.317   2.480   5.838  0.7905  0.6521  0.4228
  108CHL1   C2314237   5.393   2.288   5.753  0.1717  0.3547  0.0661
  108CHL1  H23A14238   5.493   2.330   5.730 -0.3098  1.8635  0.5963
  108CHL1  H23B14239   5.415   2.190   5.802  2.8956  1.1265  0.5300
  108CHL1   C2414240   5.294   2.275   5.632  0.4055 -0.2658 -0.0964
  108CHL1  H24A14241   5.241   2.371   5.617 -0.4658 -0.9257 -1.4101
  108CHL1  H24B14242   5.359   2.272   5.542  0.2632 -4.6821 -0.2854
  108CHL1   C2514243   5.188   2.163   5.629  0.6206 -0.2194 -0.2205
  108CHL1   H2514244   5.244   2.069   5.608 -0.0482 -0.3638 -1.4195
  108CHL1   C2614245   5.109   2.141   5.756 -0.0356  0.0212 -0.4826
  108CHL1  H26A14246   5.058   2.042   5.752  0.3631 -0.2597  0.7398
  108CHL1  H26B14247   5.162   2.145   5.854 -2.1205 -0.0824  0.7303
  108CHL1  H26C14248   5.031   2.219   5.764 -0.6441 -0.5477 -0.7851
  108CHL1   C2714249   5.088   2.180   5.515 -0.5197  0.0621 -0.3270
  108CHL1  H27A14250   5.136   2.176   5.416 -0.7968  2.1663 -0.5928
  108CHL1  H27B14251   5.006   2.105   5.512 -1.3176  0.9078 -0.2633
  108CHL1  H27C14252   5.044   2.281   5.532 -0.9186 -0.1254 -0.2329
  109CHL1    C314253   2.299   5.896   6.513  0.2053 -0.3287 -0.8607
  109CHL1    H314254   2.188   5.891   6.516  0.2407 -0.6661  0.0069
  109CHL1    O314255   2.349   5.912   6.643 -0.3201  0.4591  0.2897
  109CHL1   H3'14256   2.441   5.927   6.620 -0.8310  0.8785 -1.6077
  109CHL1    C414257   2.336   5.760   6.456  0.4250 -0.9584  0.1732
  109CHL1   H4A14258   2.446   5.746   6.461  0.5842  0.4212  1.3005
  109CHL1   H4B14259   2.300   5.683   6.527  2.8207  0.4102  3.0732
  109CHL1    C514260   2.295   5.735   6.312 -0.5186 -0.4221 -0.0711
  109CHL1    C614261   2.234   5.623   6.273 -0.1977 -0.4788 -0.3684
  109CHL1    H614262   2.208   5.547   6.347  0.9749  1.1018  1.7971
  109CHL1    C714263   2.191   5.601   6.124 -0.1363  0.6819 -0.4471
  109CHL1   H7A14264   2.210   5.501   6.081  0.4860 -0.3552  2.0293
  109CHL1   H7B14265   2.081   5.621   6.127 -0.3883 -0.4188 -1.4658
  109CHL1    C814266   2.254   5.696   6.025 -0.5010 -0.5551 -0.0747
  109CHL1    H814267   2.358   5.662   6.005 -1.2717 -2.8148 -0.5478
  109CHL1   C1414268   2.180   5.694   5.890  0.4025 -0.1228  0.5161
  109CHL1   H1414269   2.081   5.736   5.918  0.7905  1.5283 -0.4448
  109CHL1   C1514270   2.167   5.565   5.817  0.5852  0.1358 -0.4127
  109CHL1  H15A14271   2.261   5.506   5.824 -0.2901 -1.1761  0.9798
  109CHL1  H15B14272   2.097   5.492   5.863  0.0555 -0.9943 -2.8756
  109CHL1   C1614273   2.128   5.597   5.674 -1.0670  0.1397 -0.5912
  109CHL1  H16A14274   2.204   5.550   5.608  0.1876 -2.0940  2.2542
  109CHL1  H16B14275   2.031   5.559   5.634 -1.5835 -1.0638  1.6262
  109CHL1   C1714276   2.126   5.748   5.663  0.8569  0.1214 -0.2036
  109CHL1   H1714277   2.027   5.791   5.689  0.4955  1.1403 -2.9215
  109CHL1   C1314278   2.224   5.794   5.783 -0.1338 -0.3384 -0.1992
  109CHL1   C1814279   2.374   5.763   5.740  0.1719 -0.2055 -0.2430
  109CHL1  H18A14280   2.414   5.834   5.664 -1.8120  0.6619 -0.5533
  109CHL1  H18B14281   2.445   5.783   5.823 -1.5953  1.9939  0.8363
  109CHL1  H18C14282   2.383   5.656   5.710 -5.5284 -0.7222 -1.3325
  109CHL1   C1214283   2.212   5.941   5.841  0.1153 -0.8083  0.0276
  109CHL1  H12A14284   2.241   6.029   5.779 -1.9160  1.3673  1.9220
  109CHL1  H12B14285   2.107   5.961   5.873  0.5987  3.5194 -0.5073
  109CHL1   C1114286   2.293   5.952   5.971  0.1865 -0.4818 -1.0345
  109CHL1  H11A14287   2.401   5.935   5.953  0.3568 -1.5689  0.7765
  109CHL1  H11B14288   2.271   6.053   6.011 -0.6744 -1.0063 -0.1376
  109CHL1    C914289   2.257   5.844   6.081  0.7554 -0.6813  0.6691
  109CHL1    H914290   2.149   5.862   6.104  1.0507  0.5426  1.1813
  109CHL1   C1014291   2.330   5.856   6.218 -0.4966 -0.8205 -0.0261
  109CHL1   C1914292   2.487   5.857   6.197  0.0547  0.2228 -0.2354
  109CHL1  H19A14293   2.512   5.770   6.133 -0.8060 -0.1717 -0.0445
  109CHL1  H19B14294   2.510   5.952   6.144 -1.5861  1.5394  1.2883
  109CHL1  H19C14295   2.544   5.858   6.293  0.4147 -1.7522 -0.3881
  109CHL1    C114296   2.280   5.988   6.282 -0.3627 -0.2985 -0.5627
  109CHL1   H1A14297   2.303   6.083   6.229  0.6263  0.3869  1.0144
  109CHL1   H1B14298   2.169   5.991   6.288 -0.3307  0.9763 -0.2059
  109CHL1    C214299   2.349   6.008   6.417 -0.1385  0.0347  0.2141
  109CHL1   H2A14300   2.310   6.108   6.447 -1.8017  0.1069 -1.9920
  109CHL1   H2B14301   2.458   6.020   6.402 -0.2530  1.2096  0.2240
  109CHL1   C2014302   2.154   5.800   5.527 -0.6991  0.0745 -0.5940
  109CHL1   H2014303   2.257   5.770   5.497 -0.6578  0.2143 -0.5929
  109CHL1   C2114304   2.149   5.956   5.514 -0.0432 -0.1722  0.0869
  109CHL1  H21A14305   2.241   5.990   5.567 -0.8827 -0.0572  1.5095
  109CHL1  H21B14306   2.058   5.996   5.563  0.5512 -0.1817  1.2325
  109CHL1  H21C14307   2.157   5.999   5.412  1.2480 -0.9889 -0.1785
  109CHL1   C2214308   2.063   5.725   5.425  0.1381 -0.3038 -0.1420
  109CHL1  H22A14309   2.088   5.617   5.427  1.4557 -0.0043  0.1496
  109CHL1  H22B14310   1.958   5.740   5.459  0.0321 -1.1957 -0.0665
  109CHL1   C2314311   2.065   5.774   5.286 -0.3654 -0.4424 -0.1296
  109CHL1  H23A14312   2.017   5.872   5.265 -0.2626 -0.2772  0.3918
  109CHL1  H23B14313   2.171   5.785   5.256  0.0136 -1.7748  0.6583
  109CHL1   C2414314   1.997   5.663   5.199 -0.0997  0.3565  0.1162
  109CHL1  H24A14315   2.054   5.568   5.211 -0.9701  0.0289  1.9153
  109CHL1  H24B14316   1.891   5.650   5.227 -0.3547  2.5960  0.3604
  109CHL1   C2514317   2.005   5.710   5.054 -0.1430  0.3828 -0.5284
  109CHL1   H2514318   1.928   5.789   5.045 -0.0820  0.8038  1.9142
  109CHL1   C2614319   2.143   5.767   5.012  0.0985  0.9144  0.2388
  109CHL1  H26A14320   2.148   5.869   5.055 -4.3172  1.2261  0.4823
  109CHL1  H26B14321   2.224   5.703   5.053 -1.6833 -0.9527  1.0376
  109CHL1  H26C14322   2.149   5.769   4.902  0.3623  1.1280  0.2574
  109CHL1   C2714323   1.960   5.600   4.955 -0.2796  0.1069  0.5851
  109CHL1  H27A14324   1.854   5.568   4.951  0.7668 -3.7809 -0.8176
  109CHL1  H27B14325   1.986   5.629   4.851 -0.5035  3.2407  1.3131
  109CHL1  H27C14326   2.006   5.502   4.978  1.1288  0.9825  1.7135
  110CHL1    C314327   0.547   5.276   6.487 -0.2109  0.1560  0.8793
  110CHL1    H314328   0.539   5.173   6.446  0.1068  0.4875 -0.0452
  110CHL1    O314329   0.491   5.263   6.616  0.6639  0.1088 -0.2926
  110CHL1   H3'14330   0.531   5.337   6.663  0.2641  0.8457 -1.0799
  110CHL1    C414331   0.700   5.300   6.484 -0.2898  0.0515 -0.9261
  110CHL1   H4A14332   0.719   5.394   6.541  0.0130 -0.5766  0.0373
  110CHL1   H4B14333   0.746   5.217   6.541 -1.4815  1.5513  2.5099
  110CHL1    C514334   0.744   5.296   6.337  0.9698 -0.0307  0.3363
  110CHL1    C614335   0.842   5.211   6.294  0.0589  0.0087  0.4065
  110CHL1    H614336   0.915   5.163   6.359 -0.4159 -0.6027  0.5004
  110CHL1    C714337   0.890   5.200   6.154  0.3651  0.3733 -0.1396
  110CHL1   H7A14338   0.999   5.188   6.139  0.0385 -0.8728 -1.8369
  110CHL1   H7B14339   0.846   5.111   6.104  1.4906 -0.3059  0.0417
  110CHL1    C814340   0.840   5.320   6.063 -0.6174  0.1585 -0.2432
  110CHL1    H814341   0.894   5.407   6.106 -0.9511  0.5318 -0.5739
  110CHL1   C1414342   0.874   5.293   5.921 -0.5000 -0.1096  0.1005
  110CHL1   H1414343   0.829   5.197   5.891  0.9644 -1.2534  1.4200
  110CHL1   C1514344   1.027   5.274   5.883  0.2144 -0.2565 -0.4346
  110CHL1  H15A14345   1.078   5.367   5.918  0.3341 -0.3449 -0.3746
  110CHL1  H15B14346   1.064   5.185   5.937 -0.8409 -0.1165  0.5666
  110CHL1   C1614347   1.021   5.274   5.731  0.4868 -0.6213 -0.1742
  110CHL1  H16A14348   1.102   5.337   5.687  0.6220 -0.4547  0.3146
  110CHL1  H16B14349   1.017   5.166   5.703 -1.1117 -0.2828 -1.4081
  110CHL1   C1714350   0.884   5.339   5.691  0.9687 -0.3822  0.0542
  110CHL1   H1714351   0.820   5.249   5.673  0.7425 -0.8362  2.7253
  110CHL1   C1314352   0.823   5.402   5.818  0.4807  0.8526  0.5476
  110CHL1   C1814353   0.885   5.540   5.833  0.2332  0.6568 -0.2598
  110CHL1  H18A14354   0.983   5.542   5.779  0.3187  3.3196 -0.1407
  110CHL1  H18B14355   0.828   5.617   5.777  3.0218  0.9754 -2.9735
  110CHL1  H18C14356   0.902   5.571   5.938  1.5176  0.7304 -0.4706
  110CHL1   C1214357   0.667   5.407   5.829 -0.1176 -0.7357  0.3023
  110CHL1  H12A14358   0.630   5.492   5.768 -0.7488  0.3791  2.1568
  110CHL1  H12B14359   0.630   5.310   5.789 -3.3595 -0.7049  2.8214
  110CHL1   C1114360   0.629   5.439   5.979  0.0616 -0.2907 -0.0700
  110CHL1  H11A14361   0.659   5.543   6.004 -1.0504 -0.0456  0.3098
  110CHL1  H11B14362   0.518   5.444   5.984  0.1191 -0.0796  1.4523
  110CHL1    C914363   0.695   5.343   6.088  0.1886  0.2930  0.3631
  110CHL1    H914364   0.649   5.244   6.067  0.1645  0.6258 -1.2620
  110CHL1   C1014365   0.662   5.378   6.233  0.2222 -0.3731  0.1653
  110CHL1   C1914366   0.695   5.528   6.266  0.1291  0.4597  0.2330
  110CHL1  H19A14367   0.674   5.547   6.374  0.1944  0.9433  0.1663
  110CHL1  H19B14368   0.795   5.568   6.238 -0.0575  1.8230  1.3763
  110CHL1  H19C14369   0.614   5.582   6.212  0.1481 -0.3961 -0.6650
  110CHL1    C114370   0.514   5.346   6.259 -0.3978 -0.1405  0.0260
  110CHL1   H1A14371   0.464   5.413   6.186  2.2292  0.3849 -1.4286
  110CHL1   H1B14372   0.498   5.238   6.243 -0.8337 -0.0577 -0.1180
  110CHL1    C214373   0.469   5.374   6.403 -0.3168 -0.2285 -0.5661
  110CHL1   H2A14374   0.360   5.357   6.420 -0.0841  0.9168  2.7153
  110CHL1   H2B14375   0.483   5.481   6.427  0.8405 -0.5415  0.2146
  110CHL1   C2014376   0.887   5.421   5.555 -0.1412  0.6790 -0.7904
  110CHL1   H2014377   0.971   5.494   5.556  0.6416 -0.2126  0.3303
  110CHL1   C2114378   0.747   5.486   5.531 -0.3512  0.0129  0.3251
  110CHL1  H21A14379   0.728   5.521   5.427 -0.0827  0.0012  0.2714
  110CHL1  H21B14380   0.754   5.583   5.585  2.1603  1.7904 -2.7936
  110CHL1  H21C14381   0.665   5.424   5.572 -0.2330  0.3377  1.0702
  110CHL1   C2214382   0.929   5.333   5.434  0.3843  0.1678 -0.2489
  110CHL1  H22A14383   0.978   5.239   5.464 -0.9470 -1.1969 -2.1331
  110CHL1  H22B14384   0.833   5.296   5.393 -1.8787  1.8585  3.0476
  110CHL1   C2314385   1.007   5.412   5.327  0.1804  0.1344  0.4765
  110CHL1  H23A14386   0.939   5.495   5.298 -1.4944 -0.6912  1.8469
  110CHL1  H23B14387   1.100   5.459   5.366 -0.3577  0.5024  1.3513
  110CHL1   C2414388   1.023   5.321   5.204 -0.4895  0.8880 -0.2597
  110CHL1  H24A14389   1.080   5.237   5.249 -0.5546  2.1524  2.3278
  110CHL1  H24B14390   0.927   5.291   5.157  0.9222 -1.9363 -1.5881
  110CHL1   C2514391   1.116   5.383   5.093 -0.0210  0.2816  0.9351
  110CHL1   H2514392   1.213   5.420   5.133  0.8700  0.0933 -0.9713
  110CHL1   C2614393   1.161   5.281   4.993  0.3762 -0.7800 -0.5869
  110CHL1  H26A14394   1.076   5.266   4.923 -1.7853  0.9786  1.4332
  110CHL1  H26B14395   1.247   5.324   4.938 -0.0391 -0.3932 -0.9498
  110CHL1  H26C14396   1.193   5.187   5.042  1.8675 -0.8602 -1.6528
  110CHL1   C2714397   1.049   5.500   5.015  0.7253  0.2721  0.1059
  110CHL1  H27A14398   1.028   5.588   5.079  1.9729 -1.2642  2.7914
  110CHL1  H27B14399   1.115   5.530   4.930  0.7893  0.3328  0.1763
  110CHL1  H27C14400   0.954   5.465   4.969  1.3853 -2.0432  0.3619
  111CHL1    C314401   2.918   1.164   6.419 -0.5775 -0.3136  0.1901
  111CHL1    H314402   2.849   1.078   6.416 -0.2989 -0.5233 -1.6903
  111CHL1    O314403   2.958   1.194   6.550  0.3497  0.6374  0.0289
  111CHL1   H3'14404   2.884   1.167   6.605  2.4150  0.8466  3.1650
  111CHL1    C414405   3.040   1.122   6.331 -0.5271  0.2106 -0.4013
  111CHL1   H4A14406   3.120   1.197   6.347  1.8440 -2.0655 -0.8864
  111CHL1   H4B14407   3.086   1.028   6.370 -1.3056 -0.2578 -0.5729
  111CHL1    C514408   3.020   1.109   6.177  0.4087  0.1206 -0.5719
  111CHL1    C614409   3.053   1.001   6.107  0.5751  0.1702 -1.0598
  111CHL1    H614410   3.103   0.921   6.163 -0.0634 -1.5047 -2.7965
  111CHL1    C714411   3.024   0.983   5.964 -0.9391 -0.3809 -0.6518
  111CHL1   H7A14412   3.109   0.930   5.917  0.2566  1.1133 -0.2405
  111CHL1   H7B14413   2.932   0.922   5.955 -2.3262  1.6678 -1.0561
  111CHL1    C814414   2.988   1.116   5.899 -0.1899 -0.1727 -0.0408
  111CHL1    H814415   3.079   1.180   5.896 -0.8630  0.8166  0.2163
  111CHL1   C1414416   2.933   1.088   5.756 -0.5208  0.0388 -0.2683
  111CHL1   H1414417   2.842   1.025   5.765 -0.3883 -0.1200 -0.0393
  111CHL1   C1514418   3.019   1.011   5.657  0.0783 -0.9485  0.8839
  111CHL1  H15A14419   3.125   1.043   5.649  0.2286 -1.6899 -0.4157
  111CHL1  H15B14420   3.031   0.902   5.675  0.9037 -1.5251 -2.5366
  111CHL1   C1614421   2.948   1.031   5.523  0.0357  0.2448 -0.3174
  111CHL1  H16A14422   3.021   1.061   5.445 -1.8891  1.4705 -1.7639
  111CHL1  H16B14423   2.906   0.935   5.486  0.9420  0.5739 -2.3387
  111CHL1   C1714424   2.840   1.140   5.545  0.4419  0.5563 -0.1574
  111CHL1   H1714425   2.743   1.089   5.567  1.4426 -1.4137 -0.0627
  111CHL1   C1314426   2.885   1.212   5.678  0.2193  0.3563  0.2155
  111CHL1   C1814427   3.002   1.312   5.652 -0.4641 -0.1002  0.8215
  111CHL1  H18A14428   3.052   1.345   5.746  0.6285 -0.5274  0.4148
  111CHL1  H18B14429   3.081   1.274   5.584 -0.0743  1.0062  0.6376
  111CHL1  H18C14430   2.964   1.409   5.613  1.5067  0.2438 -0.3864
  111CHL1   C1214431   2.774   1.275   5.763 -0.2614  0.3999 -0.1858
  111CHL1  H12A14432   2.732   1.368   5.719  0.0323  0.5926 -0.0701
  111CHL1  H12B14433   2.692   1.202   5.777 -0.0052 -0.0582 -1.0271
  111CHL1   C1114434   2.826   1.313   5.905 -0.4894 -0.5855 -0.1947
  111CHL1  H11A14435   2.900   1.393   5.885 -1.4127  0.5669  0.7985
  111CHL1  H11B14436   2.737   1.357   5.956 -0.3529  0.9611 -1.2291
  111CHL1    C914437   2.882   1.196   5.976 -0.4928 -0.2878 -0.4592
  111CHL1    H914438   2.800   1.123   5.992 -0.6920  0.2305  1.0867
  111CHL1   C1014439   2.935   1.230   6.119  0.0229  0.0521 -0.6986
  111CHL1   C1914440   3.040   1.351   6.116  0.1140  0.1828  0.1904
  111CHL1  H19A14441   2.974   1.439   6.097 -0.6456 -0.9656 -3.3902
  111CHL1  H19B14442   3.111   1.360   6.201  0.5366 -0.5649 -0.0718
  111CHL1  H19C14443   3.101   1.332   6.025  0.2524 -0.0165  0.3264
  111CHL1    C114444   2.816   1.270   6.207 -0.6721 -0.0590  0.1760
  111CHL1   H1A14445   2.768   1.358   6.159 -1.8804  0.1246  1.6451
  111CHL1   H1B14446   2.744   1.186   6.197  0.2329 -0.7295 -0.8786
  111CHL1    C214447   2.844   1.287   6.358 -0.0701  0.4746 -0.9081
  111CHL1   H2A14448   2.751   1.298   6.417  1.2673  1.9280  1.0724
  111CHL1   H2B14449   2.903   1.379   6.377 -2.9327  1.7754  2.8424
  111CHL1   C2014450   2.815   1.232   5.426 -0.0226 -0.4754 -0.7778
  111CHL1   H2014451   2.899   1.305   5.425  0.5897 -1.1140  0.7269
  111CHL1   C2114452   2.680   1.302   5.449 -0.1669  0.7994 -0.0344
  111CHL1  H21A14453   2.605   1.238   5.499  0.3887 -1.0779 -1.4629
  111CHL1  H21B14454   2.633   1.340   5.355 -1.4723  0.1771  0.3479
  111CHL1  H21C14455   2.692   1.391   5.513 -1.3340  1.2855 -0.4611
  111CHL1   C2214456   2.811   1.153   5.291  0.8919  0.4583 -0.5715
  111CHL1  H22A14457   2.906   1.097   5.276  1.7538  1.4162  1.0203
  111CHL1  H22B14458   2.734   1.073   5.288  0.8885  0.4424 -0.1518
  111CHL1   C2314459   2.803   1.251   5.172 -0.2400  1.1065  0.7493
  111CHL1  H23A14460   2.703   1.297   5.160 -0.6262  0.4740  1.4512
  111CHL1  H23B14461   2.874   1.332   5.197  1.0487  0.3862 -0.4011
  111CHL1   C2414462   2.851   1.191   5.041  1.3274  0.6298 -0.0547
  111CHL1  H24A14463   2.847   1.265   4.959 -0.4081  1.8376  1.0585
  111CHL1  H24B14464   2.956   1.155   5.050  0.7281 -1.8869 -1.8494
  111CHL1   C2514465   2.769   1.068   4.997 -0.0212  0.7078  0.4102
  111CHL1   H2514466   2.776   0.985   5.071 -1.3707 -0.5741 -0.8287
  111CHL1   C2614467   2.622   1.115   4.985  0.1053  0.1506 -0.8734
  111CHL1  H26A14468   2.560   1.040   4.931 -0.3711 -1.0589  1.2227
  111CHL1  H26B14469   2.577   1.123   5.087  1.0561  0.4575 -0.4652
  111CHL1  H26C14470   2.614   1.218   4.944 -1.7498 -0.9499 -3.5321
  111CHL1   C2714471   2.820   1.015   4.860 -0.2248  0.6247  0.2231
  111CHL1  H27A14472   2.924   0.979   4.881  0.7725  2.0490 -1.9039
  111CHL1  H27B14473   2.762   0.923   4.835  0.0555  0.6570 -0.5894
  111CHL1  H27C14474   2.809   1.083   4.773 -0.8030 -0.3221 -0.4768
  112CHL1    C314475   4.077   1.159   6.374  0.1668 -0.5499 -0.4368
  112CHL1    H314476   4.001   1.235   6.346  3.2878  1.4010 -4.8879
  112CHL1    O314477   4.082   1.163   6.518  0.2841  0.1118 -0.0790
  112CHL1   H3'14478   4.012   1.104   6.548  0.9475 -0.3658  0.5804
  112CHL1    C414479   4.030   1.018   6.325  0.6577  0.1905 -1.1213
  112CHL1   H4A14480   4.104   0.946   6.365 -1.1540 -2.9486 -3.0211
  112CHL1   H4B14481   3.934   0.997   6.376  0.4873 -0.4804 -1.7162
  112CHL1    C514482   4.016   1.017   6.174  0.3465  0.0333 -0.0153
  112CHL1    C614483   3.900   0.983   6.116 -0.4328 -0.4621 -0.4096
  112CHL1    H614484   3.807   0.966   6.172 -0.8944  0.1140 -0.9878
  112CHL1    C714485   3.884   0.979   5.968  1.2027 -0.2517 -0.4382
  112CHL1   H7A14486   3.819   0.895   5.936 -0.8935  1.0975  0.0676
  112CHL1   H7B14487   3.832   1.071   5.935  1.1550  0.4242  1.4088
  112CHL1    C814488   4.020   0.977   5.896 -0.8663 -0.3204  0.2584
  112CHL1    H814489   4.060   0.874   5.907  1.6028  0.6623  1.1687
  112CHL1   C1414490   3.993   1.018   5.743  0.3467  0.4074 -0.2894
  112CHL1   H1414491   3.953   1.121   5.743 -3.0165 -0.7501 -1.7465
  112CHL1   C1514492   3.885   0.922   5.671  0.0574 -0.5323  0.0649
  112CHL1  H15A14493   3.893   0.820   5.713  0.6574  0.2897  2.0725
  112CHL1  H15B14494   3.783   0.960   5.693 -0.1439  1.3248 -3.2839
  112CHL1   C1614495   3.926   0.934   5.521 -0.2475  0.0209 -0.1000
  112CHL1  H16A14496   3.942   0.833   5.477  0.0762  0.6649 -1.5013
  112CHL1  H16B14497   3.834   0.969   5.469 -0.5626 -1.3174 -0.4963
  112CHL1   C1714498   4.040   1.032   5.508  0.1779 -0.1301 -0.2973
  112CHL1   H1714499   3.991   1.131   5.507 -1.3067 -0.8006 -2.8420
  112CHL1   C1314500   4.117   1.017   5.651  0.2805 -0.1164  0.6540
  112CHL1   C1814501   4.188   0.879   5.645 -0.8795  0.1155  0.4076
  112CHL1  H18A14502   4.276   0.889   5.577  0.4562  0.4082  2.1114
  112CHL1  H18B14503   4.250   0.852   5.733  1.5610  0.7770 -1.0057
  112CHL1  H18C14504   4.119   0.796   5.620  0.8704 -1.3706  0.3313
  112CHL1   C1214505   4.217   1.123   5.704 -0.5461 -0.3322 -0.3728
  112CHL1  H12A14506   4.309   1.112   5.641 -0.1587 -0.9952  0.2892
  112CHL1  H12B14507   4.171   1.223   5.711  0.7269  0.2165  0.5738
  112CHL1   C1114508   4.252   1.101   5.855 -0.0758  0.1720 -0.1665
  112CHL1  H11A14509   4.297   1.000   5.853 -1.3579 -0.4960  1.6751
  112CHL1  H11B14510   4.326   1.174   5.895 -0.6032 -0.4195  2.0338
  112CHL1    C914511   4.119   1.078   5.944  0.2517 -0.4331 -0.2591
  112CHL1    H914512   4.067   1.175   5.927 -0.0789 -0.4671  0.5398
  112CHL1   C1014513   4.140   1.064   6.099 -0.2629 -0.3451  0.2903
  112CHL1   C1914514   4.248   0.949   6.116  0.1425  0.1651  0.1622
  112CHL1  H19A14515   4.217   0.858   6.060 -2.1389 -0.5831  2.4337
  112CHL1  H19B14516   4.339   0.995   6.071  0.4769 -0.6111  0.0209
  112CHL1  H19C14517   4.263   0.925   6.224 -2.1285  0.1830  0.5344
  112CHL1    C114518   4.192   1.207   6.158 -0.3254  0.0298  0.1019
  112CHL1   H1A14519   4.286   1.225   6.103 -0.5800 -3.0941 -1.5859
  112CHL1   H1B14520   4.116   1.284   6.133 -0.8906 -0.7064 -0.4962
  112CHL1    C214521   4.213   1.201   6.304 -0.0034 -0.2179  0.1209
  112CHL1   H2A14522   4.234   1.301   6.350 -0.1660 -0.7403  1.3780
  112CHL1   H2B14523   4.291   1.128   6.332  0.6151  0.6525  0.7407
  112CHL1   C2014524   4.128   1.021   5.382 -0.4937  0.1365  0.7429
  112CHL1   H2014525   4.209   0.947   5.399 -1.5085 -1.0250  0.7396
  112CHL1   C2114526   4.206   1.157   5.371 -0.6443  0.1549 -0.3983
  112CHL1  H21A14527   4.292   1.144   5.303  1.1612 -1.5088  2.0466
  112CHL1  H21B14528   4.233   1.203   5.468 -1.3050 -0.2242 -0.0297
  112CHL1  H21C14529   4.132   1.233   5.339 -1.0203  0.7561  1.7464
  112CHL1   C2214530   4.047   0.983   5.250  0.3988  0.7430 -0.0851
  112CHL1  H22A14531   4.012   0.879   5.264  1.0491  0.6038  0.5965
  112CHL1  H22B14532   3.969   1.061   5.238  0.5144  0.7434 -0.9242
  112CHL1   C2314533   4.125   0.986   5.121  0.2603 -0.5500 -0.1570
  112CHL1  H23A14534   4.169   1.087   5.103  2.7949 -1.3114  1.2460
  112CHL1  H23B14535   4.210   0.916   5.136  1.2577  0.9806  1.8457
  112CHL1   C2414536   4.038   0.939   4.998 -0.0700 -0.1097 -0.0490
  112CHL1  H24A14537   3.997   0.840   5.024 -2.1771  0.9251  0.7409
  112CHL1  H24B14538   3.953   1.004   4.971  0.4197 -0.2331 -2.0649
  112CHL1   C2514539   4.124   0.918   4.875 -0.6092  0.6135  0.1676
  112CHL1   H2514540   4.173   1.015   4.851 -0.1747  0.3523 -0.0159
  112CHL1   C2614541   4.226   0.808   4.887 -0.2375  0.4883 -0.3983
  112CHL1  H26A14542   4.310   0.844   4.950 -0.9181 -0.4715  1.0957
  112CHL1  H26B14543   4.178   0.716   4.926  0.1551  1.3285  2.2907
  112CHL1  H26C14544   4.257   0.790   4.781  0.7809  1.0002 -0.1974
  112CHL1   C2714545   4.036   0.884   4.760 -0.3345  0.1452  0.4465
  112CHL1  H27A14546   3.994   0.782   4.766 -1.4321  0.6151  1.0729
  112CHL1  H27B14547   3.960   0.961   4.735  1.7683  1.2758 -3.2602
  112CHL1  H27C14548   4.095   0.881   4.665 -0.5230 -0.9172  0.3549
  113CHL1    C314549   0.073   5.082   6.232  0.6223 -0.0113  0.6246
  113CHL1    H314550  -0.021   5.112   6.180 -0.8799 -1.6870  2.1844
  113CHL1    O314551   0.056   5.077   6.374  0.0984  0.4649  0.2386
  113CHL1   H3'14552   0.148   5.087   6.398  0.5464  0.7178 -1.4511
  113CHL1    C414553   0.124   4.949   6.185  0.5091  0.3976 -0.0036
  113CHL1   H4A14554   0.208   4.931   6.254  1.1006  2.2571 -0.1697
  113CHL1   H4B14555   0.052   4.866   6.199  2.1978 -1.4988 -1.9184
  113CHL1    C514556   0.148   4.953   6.034  0.0195  0.7032 -0.2192
  113CHL1    C614557   0.082   4.886   5.938  0.4237  0.5832  0.2651
  113CHL1    H614558   0.010   4.811   5.975  1.2851 -1.1729 -1.4379
  113CHL1    C714559   0.112   4.891   5.789 -0.0119 -0.1740 -1.3032
  113CHL1   H7A14560   0.097   4.792   5.740  1.2038 -1.8532  1.5064
  113CHL1   H7B14561   0.030   4.956   5.752 -1.3834  0.4569  2.3994
  113CHL1    C814562   0.244   4.962   5.753 -0.2345  1.3065 -0.0596
  113CHL1    H814563   0.332   4.897   5.773 -0.5150  0.7764 -0.4921
  113CHL1   C1414564   0.241   5.001   5.607  0.5923  0.0705 -0.4591
  113CHL1   H1414565   0.152   5.067   5.597 -1.4058 -2.4080  0.0014
  113CHL1   C1514566   0.190   4.896   5.506  0.0419 -0.1562  0.1614
  113CHL1  H15A14567   0.240   4.797   5.520  1.7159  0.6944  0.3522
  113CHL1  H15B14568   0.079   4.884   5.512  0.1462 -0.4741  2.7451
  113CHL1   C1614569   0.225   4.964   5.375 -0.4417  0.1285  0.0803
  113CHL1  H16A14570   0.274   4.885   5.314 -1.4445 -0.2783 -0.2168
  113CHL1  H16B14571   0.131   4.991   5.323  0.2144  0.2187 -1.1027
  113CHL1   C1714572   0.306   5.095   5.403 -0.4450 -0.3714  0.0092
  113CHL1   H1714573   0.236   5.181   5.397 -0.6572 -0.6375 -1.6397
  113CHL1   C1314574   0.357   5.076   5.551 -0.2766 -0.5164  0.2548
  113CHL1   C1814575   0.484   4.979   5.554  0.5846  0.4614 -0.4811
  113CHL1  H18A14576   0.583   5.023   5.529  2.8766 -3.0587  1.3983
  113CHL1  H18B14577   0.486   4.931   5.655 -1.9274  0.2927 -0.4476
  113CHL1  H18C14578   0.464   4.893   5.486 -0.3660  1.2148 -1.1713
  113CHL1   C1214579   0.379   5.199   5.637 -0.9316 -0.1791 -0.5836
  113CHL1  H12A14580   0.480   5.237   5.610 -1.5160  0.6190 -1.7161
  113CHL1  H12B14581   0.296   5.270   5.614 -0.8229 -0.4180 -1.7803
  113CHL1   C1114582   0.377   5.170   5.790 -0.6113 -0.3590 -0.0585
  113CHL1  H11A14583   0.463   5.105   5.816 -1.3690 -0.3095  3.0444
  113CHL1  H11B14584   0.380   5.260   5.855 -0.2803 -0.6770  0.3811
  113CHL1    C914585   0.260   5.083   5.839  1.0036 -0.1429  0.4729
  113CHL1    H914586   0.168   5.140   5.814 -0.0151 -2.1490 -0.6107
  113CHL1   C1014587   0.243   5.064   5.989 -0.9307  0.2051  0.2690
  113CHL1   C1914588   0.384   5.021   6.045 -0.1742  0.0957 -0.5172
  113CHL1  H19A14589   0.385   5.029   6.156  1.1263  0.0080 -0.5086
  113CHL1  H19B14590   0.403   4.916   6.014  2.1549 -0.1429  1.3918
  113CHL1  H19C14591   0.475   5.075   6.012  0.1913 -0.3089 -0.1898
  113CHL1    C114592   0.209   5.201   6.056  0.0779 -0.3832 -0.1646
  113CHL1   H1A14593   0.291   5.273   6.042 -0.8614  0.4311 -1.8234
  113CHL1   H1B14594   0.117   5.244   6.011 -0.0273 -0.7705 -0.3264
  113CHL1    C214595   0.175   5.192   6.202  0.8575  0.7001 -0.2442
  113CHL1   H2A14596   0.128   5.284   6.241 -0.5597 -0.2810  0.4747
  113CHL1   H2B14597   0.266   5.172   6.262 -0.7002 -0.7177  1.7926
  113CHL1   C2014598   0.429   5.118   5.307  0.0714 -0.0978 -0.0712
  113CHL1   H2014599   0.505   5.040   5.329 -1.5048 -1.4821  0.6633
  113CHL1   C2114600   0.484   5.261   5.323  0.7918  0.3985 -0.9926
  113CHL1  H21A14601   0.405   5.334   5.294  1.0904  1.7346  1.2967
  113CHL1  H21B14602   0.568   5.284   5.254  2.5026  1.7707  1.3762
  113CHL1  H21C14603   0.526   5.282   5.424 -0.4147  0.9314 -0.5847
  113CHL1   C2214604   0.393   5.095   5.157  0.5423 -0.0428  0.7006
  113CHL1  H22A14605   0.487   5.122   5.104  0.3209 -0.2937  0.1654
  113CHL1  H22B14606   0.385   4.986   5.136  1.3353  0.1060 -0.4876
  113CHL1   C2314607   0.265   5.163   5.099  0.5867  0.0620 -0.3624
  113CHL1  H23A14608   0.178   5.139   5.165 -0.7991  1.0674 -1.7464
  113CHL1  H23B14609   0.284   5.271   5.114 -0.2740  0.0296  1.2356
  113CHL1   C2414610   0.232   5.144   4.956 -0.3022 -0.0652  0.0019
  113CHL1  H24A14611   0.312   5.186   4.892 -1.1611  0.4307 -0.7627
  113CHL1  H24B14612   0.239   5.034   4.941 -1.2360 -0.4109  1.8000
  113CHL1   C2514613   0.098   5.201   4.911  0.3005 -0.3973  0.6792
  113CHL1   H2514614   0.027   5.150   4.979  0.3271 -0.7198  0.4630
  113CHL1   C2614615   0.078   5.358   4.925  0.2242  0.1325  0.4350
  113CHL1  H26A14616   0.085   5.383   5.033 -2.6297 -0.9740  0.9511
  113CHL1  H26B14617   0.154   5.412   4.865  0.8391  0.5882  1.6030
  113CHL1  H26C14618  -0.025   5.376   4.887  0.7002 -2.1969 -2.2768
  113CHL1   C2714619   0.047   5.149   4.767  0.1151 -1.1738 -0.9573
  113CHL1  H27A14620   0.044   5.038   4.763 -0.2638 -1.2886  1.0543
  113CHL1  H27B14621  -0.058   5.181   4.750  1.2180  2.3290 -2.1144
  113CHL1  H27C14622   0.109   5.190   4.684  1.3201  1.4424  1.0735
  114CHL1    C314623   5.674   0.962   6.471 -0.0002 -0.5464 -0.4808
  114CHL1    H314624   5.587   0.937   6.407 -0.9361  2.2734 -0.4534
  114CHL1    O314625   5.626   0.975   6.606  0.2569  0.3641 -0.3839
  114CHL1   H3'14626   5.703   0.965   6.662 -0.0885 -0.0873  0.0157
  114CHL1    C414627   5.795   0.872   6.477  0.6500  0.7648  0.7464
  114CHL1   H4A14628   5.877   0.908   6.543  0.0819 -0.3026  2.0765
  114CHL1   H4B14629   5.768   0.777   6.527 -2.3823  0.1040 -1.8402
  114CHL1    C514630   5.832   0.851   6.330 -0.2815 -0.0125  0.2914
  114CHL1    C614631   5.823   0.730   6.277 -0.6100 -0.5472  0.2898
  114CHL1    H614632   5.780   0.647   6.334 -3.0506  0.6375  0.3171
  114CHL1    C714633   5.874   0.696   6.134  0.5038 -0.0213 -0.5430
  114CHL1   H7A14634   5.922   0.597   6.122 -1.9008 -1.4122  0.4894
  114CHL1   H7B14635   5.782   0.696   6.071 -0.0810 -0.5691  0.2934
  114CHL1    C814636   5.953   0.814   6.079  0.3986  0.7780 -0.5352
  114CHL1    H814637   6.056   0.800   6.118 -0.1868 -0.7129  0.5834
  114CHL1   C1414638   5.939   0.806   5.929  0.5380  0.1669 -0.4293
  114CHL1   H1414639   5.832   0.823   5.903 -0.0851 -2.7955 -0.1372
  114CHL1   C1514640   5.986   0.671   5.869  0.5232  0.1588 -0.0934
  114CHL1  H15A14641   6.082   0.642   5.917 -0.3947  0.5795  2.1209
  114CHL1  H15B14642   5.923   0.583   5.892 -0.4210  0.6918 -0.5646
  114CHL1   C1614643   6.006   0.712   5.719  0.0232  0.4490  0.5669
  114CHL1  H16A14644   6.097   0.656   5.687 -0.9183 -1.5950  1.2957
  114CHL1  H16B14645   5.926   0.668   5.657 -0.7989  0.0235  1.8783
  114CHL1   C1714646   6.005   0.866   5.698 -0.0292 -0.1278 -0.0736
  114CHL1   H1714647   5.912   0.899   5.648 -0.6517 -1.2457  0.3063
  114CHL1   C1314648   6.015   0.917   5.841  0.4532 -0.0607 -0.3359
  114CHL1   C1814649   6.161   0.922   5.890  0.1002  0.1902 -0.6182
  114CHL1  H18A14650   6.215   0.831   5.853 -1.4049 -0.8625 -0.3261
  114CHL1  H18B14651   6.224   1.005   5.853  0.8028  0.4662  1.1036
  114CHL1  H18C14652   6.173   0.929   6.000 -0.8486 -0.6762 -0.4373
  114CHL1   C1214653   5.936   1.047   5.871  0.1903  0.3282 -0.1276
  114CHL1  H12A14654   5.976   1.138   5.820  0.2910 -0.4273 -1.4417
  114CHL1  H12B14655   5.830   1.033   5.841  0.6335  0.1864 -1.7269
  114CHL1   C1114656   5.937   1.070   6.026  0.6721  0.0275  0.4434
  114CHL1  H11A14657   6.041   1.091   6.060  0.5992 -0.9250  1.3232
  114CHL1  H11B14658   5.871   1.157   6.047 -0.8307 -0.3923 -2.1354
  114CHL1    C914659   5.885   0.951   6.105 -0.6783 -0.1830  0.0155
  114CHL1    H914660   5.781   0.937   6.069 -0.1356  0.5061 -1.9057
  114CHL1   C1014661   5.875   0.977   6.257 -0.2258 -0.8778  0.4638
  114CHL1   C1914662   6.009   1.026   6.323 -0.5636  0.0250  0.5171
  114CHL1  H19A14663   6.096   0.958   6.312 -0.4672  0.3316 -0.7873
  114CHL1  H19B14664   6.033   1.120   6.268  1.9578 -0.3001  0.9440
  114CHL1  H19C14665   5.982   1.046   6.429 -1.3514  1.6658  0.0444
  114CHL1    C114666   5.766   1.098   6.276 -0.3128 -0.0208 -0.0191
  114CHL1   H1A14667   5.822   1.190   6.246  0.4658 -0.3142  0.5038
  114CHL1   H1B14668   5.678   1.070   6.215 -0.8488 -0.9975  1.1526
  114CHL1    C214669   5.714   1.099   6.424  0.3087  0.4118 -0.1889
  114CHL1   H2A14670   5.626   1.166   6.435  0.7763  0.7151  2.1077
  114CHL1   H2B14671   5.795   1.148   6.482 -0.1715  2.0865 -0.8482
  114CHL1   C2014672   6.119   0.906   5.595  0.2910 -0.3514 -0.0489
  114CHL1   H2014673   6.219   0.921   5.642  0.9148 -2.4626 -0.6071
  114CHL1   C2114674   6.088   1.050   5.556 -0.6831 -0.2087 -0.4485
  114CHL1  H21A14675   5.983   1.072   5.529 -0.7346  0.0443 -0.0592
  114CHL1  H21B14676   6.158   1.065   5.471  0.6163  2.1070  0.9401
  114CHL1  H21C14677   6.113   1.098   5.653 -1.5422 -1.7263  0.5747
  114CHL1   C2214678   6.144   0.816   5.472  0.1858 -0.3809 -0.6622
  114CHL1  H22A14679   6.223   0.852   5.403 -0.1870  1.3926 -0.2108
  114CHL1  H22B14680   6.181   0.716   5.503  0.5170 -0.0376  0.0569
  114CHL1   C2314681   6.010   0.797   5.395 -0.2793  0.5295  0.6438
  114CHL1  H23A14682   5.953   0.714   5.442 -0.9199  1.0412  0.7833
  114CHL1  H23B14683   5.950   0.889   5.411  1.1073  1.3660  1.2428
  114CHL1   C2414684   6.034   0.761   5.245 -0.1203  0.1279 -0.6993
  114CHL1  H24A14685   6.087   0.843   5.192  1.6085 -1.2681 -1.2349
  114CHL1  H24B14686   6.110   0.680   5.256  0.5127  0.8614  0.5509
  114CHL1   C2514687   5.912   0.709   5.160  0.0286  0.5167 -0.1375
  114CHL1   H2514688   5.835   0.788   5.153 -2.4925 -1.5294  2.3346
  114CHL1   C2614689   5.949   0.678   5.019  0.2226  0.4453 -0.5467
  114CHL1  H26A14690   5.995   0.757   4.957 -0.4598  0.8692 -0.5244
  114CHL1  H26B14691   6.016   0.590   5.031  0.8933  0.9484 -0.6256
  114CHL1  H26C14692   5.869   0.624   4.964 -1.4728  2.5488 -0.2814
  114CHL1   C2714693   5.850   0.584   5.229 -0.1243  0.3315  0.2521
  114CHL1  H27A14694   5.928   0.510   5.256  2.0651  2.5754  0.4056
  114CHL1  H27B14695   5.788   0.594   5.321  0.6533 -0.3002  0.8598
  114CHL1  H27C14696   5.779   0.535   5.159  0.3365 -0.8581  0.5898
  115CHL1    C314697   1.577   7.199   6.537  0.8149 -1.0000  0.2742
  115CHL1    H314698   1.590   7.090   6.550  2.5353 -0.7939  0.5578
  115CHL1    O314699   1.595   7.259   6.669 -0.0644 -0.0971 -1.0409
  115CHL1   H3'14700   1.520   7.315   6.691  1.0199  0.8142  0.5342
  115CHL1    C414701   1.689   7.256   6.448  0.3434 -0.4410  0.0364
  115CHL1   H4A14702   1.676   7.366   6.450 -0.8266 -0.4301 -3.1532
  115CHL1   H4B14703   1.788   7.229   6.493 -0.2374  1.0626  2.3898
  115CHL1    C514704   1.674   7.224   6.301 -0.9806  0.3409  0.0286
  115CHL1    C614705   1.784   7.183   6.234  0.0791 -0.1514 -0.1369
  115CHL1    H614706   1.883   7.178   6.282  1.3437 -1.3423 -2.6484
  115CHL1    C714707   1.779   7.149   6.084 -0.6411 -0.4110  0.2687
  115CHL1   H7A14708   1.866   7.198   6.036 -0.8612  0.9148  1.1584
  115CHL1   H7B14709   1.806   7.042   6.079 -1.0820 -0.5889  1.3585
  115CHL1    C814710   1.642   7.195   6.010  0.1958 -0.2228  0.1909
  115CHL1    H814711   1.653   7.302   5.986  1.2786 -0.8256 -2.3004
  115CHL1   C1414712   1.632   7.118   5.874 -0.5391  0.1409 -0.5464
  115CHL1   H1414713   1.620   7.012   5.904 -0.0692  0.6467  1.6861
  115CHL1   C1514714   1.753   7.127   5.781  0.0939 -0.3905 -0.5201
  115CHL1  H15A14715   1.772   7.236   5.779 -0.1641 -0.3159  0.5814
  115CHL1  H15B14716   1.841   7.066   5.810 -0.2940 -0.8443 -0.2800
  115CHL1   C1614717   1.707   7.082   5.643  0.3543 -0.0024 -0.4838
  115CHL1  H16A14718   1.751   7.156   5.572  1.3149  0.8044  0.9112
  115CHL1  H16B14719   1.751   6.983   5.623  2.0966  0.4561  0.8683
  115CHL1   C1714720   1.548   7.075   5.661  0.2885  0.5079 -0.1859
  115CHL1   H1714721   1.528   6.972   5.700 -2.1171  0.6550 -0.9074
  115CHL1   C1314722   1.512   7.158   5.788 -0.6745 -0.2876 -0.2996
  115CHL1   C1814723   1.515   7.305   5.754  0.0193 -0.5769 -0.6394
  115CHL1  H18A14724   1.494   7.375   5.838 -0.0284 -0.7077 -0.5429
  115CHL1  H18B14725   1.613   7.333   5.710  0.1567  0.2980  0.1813
  115CHL1  H18C14726   1.434   7.332   5.682  0.1394  0.9498 -0.2445
  115CHL1   C1214727   1.389   7.121   5.870  0.4681  0.2484  0.3730
  115CHL1  H12A14728   1.289   7.145   5.827  0.1432  1.0360  1.5094
  115CHL1  H12B14729   1.391   7.011   5.886 -1.1490  0.3432  1.5603
  115CHL1   C1114730   1.386   7.180   6.015  0.1191  0.3399  0.3461
  115CHL1  H11A14731   1.350   7.284   5.999 -3.1945 -0.4897  1.4752
  115CHL1  H11B14732   1.305   7.131   6.074  0.4200  0.5191  0.9236
  115CHL1    C914733   1.518   7.166   6.100  0.2964 -0.1884  0.0097
  115CHL1    H914734   1.523   7.058   6.126 -0.9048 -0.5857 -1.2699
  115CHL1   C1014735   1.532   7.243   6.234 -0.1719  0.9355  0.2609
  115CHL1   C1914736   1.492   7.393   6.213 -0.1633  0.1755  0.3562
  115CHL1  H19A14737   1.548   7.434   6.126 -1.5255  1.0760 -0.1169
  115CHL1  H19B14738   1.382   7.394   6.197  0.0436  0.1295 -1.3071
  115CHL1  H19C14739   1.513   7.460   6.299  0.3735  1.5605 -0.8069
  115CHL1    C114740   1.427   7.184   6.333 -0.0858  0.3224 -0.9404
  115CHL1   H1A14741   1.326   7.216   6.296 -1.3317 -2.1037  0.1298
  115CHL1   H1B14742   1.429   7.073   6.335 -1.3241  0.2769 -0.8905
  115CHL1    C214743   1.438   7.239   6.484 -0.0616  0.2992  0.1691
  115CHL1   H2A14744   1.361   7.201   6.555  0.7548  0.7650  1.3256
  115CHL1   H2B14745   1.425   7.348   6.471  0.4388  0.5556  1.6295
  115CHL1   C2014746   1.456   7.081   5.530  0.3947 -0.0419 -0.2446
  115CHL1   H2014747   1.473   7.178   5.478 -0.4814 -0.9907 -2.3851
  115CHL1   C2114748   1.302   7.055   5.554 -0.7108 -0.4669 -0.4182
  115CHL1  H21A14749   1.247   7.087   5.463 -0.7523 -0.9312 -0.5574
  115CHL1  H21B14750   1.262   7.118   5.635  0.6808 -0.6936  0.4819
  115CHL1  H21C14751   1.266   6.951   5.563 -2.6326  0.0066 -1.9667
  115CHL1   C2214752   1.505   6.986   5.417  0.4061 -0.3223  0.1928
  115CHL1  H22A14753   1.615   6.971   5.410  0.2896 -1.3893  0.5200
  115CHL1  H22B14754   1.469   6.885   5.444  1.3001 -1.1814 -1.6631
  115CHL1   C2314755   1.458   7.037   5.280  0.0629  0.2466  0.1184
  115CHL1  H23A14756   1.349   7.061   5.287  0.2567  1.3632 -0.5427
  115CHL1  H23B14757   1.503   7.136   5.257 -0.3638  0.8460  1.7163
  115CHL1   C2414758   1.478   6.945   5.162  0.1763 -0.9084 -0.5996
  115CHL1  H24A14759   1.421   6.853   5.185 -0.9843  0.2832  1.6273
  115CHL1  H24B14760   1.430   6.982   5.069  1.0378  1.1452 -0.2848
  115CHL1   C2514761   1.618   6.900   5.129 -0.0616 -0.2133  0.1256
  115CHL1   H2514762   1.655   6.845   5.218  0.7478 -0.4767 -0.3640
  115CHL1   C2614763   1.596   6.804   5.007 -0.2798  0.0489 -0.2129
  115CHL1  H26A14764   1.570   6.866   4.919  2.8629  2.3121  0.2801
  115CHL1  H26B14765   1.690   6.748   4.989  0.0361  0.0767  1.2403
  115CHL1  H26C14766   1.509   6.736   5.021 -0.6301  0.1797 -1.6246
  115CHL1   C2714767   1.706   7.021   5.080  0.7368  0.4480 -0.5462
  115CHL1  H27A14768   1.802   6.982   5.040 -0.1496  0.2127 -2.5614
  115CHL1  H27B14769   1.665   7.067   4.987 -0.7018 -0.5822 -0.4351
  115CHL1  H27C14770   1.734   7.099   5.154 -1.0447  0.7803 -0.1770
  116CHL1    C314771   2.284   0.258   6.263 -0.5346 -0.0173 -0.8090
  116CHL1    H314772   2.238   0.163   6.295 -1.6494  0.2666 -1.5110
  116CHL1    O314773   2.297   0.335   6.383 -0.1135  0.7991 -0.1665
  116CHL1   H3'14774   2.212   0.374   6.403  0.0713  0.5524  1.1919
  116CHL1    C414775   2.426   0.250   6.195 -0.5339  0.4171  0.2222
  116CHL1   H4A14776   2.465   0.353   6.180  1.1341 -0.3840 -1.2548
  116CHL1   H4B14777   2.488   0.201   6.273  0.8834  0.2991 -0.9538
  116CHL1    C514778   2.422   0.175   6.056 -0.3590  0.2875 -0.2250
  116CHL1    C614779   2.510   0.075   6.030  0.2402 -0.1092  0.5403
  116CHL1    H614780   2.583   0.041   6.106  0.4368  0.8150  0.7692
  116CHL1    C714781   2.519   0.013   5.892  1.0407  0.7426 -0.0874
  116CHL1   H7A14782   2.623   0.010   5.851  0.0880  1.5807 -2.8184
  116CHL1   H7B14783   2.495  -0.095   5.893  1.6944  0.5040 -2.5077
  116CHL1    C814784   2.429   0.074   5.780 -0.0105  0.3750  0.3514
  116CHL1    H814785   2.494   0.159   5.751  0.6010  0.1957  1.1773
  116CHL1   C1414786   2.408  -0.028   5.667 -0.3337 -0.4511 -0.5906
  116CHL1   H1414787   2.364  -0.115   5.721  2.7721 -0.4914  2.1884
  116CHL1   C1514788   2.536  -0.076   5.601  0.1520  0.6626  0.6770
  116CHL1  H15A14789   2.614   0.003   5.600 -0.3914  1.2441  1.8519
  116CHL1  H15B14790   2.589  -0.154   5.660  1.6190  0.8941 -0.2741
  116CHL1   C1614791   2.490  -0.128   5.463  0.3933 -0.8168 -0.8247
  116CHL1  H16A14792   2.557  -0.070   5.395  1.4669 -0.8364  0.1880
  116CHL1  H16B14793   2.510  -0.237   5.454  0.0633 -0.7539 -2.7800
  116CHL1   C1714794   2.344  -0.084   5.453  0.8816 -1.2197 -0.1911
  116CHL1   H1714795   2.279  -0.166   5.492 -1.2617  1.1134  1.5137
  116CHL1   C1314796   2.324   0.035   5.551 -0.9266  0.5651 -0.0547
  116CHL1   C1814797   2.392   0.161   5.493  0.3924 -0.5024  0.5204
  116CHL1  H18A14798   2.481   0.138   5.430  1.0367  2.8898  0.0175
  116CHL1  H18B14799   2.321   0.216   5.428  0.0781  0.6167  1.7663
  116CHL1  H18C14800   2.434   0.224   5.574 -2.1938  2.2633 -0.0995
  116CHL1   C1214801   2.189   0.071   5.605 -0.2736  0.1997  1.1105
  116CHL1  H12A14802   2.124   0.118   5.528  1.3860 -0.1091 -0.5550
  116CHL1  H12B14803   2.145  -0.025   5.640 -0.9714 -0.4606 -1.3730
  116CHL1   C1114804   2.192   0.167   5.723  0.1576 -0.1982  0.6290
  116CHL1  H11A14805   2.205   0.267   5.677 -2.1748 -0.0705  0.0951
  116CHL1  H11B14806   2.084   0.154   5.749 -0.9492  0.9786 -2.7570
  116CHL1    C914807   2.296   0.123   5.834  0.4626  0.1438 -1.1083
  116CHL1    H914808   2.242   0.037   5.877 -1.6188 -0.4307 -4.5351
  116CHL1   C1014809   2.316   0.223   5.957 -0.1259  0.5447  0.7684
  116CHL1   C1914810   2.355   0.360   5.900 -0.1424  0.5848 -0.4279
  116CHL1  H19A14811   2.358   0.442   5.975  0.1297 -0.5305  0.8185
  116CHL1  H19B14812   2.447   0.352   5.838 -0.0283 -1.4432 -0.0638
  116CHL1  H19C14813   2.285   0.395   5.821 -1.5964  0.3527  0.7309
  116CHL1    C114814   2.186   0.244   6.038 -0.3521  0.1454  0.6605
  116CHL1   H1A14815   2.106   0.261   5.963 -0.6279 -1.4194  0.5462
  116CHL1   H1B14816   2.144   0.145   6.066 -2.0457  0.5398 -0.3691
  116CHL1    C214817   2.193   0.328   6.163 -0.2679  0.2011  0.0546
  116CHL1   H2A14818   2.092   0.345   6.205 -0.4537 -0.3124 -0.1763
  116CHL1   H2B14819   2.230   0.430   6.140 -1.5063  0.4197 -1.0399
  116CHL1   C2014820   2.303  -0.047   5.305  0.3394 -0.0293 -0.3003
  116CHL1   H2014821   2.344   0.051   5.274 -0.5217  0.2856 -0.4797
  116CHL1   C2114822   2.148  -0.017   5.289 -0.9832  0.1305  0.1744
  116CHL1  H21A14823   2.117  -0.005   5.183 -0.7607 -0.9749 -0.0252
  116CHL1  H21B14824   2.128   0.081   5.337  2.4534  0.6280  0.9059
  116CHL1  H21C14825   2.093  -0.098   5.341  0.5202 -0.4176  0.9966
  116CHL1   C2214826   2.345  -0.162   5.209 -0.7477  1.4073 -0.5645
  116CHL1  H22A14827   2.333  -0.114   5.109  0.3845 -0.3993 -1.6049
  116CHL1  H22B14828   2.451  -0.191   5.223 -1.1319  0.6070  0.7921
  116CHL1   C2314829   2.261  -0.288   5.212  0.0633  0.4241  0.1595
  116CHL1  H23A14830   2.257  -0.334   5.313  2.3648 -1.8890 -0.6793
  116CHL1  H23B14831   2.156  -0.280   5.178 -0.2926  0.8895  1.3469
  116CHL1   C2414832   2.323  -0.394   5.124  0.0602 -0.0467  0.0163
  116CHL1  H24A14833   2.352  -0.339   5.031 -1.3874  1.2160  0.2650
  116CHL1  H24B14834   2.423  -0.430   5.156  1.4432 -0.5872 -4.2171
  116CHL1   C2514835   2.231  -0.511   5.085 -0.2814  0.4107  0.0434
  116CHL1   H2514836   2.135  -0.476   5.040 -0.0515  0.5541 -0.3462
  116CHL1   C2614837   2.313  -0.598   4.982  0.4602 -0.2334 -0.7402
  116CHL1  H26A14838   2.400  -0.650   5.028  0.3696 -1.2719 -1.6804
  116CHL1  H26B14839   2.247  -0.679   4.943 -2.4948  1.2091  0.9735
  116CHL1  H26C14840   2.354  -0.539   4.897  1.2978 -1.2663 -1.0871
  116CHL1   C2714841   2.173  -0.595   5.200 -0.1583 -0.1721 -0.1890
  116CHL1  H27A14842   2.112  -0.680   5.162 -0.8414 -0.5630  1.6929
  116CHL1  H27B14843   2.264  -0.626   5.256 -1.4896 -0.6099  1.8691
  116CHL1  H27C14844   2.115  -0.528   5.267 -0.5483 -0.4889 -0.2026
  117CHL1    C314845   5.833   1.523   6.488  0.1021 -0.4331 -0.1673
  117CHL1    H314846   5.818   1.413   6.476 -0.4853 -0.3689 -0.0704
  117CHL1    O314847   5.809   1.561   6.623  0.4616 -0.5957  0.4485
  117CHL1   H3'14848   5.819   1.657   6.615 -3.0122 -0.2258 -1.2532
  117CHL1    C414849   5.977   1.558   6.455 -0.5652 -0.0142  0.4155
  117CHL1   H4A14850   5.994   1.665   6.480  2.6510 -0.5741  1.1946
  117CHL1   H4B14851   6.043   1.494   6.518  0.6959  0.2947 -0.5412
  117CHL1    C514852   6.012   1.538   6.306  0.8256  0.0279 -0.1922
  117CHL1    C614853   6.105   1.457   6.260  0.4058  0.3845  0.3716
  117CHL1    H614854   6.156   1.396   6.336 -0.4679 -2.5922 -1.2661
  117CHL1    C714855   6.134   1.437   6.117  0.2653 -0.5475 -0.6288
  117CHL1   H7A14856   6.242   1.451   6.094  0.3713  0.3794  0.3347
  117CHL1   H7B14857   6.112   1.333   6.085 -2.0492 -0.0069 -1.0020
  117CHL1    C814858   6.062   1.539   6.026  0.2115  0.1072  0.0008
  117CHL1    H814859   6.123   1.632   6.028  1.6911 -0.8077 -0.6896
  117CHL1   C1414860   6.051   1.499   5.884 -0.2621  0.3296  0.2507
  117CHL1   H1414861   5.992   1.405   5.879  1.6021 -0.8173 -1.5285
  117CHL1   C1514862   6.182   1.450   5.810  0.1981  0.1529  0.2139
  117CHL1  H15A14863   6.266   1.515   5.844 -1.9793  2.6205  1.1938
  117CHL1  H15B14864   6.216   1.349   5.841  2.6477  0.8154 -0.0940
  117CHL1   C1614865   6.152   1.458   5.663 -0.3190  0.6639  0.5820
  117CHL1  H16A14866   6.232   1.509   5.604 -0.1034 -0.0858  0.2035
  117CHL1  H16B14867   6.129   1.357   5.624  3.4501 -0.2551  0.2856
  117CHL1   C1714868   6.014   1.530   5.648  0.5723 -0.0909  0.5754
  117CHL1   H1714869   5.939   1.449   5.637  0.3582  0.2168 -0.2499
  117CHL1   C1314870   5.988   1.599   5.783  0.3107 -0.0458 -0.5561
  117CHL1   C1814871   6.067   1.731   5.779  0.7143 -0.1863  0.1037
  117CHL1  H18A14872   6.046   1.800   5.864 -2.6224  0.4132 -1.0690
  117CHL1  H18B14873   6.177   1.726   5.792  0.6439 -1.4802  0.2844
  117CHL1  H18C14874   6.041   1.794   5.691 -2.5552 -0.5966  0.6675
  117CHL1   C1214875   5.842   1.621   5.816 -0.1003  0.1519 -1.1087
  117CHL1  H12A14876   5.786   1.699   5.759  1.9641  1.7572 -1.0409
  117CHL1  H12B14877   5.788   1.525   5.798 -1.5321  0.6634  0.2046
  117CHL1   C1114878   5.832   1.655   5.963 -0.0675  0.2199  0.2453
  117CHL1  H11A14879   5.881   1.754   5.958 -0.3783  0.3190 -2.2470
  117CHL1  H11B14880   5.726   1.656   5.996  0.2610 -2.0971  1.6058
  117CHL1    C914881   5.912   1.567   6.066  0.4279  0.3066  0.1919
  117CHL1    H914882   5.851   1.474   6.062  0.8236  0.0367  0.3373
  117CHL1   C1014883   5.906   1.609   6.215  0.3078 -0.3723  0.4179
  117CHL1   C1914884   5.935   1.762   6.231  0.0381 -1.1060 -0.3079
  117CHL1  H19A14885   5.852   1.819   6.185  0.9203  0.5796  0.1144
  117CHL1  H19B14886   5.943   1.801   6.335 -0.6939 -0.6632 -0.4112
  117CHL1  H19C14887   6.020   1.804   6.173  1.7379 -1.0587  2.0630
  117CHL1    C114888   5.758   1.585   6.266 -0.3838  0.8456  0.1348
  117CHL1   H1A14889   5.675   1.624   6.204 -2.0143 -3.3535 -0.6724
  117CHL1   H1B14890   5.750   1.475   6.252  0.6376  0.7779 -0.0065
  117CHL1    C214891   5.739   1.618   6.408 -0.1894  0.5429 -0.5030
  117CHL1   H2A14892   5.631   1.598   6.428 -0.9389  1.4382 -3.1747
  117CHL1   H2B14893   5.756   1.728   6.417 -2.9189  1.0568 -0.6443
  117CHL1   C2014894   6.011   1.604   5.520 -0.1682 -0.3971  0.0364
  117CHL1   H2014895   6.078   1.692   5.520 -1.2717  0.4812 -0.8720
  117CHL1   C2114896   5.869   1.657   5.494 -0.4501  0.6291  0.3741
  117CHL1  H21A14897   5.865   1.746   5.561  2.2622  1.7467 -0.7850
  117CHL1  H21B14898   5.798   1.580   5.532  0.6957  0.6426  2.7704
  117CHL1  H21C14899   5.861   1.689   5.388  0.3967 -0.8070 -0.1586
  117CHL1   C2214900   6.041   1.519   5.394 -0.8082 -0.4338  0.3404
  117CHL1  H22A14901   6.023   1.583   5.305 -0.3742 -0.6641  0.0809
  117CHL1  H22B14902   6.148   1.487   5.397 -0.4501  0.6344 -0.4827
  117CHL1   C2314903   5.968   1.384   5.378 -0.8287  0.0141  0.1410
  117CHL1  H23A14904   6.000   1.321   5.463  0.7194 -3.9960 -3.0922
  117CHL1  H23B14905   5.858   1.399   5.372 -0.6732  0.6423 -3.2116
  117CHL1   C2414906   6.004   1.311   5.249 -0.3333  0.3866  0.2284
  117CHL1  H24A14907   5.961   1.369   5.165  0.9224  1.3709  0.2419
  117CHL1  H24B14908   6.115   1.307   5.241 -0.2028  1.0085  1.4377
  117CHL1   C2514909   5.940   1.169   5.238  0.3490 -0.4271 -0.2142
  117CHL1   H2514910   5.975   1.112   5.326 -1.5369 -0.2240  0.7177
  117CHL1   C2614911   5.788   1.176   5.242 -0.5700  0.0432  0.1394
  117CHL1  H26A14912   5.747   1.211   5.339  0.8145 -1.9056  1.5037
  117CHL1  H26B14913   5.749   1.240   5.160  1.5986  1.0709 -0.1849
  117CHL1  H26C14914   5.746   1.074   5.229 -2.2844  0.5834  1.1581
  117CHL1   C2714915   5.986   1.098   5.114 -0.3260 -0.2494 -0.6447
  117CHL1  H27A14916   5.948   1.149   5.023 -0.8411  1.0015  0.2514
  117CHL1  H27B14917   6.094   1.079   5.126 -0.1982 -0.1992 -1.6094
  117CHL1  H27C14918   5.945   0.995   5.106  1.3854 -0.8635 -2.2936
  118CHL1    C314919   0.432   1.359   6.166  0.0010 -0.6958 -0.2162
  118CHL1    H314920   0.331   1.386   6.128 -1.0767 -1.7698  1.7354
  118CHL1    O314921   0.441   1.400   6.299 -0.2106  0.5293  0.3342
  118CHL1   H3'14922   0.529   1.369   6.322 -0.6134 -0.9448  0.0020
  118CHL1    C414923   0.448   1.204   6.159 -0.6567  0.3167 -0.5826
  118CHL1   H4A14924   0.539   1.181   6.220 -0.5824 -1.2211 -1.2377
  118CHL1   H4B14925   0.362   1.161   6.214 -0.0469 -0.0577  0.0992
  118CHL1    C514926   0.459   1.147   6.019  0.4770  0.5132 -0.4365
  118CHL1    C614927   0.377   1.051   5.980  0.4411  0.1198  0.4070
  118CHL1    H614928   0.301   1.000   6.041 -1.9868  1.6860 -1.1271
  118CHL1    C714929   0.383   0.989   5.839 -0.5226  0.3718  0.1438
  118CHL1   H7A14930   0.361   0.881   5.852 -1.5470  0.4764 -0.5428
  118CHL1   H7B14931   0.297   1.027   5.779 -0.2251 -0.6277 -0.9419
  118CHL1    C814932   0.511   1.022   5.756 -0.4585  0.0102 -0.1854
  118CHL1    H814933   0.595   0.959   5.793 -1.7969 -0.9733  1.3486
  118CHL1   C1414934   0.496   1.004   5.606 -0.0308  0.7247 -0.5480
  118CHL1   H1414935   0.422   1.082   5.580 -1.6983 -0.7280 -0.3637
  118CHL1   C1514936   0.439   0.869   5.560 -0.1913  0.2262 -0.1449
  118CHL1  H15A14937   0.443   0.773   5.616 -0.6053 -0.5733 -1.4297
  118CHL1  H15B14938   0.335   0.889   5.527 -0.2628  0.9448  0.4983
  118CHL1   C1614939   0.518   0.849   5.428  0.7714  0.0914 -0.5249
  118CHL1  H16A14940   0.595   0.771   5.447  0.8553 -0.1455 -1.7528
  118CHL1  H16B14941   0.454   0.818   5.342  2.6972  0.8853 -2.3318
  118CHL1   C1714942   0.589   0.980   5.389 -0.4238 -0.0500 -0.1271
  118CHL1   H1714943   0.521   1.055   5.343  0.9163  1.6999  0.6612
  118CHL1   C1314944   0.622   1.039   5.533 -0.9285  0.2044  1.0647
  118CHL1   C1814945   0.748   0.966   5.587  0.0611 -0.1286 -0.8094
  118CHL1  H18A14946   0.721   0.862   5.614 -0.3291  0.6788  2.3306
  118CHL1  H18B14947   0.832   0.985   5.517  1.7924 -1.0409  0.9137
  118CHL1  H18C14948   0.774   1.022   5.680 -4.0280  0.6443  0.0424
  118CHL1   C1214949   0.631   1.197   5.539 -0.0035 -0.8349 -0.3863
  118CHL1  H12A14950   0.723   1.225   5.483  0.3357 -1.2724 -0.0654
  118CHL1  H12B14951   0.537   1.217   5.485  0.1957 -0.3795 -0.5702
  118CHL1   C1114952   0.633   1.240   5.682  0.9180 -0.0767 -0.0177
  118CHL1  H11A14953   0.736   1.213   5.715  0.8834 -1.3553 -0.9075
  118CHL1  H11B14954   0.620   1.351   5.685  1.4807  0.0855 -2.0501
  118CHL1    C914955   0.531   1.176   5.782 -0.1172  0.0563  0.7160
  118CHL1    H914956   0.434   1.214   5.744  0.5381 -0.6229 -1.8703
  118CHL1   C1014957   0.559   1.217   5.930 -0.1649  0.3894 -0.8566
  118CHL1   C1914958   0.703   1.174   5.967 -0.8917 -0.1490 -0.0479
  118CHL1  H19A14959   0.714   1.071   5.928 -2.3901 -0.3655  0.0379
  118CHL1  H19B14960   0.769   1.254   5.927 -2.6237  1.9978  1.1012
  118CHL1  H19C14961   0.713   1.177   6.078  1.3158 -1.6747 -0.1609
  118CHL1    C114962   0.543   1.374   5.941  0.6052  0.4096 -0.3251
  118CHL1   H1A14963   0.617   1.425   5.876  0.9375 -1.0242 -1.1204
  118CHL1   H1B14964   0.446   1.397   5.892  0.2268 -0.5653 -0.0716
  118CHL1    C214965   0.540   1.425   6.079 -0.0900  0.1434  0.3155
  118CHL1   H2A14966   0.530   1.536   6.079 -0.9956  0.0830 -1.2215
  118CHL1   H2B14967   0.639   1.403   6.124  0.6957  0.5416 -1.1569
  118CHL1   C2014968   0.704   0.958   5.279  0.7259 -0.4115 -0.2404
  118CHL1   H2014969   0.781   0.889   5.320 -0.1088 -0.1215  1.9373
  118CHL1   C2114970   0.781   1.093   5.261 -0.1758  0.1644 -1.1015
  118CHL1  H21A14971   0.713   1.177   5.235  1.2880  2.3505  1.6191
  118CHL1  H21B14972   0.861   1.084   5.185  2.3100 -0.7868  1.4637
  118CHL1  H21C14973   0.823   1.130   5.357 -1.6950 -0.3789 -0.1992
  118CHL1   C2214974   0.655   0.882   5.149 -0.3809 -0.2724 -0.4972
  118CHL1  H22A14975   0.660   0.773   5.170  0.1533 -0.5988 -2.1865
  118CHL1  H22B14976   0.549   0.907   5.128 -0.7110 -1.7914 -0.7864
  118CHL1   C2314977   0.749   0.915   5.039  0.1832  0.4587  0.9208
  118CHL1  H23A14978   0.722   1.010   4.988  0.4654  0.4944  0.8366
  118CHL1  H23B14979   0.856   0.903   5.069 -0.0659 -2.4197  0.9213
  118CHL1   C2414980   0.730   0.808   4.923 -0.1667  0.5861 -0.2504
  118CHL1  H24A14981   0.736   0.705   4.963 -2.6704 -1.0599 -3.6591
  118CHL1  H24B14982   0.637   0.814   4.863 -1.4854  1.2385  1.7646
  118CHL1   C2514983   0.839   0.826   4.815  0.3181  0.7184 -0.8669
  118CHL1   H2514984   0.842   0.935   4.792  0.8621  1.0085  0.4957
  118CHL1   C2614985   0.974   0.769   4.876 -0.4386  0.0436  0.6939
  118CHL1  H26A14986   0.965   0.663   4.909  0.1298 -0.1008  0.3919
  118CHL1  H26B14987   1.045   0.768   4.791  0.2314 -3.5843  1.1424
  118CHL1  H26C14988   1.017   0.827   4.960  2.1979  0.8475 -1.0826
  118CHL1   C2714989   0.801   0.743   4.692 -0.6909  0.7961  0.3514
  118CHL1  H27A14990   0.780   0.639   4.724 -1.4012  0.8165 -0.0190
  118CHL1  H27B14991   0.706   0.779   4.647 -1.1881 -0.5171  0.3316
  118CHL1  H27C14992   0.884   0.748   4.618  0.2476  2.2094  1.4499
  119CHL1    C314993   0.957   7.526   6.493 -1.1536 -0.4793  0.7329
  119CHL1    H314994   0.899   7.608   6.445 -1.3637 -0.5394  0.8849
  119CHL1    O314995   0.994   7.564   6.627 -0.5787  0.1657  0.3804
  119CHL1   H3'14996   1.062   7.631   6.615  1.6857 -1.9316  0.5245
  119CHL1    C414997   0.859   7.410   6.493 -0.0263  0.8312 -0.6278
  119CHL1   H4A14998   0.901   7.325   6.550 -0.4757  0.4152 -0.9121
  119CHL1   H4B14999   0.763   7.442   6.538 -0.9647 -1.8745 -0.5406
  119CHL1    C515000   0.835   7.372   6.344  0.9788  0.5554 -0.9090
  119CHL1    C615001   0.709   7.376   6.300  0.1299 -0.0998  0.9128
  119CHL1    H615002   0.631   7.419   6.364 -2.2984  0.9962 -2.4765
  119CHL1    C715003   0.664   7.346   6.156 -0.1727  0.4723 -0.5398
  119CHL1   H7A15004   0.561   7.307   6.145 -1.3812  2.8500  1.3368
  119CHL1   H7B15005   0.659   7.443   6.101 -0.7738  0.3350 -0.7274
  119CHL1    C815006   0.774   7.263   6.082  0.1242 -0.5324  0.3840
  119CHL1    H815007   0.781   7.162   6.128  1.1160 -1.2356 -1.2090
  119CHL1   C1415008   0.735   7.271   5.931 -0.1271 -0.2101  0.0544
  119CHL1   H1415009   0.755   7.378   5.907 -1.0605 -0.3291 -1.3851
  119CHL1   C1515010   0.589   7.241   5.898 -0.5049 -0.4716  0.5432
  119CHL1  H15A15011   0.559   7.150   5.954  1.2581 -0.9994  0.6713
  119CHL1  H15B15012   0.521   7.327   5.920  1.8697  1.7653 -0.3659
  119CHL1   C1615013   0.603   7.207   5.746  0.2362  0.2046 -0.6350
  119CHL1  H16A15014   0.570   7.102   5.732  3.2891 -1.3186  2.2282
  119CHL1  H16B15015   0.530   7.271   5.692 -1.4605 -0.2758  1.0221
  119CHL1   C1715016   0.755   7.222   5.702 -0.3895 -0.4496  0.2664
  119CHL1   H1715017   0.754   7.332   5.687 -3.5687 -0.3804  0.3713
  119CHL1   C1315018   0.828   7.194   5.833 -0.1245 -0.5026 -0.1261
  119CHL1   C1815019   0.832   7.042   5.853 -0.0048 -0.0371 -0.5109
  119CHL1  H18A15020   0.728   7.004   5.848  0.5350 -1.6693 -0.0020
  119CHL1  H18B15021   0.889   6.991   5.773 -1.4950 -1.5497 -0.6756
  119CHL1  H18C15022   0.881   7.002   5.945  2.0882  2.2175 -0.5475
  119CHL1   C1215023   0.972   7.256   5.862  0.2073 -0.0610  0.6774
  119CHL1  H12A15024   1.057   7.212   5.806 -1.1666  0.1490 -1.6728
  119CHL1  H12B15025   0.967   7.363   5.835  1.3290 -0.5016 -1.4878
  119CHL1   C1115026   1.010   7.246   6.011  0.0178 -0.4447  0.8747
  119CHL1  H11A15027   1.019   7.142   6.048  3.5232 -0.8591 -0.7368
  119CHL1  H11B15028   1.114   7.283   6.012 -1.1183  3.3608 -1.2928
  119CHL1    C915029   0.913   7.323   6.102  0.2356  0.0126  0.4991
  119CHL1    H915030   0.905   7.427   6.062  1.2709 -1.4089 -3.9180
  119CHL1   C1015031   0.957   7.343   6.250  1.5072  0.2592  0.2218
  119CHL1   C1915032   1.010   7.201   6.303 -0.6418  0.1911 -0.0576
  119CHL1  H19A15033   1.102   7.178   6.244 -0.3284 -0.8387  0.8084
  119CHL1  H19B15034   1.030   7.206   6.412  1.8907  2.9536 -0.4953
  119CHL1  H19C15035   0.933   7.124   6.283  0.1954 -0.2847 -1.6160
  119CHL1    C115036   1.054   7.463   6.267 -0.2467  0.1250  0.2617
  119CHL1   H1A15037   1.143   7.423   6.213 -1.3072 -1.4826 -0.3685
  119CHL1   H1B15038   1.011   7.557   6.225 -0.1598  0.3379  0.6424
  119CHL1    C215039   1.089   7.500   6.407 -0.4275 -0.0794 -0.6867
  119CHL1   H2A15040   1.155   7.589   6.418  0.8550 -1.2724  2.6327
  119CHL1   H2B15041   1.146   7.415   6.450  0.7281 -0.4000 -2.7333
  119CHL1   C2015042   0.794   7.155   5.574 -0.2531  0.6757 -0.1527
  119CHL1   H2015043   0.802   7.046   5.593  0.6483  1.0078  1.5961
  119CHL1   C2115044   0.933   7.216   5.530  0.0015 -0.3034  0.4967
  119CHL1  H21A15045   0.919   7.319   5.491  1.2445  0.1253  1.1136
  119CHL1  H21B15046   0.985   7.154   5.454  0.8337 -0.4955  1.1955
  119CHL1  H21C15047   1.008   7.230   5.611  0.1364  0.0105  0.3177
  119CHL1   C2215048   0.691   7.175   5.462 -0.1641  0.9998  0.0725
  119CHL1  H22A15049   0.595   7.132   5.498  0.4979  0.0053  0.6856
  119CHL1  H22B15050   0.689   7.286   5.454  0.8974  0.8924 -2.9606
  119CHL1   C2315051   0.733   7.113   5.327  0.1347  0.5062  0.8427
  119CHL1  H23A15052   0.836   7.145   5.302  0.7127 -1.8472 -0.0079
  119CHL1  H23B15053   0.758   7.005   5.342  1.4798  0.5603 -0.7257
  119CHL1   C2415054   0.624   7.139   5.211 -0.2761  0.8569  0.3765
  119CHL1  H24A15055   0.530   7.097   5.253  0.1845 -0.3430  0.2477
  119CHL1  H24B15056   0.598   7.244   5.185 -0.4229  0.7305  0.0125
  119CHL1   C2515057   0.660   7.072   5.083 -0.2018 -0.5511 -0.3376
  119CHL1   H2515058   0.676   6.965   5.110  0.8857 -0.2941  0.0843
  119CHL1   C2615059   0.546   7.077   4.983  0.4256  0.2711  0.0459
  119CHL1  H26A15060   0.450   7.051   5.032  0.9961 -0.5616  0.7687
  119CHL1  H26B15061   0.526   7.178   4.942 -0.6648 -0.5472 -1.5388
  119CHL1  H26C15062   0.567   7.010   4.897 -0.0805 -0.4146  0.4492
  119CHL1   C2715063   0.788   7.118   5.012  0.1778  1.0398 -0.1910
  119CHL1  H27A15064   0.876   7.084   5.071  0.5099  2.9933  0.5015
  119CHL1  H27B15065   0.805   7.079   4.909  1.1853  0.2646  0.2455
  119CHL1  H27C15066   0.779   7.229   5.005 -1.8162  1.1388  2.3441
  120CHL1    C315067   0.336   0.555   6.743 -1.0807 -0.2778  0.6168
  120CHL1    H315068   0.244   0.614   6.765 -0.6217  0.7109 -0.0720
  120CHL1    O315069   0.405   0.518   6.857 -0.3065 -0.0159 -0.1728
  120CHL1   H3'15070   0.497   0.547   6.850 -0.8182  1.6620 -0.4153
  120CHL1    C415071   0.307   0.423   6.669 -0.4801 -0.0083 -0.5043
  120CHL1   H4A15072   0.403   0.373   6.643 -0.8612 -2.6061  2.5330
  120CHL1   H4B15073   0.263   0.343   6.732  1.1889 -1.0811 -0.6407
  120CHL1    C515074   0.233   0.452   6.542  0.4178 -0.1544  0.4502
  120CHL1    C615075   0.113   0.392   6.515 -0.5822  0.6683  0.0771
  120CHL1    H615076   0.071   0.321   6.587 -0.2205  0.7726  0.3938
  120CHL1    C715077   0.030   0.414   6.388 -0.7240  0.3732  0.4923
  120CHL1   H7A15078  -0.004   0.318   6.343 -0.4992  0.9549 -0.9672
  120CHL1   H7B15079  -0.053   0.485   6.406 -0.1874  1.1770 -0.1517
  120CHL1    C815080   0.119   0.477   6.271 -0.2654 -0.3539  0.8761
  120CHL1    H815081   0.191   0.401   6.233 -1.0098 -1.5716  1.8225
  120CHL1   C1415082   0.037   0.523   6.160 -0.2190  0.7375  0.3257
  120CHL1   H1415083  -0.038   0.595   6.199  0.1558  0.3905  1.7632
  120CHL1   C1515084  -0.057   0.414   6.105  0.7137 -0.0335  0.7090
  120CHL1  H15A15085  -0.008   0.314   6.106 -0.6806 -0.7480  0.5908
  120CHL1  H15B15086  -0.153   0.412   6.162  0.4771  0.8407  0.3491
  120CHL1   C1615087  -0.081   0.459   5.959  1.1348 -0.0262 -0.6726
  120CHL1  H16A15088  -0.031   0.395   5.883  0.2925 -1.5026 -0.0209
  120CHL1  H16B15089  -0.192   0.466   5.951  0.8196 -0.5047  2.2081
  120CHL1   C1715090  -0.008   0.601   5.944 -0.0243  0.4156  0.0480
  120CHL1   H1715091  -0.079   0.676   5.984  0.0594  0.0718  0.8807
  120CHL1   C1315092   0.111   0.593   6.046 -0.4119 -0.8397  0.5036
  120CHL1   C1815093   0.226   0.512   5.981 -0.2561 -0.0719 -0.1516
  120CHL1  H18A15094   0.291   0.571   5.912  3.4453 -1.3733  1.9715
  120CHL1  H18B15095   0.293   0.480   6.063 -0.0866  0.5553 -0.0417
  120CHL1  H18C15096   0.181   0.426   5.927 -1.6818 -0.9896  2.3272
  120CHL1   C1215097   0.164   0.729   6.103 -1.0699  0.3682 -0.3141
  120CHL1  H12A15098   0.229   0.782   6.030  0.7275  0.4463  1.2893
  120CHL1  H12B15099   0.076   0.790   6.132 -0.3931  0.6803  1.1319
  120CHL1   C1115100   0.257   0.693   6.220 -0.3829  0.0603 -0.3162
  120CHL1  H11A15101   0.349   0.642   6.183  0.1953 -1.0056  2.3225
  120CHL1  H11B15102   0.274   0.786   6.278 -0.0162 -0.5080  0.5140
  120CHL1    C915103   0.196   0.603   6.334 -0.1767  0.2000 -0.0017
  120CHL1    H915104   0.120   0.670   6.379  0.3088  1.6654 -1.2766
  120CHL1   C1015105   0.298   0.558   6.446 -0.7574 -0.1671 -0.4682
  120CHL1   C1915106   0.416   0.488   6.376 -0.0383 -0.2882  0.4965
  120CHL1  H19A15107   0.500   0.457   6.441  0.9540  3.1620  1.0360
  120CHL1  H19B15108   0.388   0.393   6.326 -0.3622  0.1012 -0.0765
  120CHL1  H19C15109   0.469   0.559   6.309 -0.4491 -0.1294  0.3314
  120CHL1    C115110   0.354   0.685   6.525  0.3373 -0.0607 -0.1308
  120CHL1   H1A15111   0.421   0.752   6.465 -1.3913  1.9961  0.1124
  120CHL1   H1B15112   0.261   0.741   6.547  0.9651  0.8620  0.2568
  120CHL1    C215113   0.427   0.655   6.658 -0.1800 -0.6730  0.1260
  120CHL1   H2A15114   0.443   0.753   6.707  0.3435 -0.6223 -0.1395
  120CHL1   H2B15115   0.523   0.603   6.641 -0.6448 -1.5413  0.0788
  120CHL1   C2015116   0.030   0.638   5.799 -0.2014  0.2434  0.4539
  120CHL1   H2015117   0.113   0.574   5.762 -0.4590 -0.7115  1.4759
  120CHL1   C2115118   0.094   0.784   5.798  0.0235  0.2057  0.5546
  120CHL1  H21A15119   0.044   0.853   5.868 -0.9572  0.5407 -0.4418
  120CHL1  H21B15120   0.089   0.832   5.698  0.4194 -0.4526  0.2043
  120CHL1  H21C15121   0.202   0.783   5.823  0.2705  1.5664 -0.3401
  120CHL1   C2215122  -0.096   0.623   5.701  0.5171  0.5664 -0.0226
  120CHL1  H22A15123  -0.186   0.584   5.753 -0.8197  2.9133 -0.4096
  120CHL1  H22B15124  -0.131   0.726   5.676 -0.5326  0.0143 -0.9155
  120CHL1   C2315125  -0.063   0.550   5.569 -0.0050 -0.0546  0.0612
  120CHL1  H23A15126  -0.002   0.627   5.518  2.0145 -0.9021  1.0656
  120CHL1  H23B15127  -0.008   0.457   5.598 -0.1278  0.0220  0.5531
  120CHL1   C2415128  -0.191   0.520   5.478 -0.5217 -0.5957 -0.3466
  120CHL1  H24A15129  -0.248   0.441   5.530 -0.0408 -1.0625 -0.5117
  120CHL1  H24B15130  -0.259   0.607   5.473 -0.6945 -0.7558 -0.8228
  120CHL1   C2515131  -0.153   0.467   5.341 -0.2533  0.1554  0.3199
  120CHL1   H2515132  -0.107   0.551   5.286  2.4034 -1.8139 -0.6781
  120CHL1   C2615133  -0.042   0.358   5.342  0.0535  0.2411 -0.0196
  120CHL1  H26A15134  -0.046   0.308   5.242 -1.8255  2.0331 -0.9262
  120CHL1  H26B15135   0.056   0.410   5.341  1.2731 -1.8920  0.3691
  120CHL1  H26C15136  -0.055   0.285   5.425 -2.3370 -0.2624 -0.7492
  120CHL1   C2715137  -0.276   0.416   5.258 -0.0172 -0.3711  0.1754
  120CHL1  H27A15138  -0.340   0.507   5.251  1.3693  0.5709 -0.6198
  120CHL1  H27B15139  -0.243   0.389   5.156  0.5484 -0.5298  0.3976
  120CHL1  H27C15140  -0.333   0.339   5.314 -0.6582 -0.8898 -1.1335
  121CHL1    C315141   4.104   4.178   3.476  0.6072  0.1478 -0.1073
  121CHL1    H315142   4.101   4.285   3.505  2.6566  0.4804 -1.0107
  121CHL1    O315143   4.180   4.165   3.359  0.1963 -0.0260  0.1327
  121CHL1   H3'15144   4.209   4.073   3.359 -0.7257 -0.4098  2.9198
  121CHL1    C415145   4.180   4.094   3.586  0.1307 -0.0990  0.7042
  121CHL1   H4A15146   4.187   3.987   3.555  0.4158 -0.1477  0.9390
  121CHL1   H4B15147   4.278   4.139   3.609 -0.5098  2.3541 -0.9191
  121CHL1    C515148   4.100   4.103   3.717 -0.2236 -0.0942  0.0081
  121CHL1    C615149   4.157   4.167   3.819  0.4712 -0.1885  0.0322
  121CHL1    H615150   4.263   4.196   3.815  0.2605  0.5079 -0.9522
  121CHL1    C715151   4.088   4.188   3.958 -0.0153  0.2836  0.0393
  121CHL1   H7A15152   4.161   4.158   4.036  1.4592  1.6802 -0.7223
  121CHL1   H7B15153   4.075   4.297   3.977 -2.1069 -0.4401  3.4829
  121CHL1    C815154   3.957   4.113   3.970  0.6759  0.5692 -0.5603
  121CHL1    H815155   3.990   4.007   3.982 -0.8226  0.0984 -0.4307
  121CHL1   C1415156   3.876   4.159   4.098  0.4128  0.4209 -0.1865
  121CHL1   H1415157   3.852   4.267   4.082 -1.3041  0.2951  1.2888
  121CHL1   C1515158   3.963   4.156   4.225  0.1505  0.2005  0.2995
  121CHL1  H15A15159   4.009   4.055   4.222 -0.0047  0.0989 -4.0760
  121CHL1  H15B15160   4.037   4.238   4.237  0.7756  0.0396 -1.9752
  121CHL1   C1615161   3.845   4.163   4.324 -0.0955 -0.1815  0.1652
  121CHL1  H16A15162   3.850   4.067   4.380  0.2595 -0.2777 -0.0319
  121CHL1  H16B15163   3.840   4.245   4.399 -3.0447 -0.6970  0.6282
  121CHL1   C1715164   3.708   4.155   4.240 -0.4002  0.5600 -0.7228
  121CHL1   H1715165   3.684   4.261   4.215  1.9066  1.3197  0.0242
  121CHL1   C1315166   3.743   4.084   4.106 -0.0843 -0.5938 -0.1748
  121CHL1   C1815167   3.772   3.941   4.139 -0.4280 -0.0730 -0.7999
  121CHL1  H18A15168   3.827   3.885   4.060  0.9083 -0.9753  0.7184
  121CHL1  H18B15169   3.827   3.928   4.234 -3.5912 -1.0503  1.0511
  121CHL1  H18C15170   3.689   3.869   4.153  1.0732 -1.4943  1.3461
  121CHL1   C1215171   3.663   4.102   3.979 -0.2937 -0.4056  0.4789
  121CHL1  H12A15172   3.572   4.039   3.970 -0.9940 -0.0018  3.5541
  121CHL1  H12B15173   3.631   4.208   3.967  0.0122 -0.3490  0.1610
  121CHL1   C1115174   3.737   4.056   3.851 -0.6510 -0.3596 -0.3255
  121CHL1  H11A15175   3.749   3.946   3.863 -0.6910 -0.3291  0.0154
  121CHL1  H11B15176   3.684   4.085   3.758 -0.2473 -0.1116 -0.4790
  121CHL1    C915177   3.880   4.113   3.841  0.0318 -0.1855  0.4894
  121CHL1    H915178   3.867   4.222   3.825  1.2263  0.0516  1.0425
  121CHL1   C1015179   3.954   4.059   3.719 -0.8297 -0.1664  0.4996
  121CHL1   C1915180   3.936   3.901   3.710 -0.5051 -0.0070  0.0292
  121CHL1  H19A15181   3.828   3.884   3.690 -0.6643  1.9028 -0.9474
  121CHL1  H19B15182   3.990   3.861   3.622  1.8517  2.0827  0.4216
  121CHL1  H19C15183   3.966   3.855   3.806 -0.8662 -0.0570  0.1211
  121CHL1    C115184   3.883   4.121   3.593  0.5994 -0.3482  0.3364
  121CHL1   H1A15185   3.785   4.076   3.567  0.1641  0.5285  0.4116
  121CHL1   H1B15186   3.869   4.231   3.607  1.8291  0.1948 -2.0864
  121CHL1    C215187   3.959   4.117   3.462 -0.3295  0.5055  0.3052
  121CHL1   H2A15188   3.919   4.182   3.382  1.2549  0.4583 -0.5703
  121CHL1   H2B15189   3.975   4.015   3.421 -0.5304  0.8476 -0.6502
  121CHL1   C2015190   3.588   4.103   4.323  0.2018 -0.9890  0.0073
  121CHL1   H2015191   3.627   4.011   4.372  1.3571 -0.2692  0.4810
  121CHL1   C2115192   3.466   4.067   4.242 -0.3955  0.5421  0.3230
  121CHL1  H21A15193   3.485   4.001   4.154  0.9441 -0.8475  1.5905
  121CHL1  H21B15194   3.401   4.150   4.208 -2.2459 -0.3245  1.5760
  121CHL1  H21C15195   3.402   4.010   4.313  0.5105  0.2914  0.9572
  121CHL1   C2215196   3.539   4.199   4.436 -0.3642 -0.3456 -0.0286
  121CHL1  H22A15197   3.626   4.256   4.477  0.4822 -2.1961  0.8706
  121CHL1  H22B15198   3.464   4.275   4.407 -1.7882 -0.8657  2.0864
  121CHL1   C2315199   3.495   4.119   4.561  0.1276 -0.2741 -0.3264
  121CHL1  H23A15200   3.398   4.073   4.534  0.0319 -0.7921  0.8609
  121CHL1  H23B15201   3.562   4.034   4.585  0.0742 -0.4497 -0.7950
  121CHL1   C2415202   3.470   4.209   4.685  0.1630  0.3175 -0.3351
  121CHL1  H24A15203   3.416   4.297   4.644  0.7918  1.7192  1.6445
  121CHL1  H24B15204   3.403   4.155   4.756 -1.3268  0.4697 -1.5652
  121CHL1   C2515205   3.595   4.250   4.758 -0.3553 -0.3655  0.4177
  121CHL1   H2515206   3.655   4.313   4.688 -0.5853 -0.1959  0.3685
  121CHL1   C2615207   3.566   4.338   4.872 -0.5005  0.2334 -0.3418
  121CHL1  H26A15208   3.516   4.299   4.964  0.2885 -0.7873 -0.3307
  121CHL1  H26B15209   3.651   4.401   4.907 -0.6368  0.0881  0.2615
  121CHL1  H26C15210   3.490   4.411   4.835  1.0302  1.3327 -1.4324
  121CHL1   C2715211   3.684   4.139   4.808  0.1666  0.3123  0.0399
  121CHL1  H27A15212   3.705   4.071   4.722 -1.1273 -0.3061  0.1842
  121CHL1  H27B15213   3.777   4.178   4.854  0.1180 -0.9231  1.2540
  121CHL1  H27C15214   3.629   4.094   4.894 -0.9087 -0.0585 -0.8089
  122CHL1    C315215   3.438   4.813   3.653 -0.2806 -1.0137  1.0328
  122CHL1    H315216   3.396   4.714   3.681 -0.0039 -1.3952  0.1254
  122CHL1    O315217   3.445   4.810   3.515 -0.7598 -0.0227  0.1347
  122CHL1   H3'15218   3.454   4.894   3.470  0.9758 -2.2738 -4.3489
  122CHL1    C415219   3.339   4.918   3.690 -0.1634  0.3124 -0.5141
  122CHL1   H4A15220   3.358   5.013   3.635  0.1017 -0.0935 -1.1324
  122CHL1   H4B15221   3.244   4.878   3.648  0.1789 -4.0482  2.2164
  122CHL1    C515222   3.332   4.937   3.841 -0.4592  0.2006 -0.1861
  122CHL1    C615223   3.216   4.920   3.906  0.5866 -0.1168  0.0034
  122CHL1    H615224   3.124   4.903   3.848 -0.3684 -0.1472  1.4785
  122CHL1    C715225   3.198   4.938   4.054 -0.0305  0.0674  0.0231
  122CHL1   H7A15226   3.111   4.999   4.087  0.7976  0.1290  2.2272
  122CHL1   H7B15227   3.186   4.833   4.089 -4.3070  0.5205  0.4476
  122CHL1    C815228   3.321   5.010   4.114  0.3930  0.3027 -0.7034
  122CHL1    H815229   3.317   5.115   4.078  1.4083  0.5061 -0.2486
  122CHL1   C1415230   3.307   4.993   4.263  0.8788  0.7740  0.0314
  122CHL1   H1415231   3.326   4.886   4.289 -1.5116  0.4936  0.8773
  122CHL1   C1515232   3.181   5.031   4.339 -0.0568 -0.6239  0.2439
  122CHL1  H15A15233   3.158   5.138   4.322  2.2847  0.0254  0.7942
  122CHL1  H15B15234   3.091   4.975   4.306 -1.2497  0.8451  0.8930
  122CHL1   C1615235   3.215   5.010   4.484  0.0079 -0.6603  0.2679
  122CHL1  H16A15236   3.169   5.088   4.549 -2.5623  0.4151 -2.5887
  122CHL1  H16B15237   3.180   4.909   4.513 -3.2126 -0.4657 -2.3230
  122CHL1   C1715238   3.365   5.012   4.484 -0.4002 -0.1167 -0.9394
  122CHL1   H1715239   3.390   4.904   4.488 -2.0936 -0.5013 -0.0352
  122CHL1   C1315240   3.420   5.057   4.348  0.5838  0.5888  0.5420
  122CHL1   C1815241   3.422   5.215   4.323 -0.5275  0.1373 -0.6160
  122CHL1  H18A15242   3.335   5.258   4.379 -0.2750 -2.0666  1.6655
  122CHL1  H18B15243   3.504   5.267   4.377 -0.1676 -2.5622  1.6811
  122CHL1  H18C15244   3.427   5.247   4.217  1.7339 -0.8865 -0.8612
  122CHL1   C1215245   3.552   4.993   4.302  0.2368  0.1021  0.2368
  122CHL1  H12A15246   3.640   5.037   4.354 -0.6856  0.8922  1.1759
  122CHL1  H12B15247   3.556   4.884   4.322 -0.0676 -0.0580 -0.5454
  122CHL1   C1115248   3.572   5.003   4.144  0.3708  0.7526 -0.2926
  122CHL1  H11A15249   3.586   5.110   4.117 -0.9839  1.4024  1.4236
  122CHL1  H11B15250   3.666   4.946   4.126  0.9220  1.5993 -0.1843
  122CHL1    C915251   3.450   4.954   4.061  0.0282 -0.0475 -0.0066
  122CHL1    H915252   3.445   4.845   4.079  2.5148  0.0286  1.6825
  122CHL1   C1015253   3.466   4.970   3.909  0.2906  0.7078  0.3595
  122CHL1   C1915254   3.515   5.113   3.869 -0.4082 -0.2422  0.1585
  122CHL1  H19A15255   3.465   5.198   3.919 -0.7171 -0.5509  0.3872
  122CHL1  H19B15256   3.620   5.125   3.901  0.1149 -1.1907 -1.0939
  122CHL1  H19C15257   3.497   5.130   3.761  0.6279  3.6833  0.4560
  122CHL1    C115258   3.571   4.864   3.857  0.1786 -0.0859 -0.8536
  122CHL1   H1A15259   3.674   4.889   3.889  1.0842 -0.9538 -2.9444
  122CHL1   H1B15260   3.549   4.770   3.912 -0.0551  0.1619 -0.5166
  122CHL1    C215261   3.581   4.841   3.711  0.6153 -0.2043 -0.3947
  122CHL1   H2A15262   3.648   4.753   3.702  3.2577  1.3729  2.1113
  122CHL1   H2B15263   3.621   4.923   3.646  0.2765 -0.3978 -0.8542
  122CHL1   C2015264   3.421   5.082   4.613  0.3096 -0.3516  0.0532
  122CHL1   H2015265   3.390   5.188   4.605 -1.6766 -0.9980 -2.2762
  122CHL1   C2115266   3.572   5.076   4.605 -0.1731  0.0088 -0.0226
  122CHL1  H21A15267   3.598   4.970   4.586  0.2986 -0.4073  2.6232
  122CHL1  H21B15268   3.610   5.099   4.707 -2.4844 -2.1791  1.4500
  122CHL1  H21C15269   3.601   5.158   4.536  1.5903 -0.3024  0.3154
  122CHL1   C2215270   3.360   5.039   4.749  0.1305 -0.1191  0.3360
  122CHL1  H22A15271   3.389   5.117   4.823 -0.4971  0.3053  0.1436
  122CHL1  H22B15272   3.249   5.041   4.739  0.2323 -0.7974 -1.3265
  122CHL1   C2315273   3.406   4.900   4.788 -0.5870 -0.4905  0.3129
  122CHL1  H23A15274   3.380   4.828   4.708  1.4669 -0.6004 -0.3194
  122CHL1  H23B15275   3.517   4.899   4.779 -0.6320  0.0535 -0.3438
  122CHL1   C2415276   3.356   4.861   4.930 -0.6853 -0.8154  0.4787
  122CHL1  H24A15277   3.412   4.909   5.013  1.1315 -2.5827  0.3711
  122CHL1  H24B15278   3.253   4.902   4.941 -1.4724 -2.5135 -0.2386
  122CHL1   C2515279   3.354   4.709   4.947  0.3168 -0.0371  0.4861
  122CHL1   H2515280   3.336   4.674   4.844  0.8602  1.9490 -0.3260
  122CHL1   C2615281   3.491   4.665   4.985 -0.2911  1.1490 -0.1515
  122CHL1  H26A15282   3.496   4.557   5.012 -3.2574  0.4004 -2.0652
  122CHL1  H26B15283   3.562   4.674   4.900  3.1604 -2.0595  2.0490
  122CHL1  H26C15284   3.527   4.722   5.073 -1.8235  1.5004  0.2773
  122CHL1   C2715285   3.246   4.667   5.050  0.4061  0.3082  0.3726
  122CHL1  H27A15286   3.263   4.701   5.155 -1.3985  0.2975  0.7003
  122CHL1  H27B15287   3.142   4.696   5.022  0.6258  0.7478  0.0012
  122CHL1  H27C15288   3.240   4.556   5.052  1.3401  0.0015 -4.1998
  123CHL1    C315289   4.925   3.623   3.791  0.7711  0.4867  0.0531
  123CHL1    H315290   4.818   3.591   3.789 -0.3093  3.6293  1.0649
  123CHL1    O315291   4.965   3.666   3.656 -0.1176 -0.2416  0.0073
  123CHL1   H3'15292   4.925   3.598   3.601 -1.2587  0.0682  0.4248
  123CHL1    C415293   4.931   3.752   3.882 -0.1814  0.4864  0.6844
  123CHL1   H4A15294   5.039   3.775   3.875 -0.6247  2.3301 -1.5936
  123CHL1   H4B15295   4.875   3.835   3.833 -0.0445 -0.0589 -0.4082
  123CHL1    C515296   4.898   3.709   4.026  0.4089  0.2960 -0.1561
  123CHL1    C615297   4.792   3.751   4.098 -0.5764 -0.2708  0.1693
  123CHL1    H615298   4.722   3.825   4.056  0.6072  1.1517  0.6130
  123CHL1    C715299   4.761   3.705   4.241  0.1185  0.6874  0.4722
  123CHL1   H7A15300   4.729   3.787   4.308 -1.7323  2.3607 -2.2492
  123CHL1   H7B15301   4.683   3.626   4.242  0.2021  0.6099  1.0603
  123CHL1    C815302   4.879   3.634   4.315 -0.0602  0.1196 -0.1527
  123CHL1    H815303   4.950   3.716   4.338  1.5813 -1.3359  0.1890
  123CHL1   C1415304   4.832   3.570   4.445  0.7044 -0.4862 -0.5244
  123CHL1   H1415305   4.763   3.486   4.424 -1.6510  0.8337  1.5165
  123CHL1   C1515306   4.746   3.653   4.546 -0.1472 -0.6000  0.7330
  123CHL1  H15A15307   4.772   3.760   4.535  0.9377 -0.8846  0.4145
  123CHL1  H15B15308   4.636   3.656   4.530 -0.1119 -1.4924  0.2450
  123CHL1   C1615309   4.782   3.598   4.681 -0.1896 -0.3692 -0.2172
  123CHL1  H16A15310   4.841   3.683   4.723 -0.3640  0.4461 -1.5784
  123CHL1  H16B15311   4.693   3.590   4.746  0.1248  2.2677  0.6880
  123CHL1   C1715312   4.863   3.471   4.653 -0.0370 -0.6844  0.1329
  123CHL1   H1715313   4.794   3.390   4.623 -1.1454  0.2119  0.1744
  123CHL1   C1315314   4.943   3.508   4.519  0.0142  0.0905 -0.1404
  123CHL1   C1815315   5.053   3.604   4.559 -0.7186  0.3928  0.4695
  123CHL1  H18A15316   5.116   3.644   4.477  0.2788  0.0545  1.0531
  123CHL1  H18B15317   5.016   3.680   4.631 -1.4983  1.8041 -1.3210
  123CHL1  H18C15318   5.134   3.552   4.614  0.0870 -0.5425 -1.4897
  123CHL1   C1215319   4.999   3.395   4.427 -0.3048  0.2946 -0.1260
  123CHL1  H12A15320   5.093   3.361   4.475  0.3481  1.6682 -0.3726
  123CHL1  H12B15321   4.925   3.316   4.403 -2.0819  2.2227 -1.4324
  123CHL1   C1115322   5.046   3.445   4.290 -0.1069 -0.1478 -0.4337
  123CHL1  H11A15323   5.134   3.508   4.313 -1.3040  1.0785  1.0349
  123CHL1  H11B15324   5.071   3.359   4.225  0.8505  0.0643 -0.3556
  123CHL1    C915325   4.946   3.530   4.222  0.7281 -0.6622  0.3962
  123CHL1    H915326   4.865   3.457   4.200  0.7200 -1.4998  2.8373
  123CHL1   C1015327   4.998   3.593   4.087  0.0276  0.4665  0.2770
  123CHL1   C1915328   5.136   3.652   4.102 -0.1011 -0.3162  0.0719
  123CHL1  H19A15329   5.136   3.734   4.177 -1.8277  0.6420 -0.9098
  123CHL1  H19B15330   5.207   3.580   4.148 -0.0547  0.1617  0.7606
  123CHL1  H19C15331   5.172   3.683   4.002  1.4632 -2.1561 -0.0002
  123CHL1    C115332   5.004   3.477   3.984  0.9013  0.0440 -0.2011
  123CHL1   H1A15333   5.085   3.407   4.010 -0.4838 -1.5957 -0.1179
  123CHL1   H1B15334   4.909   3.420   3.991  1.0201 -0.4898 -2.3835
  123CHL1    C215335   5.022   3.515   3.835 -0.1697  0.0554 -0.4036
  123CHL1   H2A15336   5.014   3.425   3.770 -1.0218 -0.5749  0.5312
  123CHL1   H2B15337   5.125   3.555   3.824 -0.9466  1.4065 -3.7036
  123CHL1   C2015338   4.942   3.417   4.771  0.6496  0.1297  0.6346
  123CHL1   H2015339   5.035   3.478   4.780  0.3953  0.7979 -0.8880
  123CHL1   C2115340   4.990   3.271   4.736 -0.1843  0.3588  0.6035
  123CHL1  H21A15341   4.899   3.208   4.730  0.3099 -0.2117 -2.9805
  123CHL1  H21B15342   5.065   3.228   4.806  0.0784  1.0730  0.7671
  123CHL1  H21C15343   5.044   3.267   4.639 -0.9018  2.3420  0.0859
  123CHL1   C2215344   4.864   3.429   4.906 -0.1361  0.0808 -0.5091
  123CHL1  H22A15345   4.826   3.532   4.925  2.2914  1.4980 -2.5921
  123CHL1  H22B15346   4.775   3.363   4.907  1.3813 -2.0738  1.6723
  123CHL1   C2315347   4.955   3.382   5.028 -0.4138 -0.1306  0.4859
  123CHL1  H23A15348   4.994   3.279   5.011  0.8419  0.4285 -0.1922
  123CHL1  H23B15349   5.040   3.453   5.037 -0.4703 -0.0839  0.6514
  123CHL1   C2415350   4.874   3.393   5.157  0.2430  0.0557 -0.6397
  123CHL1  H24A15351   4.826   3.493   5.167  0.1847 -0.1419  1.2896
  123CHL1  H24B15352   4.794   3.317   5.145 -0.0944  0.3489 -0.2839
  123CHL1   C2515353   4.959   3.343   5.277  0.4370 -0.7209  0.4544
  123CHL1   H2515354   5.066   3.373   5.272  0.0994  0.6019  0.8503
  123CHL1   C2615355   4.891   3.381   5.404 -0.2744 -0.1677  0.5558
  123CHL1  H26A15356   4.906   3.486   5.438 -2.1693  0.4138 -0.2717
  123CHL1  H26B15357   4.781   3.366   5.396 -0.6759  3.0291 -1.2472
  123CHL1  H26C15358   4.917   3.320   5.494 -0.8691 -0.3931  0.5844
  123CHL1   C2715359   4.969   3.189   5.277 -0.1080  0.5217 -0.3972
  123CHL1  H27A15360   5.012   3.145   5.184 -0.7755  0.3250 -0.6180
  123CHL1  H27B15361   5.028   3.157   5.366  0.1352  2.2467  0.0981
  123CHL1  H27C15362   4.866   3.149   5.282  0.0817  0.0655  0.0070
  124CHL1    C315363   3.955   5.569   3.319 -0.5576  0.3943  0.1550
  124CHL1    H315364   3.956   5.458   3.329 -0.7017  0.3201 -0.6087
  124CHL1    O315365   3.978   5.610   3.184 -0.2882  0.3417  0.0471
  124CHL1   H3'15366   3.958   5.703   3.191  1.8628  0.8556  0.1966
  124CHL1    C415367   3.825   5.629   3.377  0.3095  0.2547 -0.7950
  124CHL1   H4A15368   3.820   5.735   3.344 -2.1885  0.3288 -0.4111
  124CHL1   H4B15369   3.743   5.578   3.322 -0.4637  0.4196  0.1805
  124CHL1    C515370   3.823   5.589   3.524  0.7453  0.1966 -0.7100
  124CHL1    C615371   3.727   5.519   3.581 -0.2609  0.0154  0.0173
  124CHL1    H615372   3.637   5.485   3.528 -0.7603  0.7933  0.3509
  124CHL1    C715373   3.707   5.473   3.725 -0.0130  0.4078 -0.4128
  124CHL1   H7A15374   3.600   5.482   3.751  0.3259 -0.5258  1.5464
  124CHL1   H7B15375   3.728   5.364   3.713 -0.5287  0.3973 -1.2315
  124CHL1    C815376   3.802   5.548   3.808 -0.0128  0.3681 -0.4286
  124CHL1    H815377   3.763   5.650   3.821 -1.1763  0.4241 -3.4986
  124CHL1   C1415378   3.824   5.482   3.948 -0.6068 -0.1795  0.2483
  124CHL1   H1415379   3.869   5.381   3.933 -0.8787 -0.2134 -0.3761
  124CHL1   C1515380   3.698   5.455   4.026 -0.1207  0.1436  0.2028
  124CHL1  H15A15381   3.635   5.545   4.038 -1.2617 -0.5239 -0.6071
  124CHL1  H15B15382   3.623   5.383   3.986  0.9755 -1.5905  1.1423
  124CHL1   C1615383   3.749   5.401   4.159 -0.1836  0.3085  0.2641
  124CHL1  H16A15384   3.679   5.447   4.232  0.3492  1.2189  0.2208
  124CHL1  H16B15385   3.750   5.291   4.168  1.3027  0.3066  0.1936
  124CHL1   C1715386   3.897   5.444   4.172  0.5724  0.2467 -0.5523
  124CHL1   H1715387   3.959   5.354   4.153 -0.0221 -0.4731  0.7880
  124CHL1   C1315388   3.924   5.546   4.049  0.4642  0.4667 -0.5000
  124CHL1   C1815389   3.885   5.691   4.083 -0.0974  0.2276 -0.1555
  124CHL1  H18A15390   3.886   5.753   3.991  1.2283  0.5030  0.0250
  124CHL1  H18B15391   3.784   5.686   4.129 -0.5164  0.7127 -0.9936
  124CHL1  H18C15392   3.955   5.736   4.157 -0.6428 -0.1392  0.5951
  124CHL1   C1215393   4.060   5.540   3.986  0.1485  0.1831  0.1847
  124CHL1  H12A15394   4.130   5.598   4.051 -0.9278  0.5613  1.0265
  124CHL1  H12B15395   4.109   5.441   3.976 -0.7763 -0.1896 -0.7650
  124CHL1   C1115396   4.059   5.606   3.847  0.0648  0.4905 -0.4398
  124CHL1  H11A15397   4.034   5.713   3.864 -1.6134  0.0196  0.3663
  124CHL1  H11B15398   4.158   5.597   3.798  0.7530  0.2351  0.9242
  124CHL1    C915399   3.943   5.551   3.750 -0.3059 -0.3403  0.4236
  124CHL1    H915400   3.976   5.446   3.736  1.5898  0.2891 -0.2563
  124CHL1   C1015401   3.941   5.622   3.612  0.1929  0.2191 -0.1636
  124CHL1   C1915402   3.939   5.775   3.623  0.6276 -0.1157 -0.1494
  124CHL1  H19A15403   3.937   5.816   3.519  2.4373  2.2607  0.6470
  124CHL1  H19B15404   3.856   5.817   3.684  0.5991 -1.5227  0.8049
  124CHL1  H19C15405   4.035   5.797   3.674 -0.2425  0.1081  1.4329
  124CHL1    C115406   4.076   5.578   3.545 -0.2108 -0.0685  0.3033
  124CHL1   H1A15407   4.166   5.632   3.580 -0.6805 -1.0769  3.3197
  124CHL1   H1B15408   4.095   5.469   3.551  1.3200  0.0742 -1.1123
  124CHL1    C215409   4.082   5.619   3.397  0.5465 -0.0238 -0.2985
  124CHL1   H2A15410   4.173   5.577   3.350  0.6983 -1.6824  1.3502
  124CHL1   H2B15411   4.094   5.730   3.395  0.0263  0.1815  2.8881
  124CHL1   C2015412   3.917   5.493   4.319 -0.6046 -0.2226 -0.0317
  124CHL1   H2015413   3.862   5.588   4.332  1.9961  1.7849 -2.3320
  124CHL1   C2115414   4.064   5.533   4.335 -0.6381 -0.2247  0.1613
  124CHL1  H21A15415   4.098   5.604   4.257 -0.2884  0.2340  0.7150
  124CHL1  H21B15416   4.131   5.445   4.348 -0.6269 -0.0733  1.2488
  124CHL1  H21C15417   4.071   5.584   4.434 -0.6399  1.3212 -0.6077
  124CHL1   C2215418   3.883   5.390   4.432 -0.6812 -0.2351 -0.2943
  124CHL1  H22A15419   3.791   5.334   4.403 -0.4391  0.1183 -1.8388
  124CHL1  H22B15420   3.958   5.308   4.428 -1.6160 -1.3085  2.3157
  124CHL1   C2315421   3.855   5.456   4.568 -0.0567 -0.4927  0.5477
  124CHL1  H23A15422   3.947   5.501   4.610  0.3160  0.9080 -1.5727
  124CHL1  H23B15423   3.792   5.546   4.546  1.1175  0.3266  0.4265
  124CHL1   C2415424   3.791   5.364   4.665 -0.0936  1.1503 -0.3757
  124CHL1  H24A15425   3.701   5.314   4.621 -0.1376  0.5872  0.3380
  124CHL1  H24B15426   3.857   5.281   4.697  2.1967  1.7317 -3.2296
  124CHL1   C2515427   3.754   5.425   4.801  0.1271 -0.1339  0.0357
  124CHL1   H2515428   3.694   5.516   4.782  0.6437  0.1173 -0.4061
  124CHL1   C2615429   3.661   5.337   4.881 -0.1382  0.2543  0.1053
  124CHL1  H26A15430   3.712   5.242   4.907 -0.0442  0.0402 -0.8439
  124CHL1  H26B15431   3.612   5.381   4.971  1.4215  1.6305  0.3392
  124CHL1  H26C15432   3.576   5.305   4.818 -0.2592  1.0253 -0.1365
  124CHL1   C2715433   3.880   5.468   4.879  0.2675 -0.0419  0.3844
  124CHL1  H27A15434   3.932   5.381   4.923  0.2440  0.3169  1.1364
  124CHL1  H27B15435   3.958   5.529   4.827 -1.1657  2.2179  0.7222
  124CHL1  H27C15436   3.841   5.523   4.967 -2.6555 -0.3039 -0.6409
  125CHL1    C315437   4.496   5.278   3.402  0.1136  0.0900  0.4037
  125CHL1    H315438   4.392   5.240   3.412 -0.9187  1.8935 -2.2513
  125CHL1    O315439   4.526   5.324   3.272 -0.0412  0.1641 -0.3793
  125CHL1   H3'15440   4.621   5.332   3.273  0.1329 -1.5852  0.1310
  125CHL1    C415441   4.519   5.404   3.496 -0.0892  0.2960 -0.2314
  125CHL1   H4A15442   4.626   5.434   3.490  0.9311 -2.6772  1.2078
  125CHL1   H4B15443   4.451   5.485   3.465  1.8781  2.7552  1.4501
  125CHL1    C515444   4.498   5.370   3.634  0.2592 -0.0976 -0.0530
  125CHL1    C615445   4.398   5.425   3.711 -0.1655 -0.2474  0.3724
  125CHL1    H615446   4.339   5.514   3.685 -1.7180 -0.5201  2.6368
  125CHL1    C715447   4.368   5.386   3.852 -0.3413 -0.3353  0.6203
  125CHL1   H7A15448   4.348   5.477   3.912  0.5691  0.7503 -0.6745
  125CHL1   H7B15449   4.274   5.327   3.850 -0.1117 -0.8845  3.0580
  125CHL1    C815450   4.473   5.298   3.926 -0.4120 -0.4046  0.2002
  125CHL1    H815451   4.561   5.359   3.956 -0.1076 -0.5389 -0.4066
  125CHL1   C1415452   4.407   5.233   4.042  0.0547  0.6767  0.6354
  125CHL1   H1415453   4.322   5.169   4.011 -0.1437  1.4080 -0.3819
  125CHL1   C1515454   4.349   5.320   4.153 -0.2183 -0.4127  0.3462
  125CHL1  H15A15455   4.421   5.400   4.180 -1.4819  0.0544  2.5568
  125CHL1  H15B15456   4.255   5.368   4.118  0.0468 -0.9147 -1.1009
  125CHL1   C1615457   4.339   5.234   4.283 -0.7414 -0.7573  0.1809
  125CHL1  H16A15458   4.401   5.289   4.357 -1.2275  2.7756 -1.8174
  125CHL1  H16B15459   4.234   5.220   4.316 -0.8705 -0.4239 -0.0833
  125CHL1   C1715460   4.408   5.098   4.240 -0.4151  0.1322 -0.2293
  125CHL1   H1715461   4.331   5.034   4.193 -0.4375  0.5854 -0.8200
  125CHL1   C1315462   4.501   5.134   4.119 -0.6747 -0.5032  0.5818
  125CHL1   C1815463   4.628   5.199   4.169  0.7000 -0.3222 -0.4140
  125CHL1  H18A15464   4.701   5.228   4.090  1.1025 -3.1043 -1.1956
  125CHL1  H18B15465   4.617   5.276   4.248  0.7918 -1.3060  0.5750
  125CHL1  H18C15466   4.683   5.118   4.221 -1.7399 -1.4886  0.4634
  125CHL1   C1215467   4.542   5.023   4.018  0.4688 -0.1797  0.1634
  125CHL1  H12A15468   4.613   4.947   4.055  0.0736 -0.7961 -0.3352
  125CHL1  H12B15469   4.459   4.955   3.990 -0.5274  1.1497 -0.2489
  125CHL1   C1115470   4.607   5.086   3.893  0.1996  0.2603  0.3940
  125CHL1  H11A15471   4.712   5.120   3.903  1.3836 -2.1324 -2.3936
  125CHL1  H11B15472   4.614   4.995   3.830 -4.0177  0.7614 -1.1251
  125CHL1    C915473   4.523   5.196   3.823  0.5541 -0.0273 -0.1392
  125CHL1    H915474   4.425   5.154   3.791  0.4408  1.5015 -2.0277
  125CHL1   C1015475   4.578   5.251   3.688 -0.6306 -0.9602 -0.6502
  125CHL1   C1915476   4.723   5.301   3.711 -0.3454  1.0152 -0.2774
  125CHL1  H19A15477   4.762   5.377   3.640  0.0176  1.0450 -0.0493
  125CHL1  H19B15478   4.748   5.327   3.816  1.2998 -0.3137 -0.2887
  125CHL1  H19C15479   4.792   5.214   3.705 -0.4408  0.7950  1.3865
  125CHL1    C115480   4.582   5.132   3.586 -0.6751  0.5203  0.5481
  125CHL1   H1A15481   4.660   5.054   3.598 -1.4520 -0.1677  1.2245
  125CHL1   H1B15482   4.479   5.091   3.597  0.0473 -1.2013  1.1842
  125CHL1    C215483   4.598   5.169   3.439  0.4092 -0.1849 -0.1885
  125CHL1   H2A15484   4.582   5.086   3.367 -0.5253  0.2294 -0.4737
  125CHL1   H2B15485   4.701   5.210   3.427 -0.0913  1.1445 -0.1876
  125CHL1   C2015486   4.462   5.021   4.360 -0.3030  0.3388  0.4288
  125CHL1   H2015487   4.539   5.081   4.414  3.8610 -1.7759 -2.6640
  125CHL1   C2115488   4.520   4.883   4.315 -0.4298 -0.4351  0.0601
  125CHL1  H21A15489   4.466   4.858   4.221 -1.0914  1.3777 -0.0819
  125CHL1  H21B15490   4.505   4.803   4.391  1.0354 -0.0271  0.8053
  125CHL1  H21C15491   4.628   4.898   4.298 -0.6166 -0.0001 -0.7871
  125CHL1   C2215492   4.353   5.002   4.473 -0.9996  0.2549 -0.0604
  125CHL1  H22A15493   4.289   5.092   4.480 -0.2684  0.8361 -0.6900
  125CHL1  H22B15494   4.278   4.926   4.443 -1.9144  2.4940 -4.1671
  125CHL1   C2315495   4.414   4.975   4.614  0.0768  0.7121 -0.1889
  125CHL1  H23A15496   4.490   4.895   4.600 -0.0720 -0.0711  2.8214
  125CHL1  H23B15497   4.473   5.064   4.646  2.7239 -0.8315 -0.5147
  125CHL1   C2415498   4.308   4.930   4.718  0.4998 -0.4274  0.6481
  125CHL1  H24A15499   4.238   5.015   4.732 -1.3437 -1.8018  0.1218
  125CHL1  H24B15500   4.229   4.866   4.674 -1.0388  1.1529  0.9958
  125CHL1   C2515501   4.367   4.881   4.850  0.5339  0.0453  0.1409
  125CHL1   H2515502   4.431   4.793   4.828 -0.5572 -1.0255  1.1154
  125CHL1   C2615503   4.437   4.996   4.927  0.5131 -0.2795 -0.2998
  125CHL1  H26A15504   4.483   4.943   5.013  0.6957  0.3828  0.0197
  125CHL1  H26B15505   4.514   5.053   4.870 -0.7468  0.9992 -0.7766
  125CHL1  H26C15506   4.348   5.060   4.948  0.4368  0.7164 -3.2994
  125CHL1   C2715507   4.252   4.839   4.941 -0.3589  0.3761 -0.0212
  125CHL1  H27A15508   4.186   4.923   4.973  1.7574  2.8982 -1.8719
  125CHL1  H27B15509   4.180   4.768   4.893 -2.5792  0.1296  3.3771
  125CHL1  H27C15510   4.299   4.795   5.031  1.7684  0.3847 -1.0610
  126CHL1    C315511   4.304   5.928   3.507 -0.0233  0.4529  0.3943
  126CHL1    H315512   4.204   5.881   3.504 -0.4814  1.3430  1.2032
  126CHL1    O315513   4.330   5.976   3.376 -0.3616  0.3795  0.1486
  126CHL1   H3'15514   4.332   5.896   3.324 -0.3874 -1.3283  2.5755
  126CHL1    C415515   4.289   6.042   3.606 -0.1158 -0.5103  0.4475
  126CHL1   H4A15516   4.378   6.105   3.584 -0.9329  0.1650 -1.0776
  126CHL1   H4B15517   4.202   6.107   3.582 -0.8787 -1.6741 -0.0369
  126CHL1    C515518   4.279   5.993   3.747 -0.3186 -0.2268 -0.0887
  126CHL1    C615519   4.179   6.032   3.825 -0.2421 -0.3097 -0.1126
  126CHL1    H615520   4.113   6.111   3.788 -0.9597 -1.6143 -1.7719
  126CHL1    C715521   4.166   6.003   3.969 -0.1620  0.1982 -0.2928
  126CHL1   H7A15522   4.129   6.097   4.015  0.0886  0.6958 -1.0808
  126CHL1   H7B15523   4.085   5.927   3.975  0.7243 -0.7187  0.3813
  126CHL1    C815524   4.295   5.944   4.031  0.1739 -0.1591  0.2094
  126CHL1    H815525   4.364   6.029   4.045 -0.0085  0.0322 -0.0433
  126CHL1   C1415526   4.281   5.882   4.167  1.0460 -0.9406  0.1989
  126CHL1   H1415527   4.203   5.803   4.157 -2.8374  2.0661  3.1736
  126CHL1   C1515528   4.212   5.976   4.266 -0.2919 -0.0659 -0.0101
  126CHL1  H15A15529   4.254   6.079   4.268 -0.4053 -0.0075 -0.6633
  126CHL1  H15B15530   4.102   5.990   4.263 -0.3754 -0.0054  1.8276
  126CHL1   C1615531   4.252   5.913   4.399 -0.9298  0.4527 -0.1611
  126CHL1  H16A15532   4.305   5.992   4.457  0.6579  0.3038 -1.3339
  126CHL1  H16B15533   4.167   5.879   4.462 -2.5477 -3.7937 -4.0912
  126CHL1   C1715534   4.358   5.796   4.376  0.1230  0.0527 -0.6641
  126CHL1   H1715535   4.297   5.703   4.375  1.3120 -0.8467  1.8286
  126CHL1   C1315536   4.407   5.824   4.225  0.1495  0.4749 -0.4963
  126CHL1   C1815537   4.520   5.924   4.235  0.2639 -0.1843 -0.3735
  126CHL1  H18A15538   4.496   6.006   4.306  0.4729 -0.2023 -0.2811
  126CHL1  H18B15539   4.618   5.876   4.257  0.4661  0.0155 -0.8290
  126CHL1  H18C15540   4.550   5.967   4.137  3.5535 -0.3635  0.4198
  126CHL1   C1215541   4.447   5.705   4.134 -0.1906 -0.4742  0.0356
  126CHL1  H12A15542   4.531   5.646   4.177 -0.6632 -0.2612  1.3164
  126CHL1  H12B15543   4.367   5.629   4.124 -0.7975  0.0852  0.5040
  126CHL1   C1115544   4.473   5.754   3.993 -0.0929  0.4188  0.1744
  126CHL1  H11A15545   4.571   5.806   3.980  0.1648 -0.3637 -1.2285
  126CHL1  H11B15546   4.473   5.664   3.928  0.9106  0.7794 -0.3586
  126CHL1    C915547   4.355   5.841   3.936  0.0608 -0.3107  0.0395
  126CHL1    H915548   4.279   5.763   3.912  3.1570 -3.1982 -1.1064
  126CHL1   C1015549   4.385   5.894   3.798 -0.7656  0.3427 -0.7251
  126CHL1   C1915550   4.521   5.983   3.795  0.4829 -0.3808 -0.0648
  126CHL1  H19A15551   4.610   5.920   3.818 -0.4735 -1.3154  1.2334
  126CHL1  H19B15552   4.555   6.033   3.702  0.0739  0.7736  0.3885
  126CHL1  H19C15553   4.522   6.066   3.869  0.0045 -1.1037  0.7773
  126CHL1    C115554   4.397   5.778   3.693 -0.2733  0.2093 -0.2814
  126CHL1   H1A15555   4.493   5.732   3.725 -0.4250  0.8777  1.2452
  126CHL1   H1B15556   4.315   5.703   3.698  0.0880 -0.4978 -3.2441
  126CHL1    C215557   4.419   5.831   3.546 -0.0091  0.4617  0.2374
  126CHL1   H2A15558   4.435   5.745   3.478  3.7759  1.0170  0.2167
  126CHL1   H2B15559   4.513   5.890   3.540  1.0483 -0.9575  1.8819
  126CHL1   C2015560   4.456   5.779   4.492 -0.2117 -0.4550  0.3563
  126CHL1   H2015561   4.535   5.854   4.471  0.2395 -1.0471 -0.0862
  126CHL1   C2115562   4.524   5.632   4.469  0.3536 -0.4046  0.0232
  126CHL1  H21A15563   4.448   5.557   4.501  0.2213  0.4770  1.8904
  126CHL1  H21B15564   4.610   5.623   4.538 -0.4615  2.9945  1.6880
  126CHL1  H21C15565   4.561   5.628   4.364 -1.1415 -1.3541 -0.4951
  126CHL1   C2215566   4.397   5.802   4.630 -0.2558  0.6109  0.2033
  126CHL1  H22A15567   4.358   5.905   4.642 -0.5874  0.4829  0.2470
  126CHL1  H22B15568   4.318   5.730   4.661 -1.3936  1.8847  0.3586
  126CHL1   C2315569   4.510   5.795   4.737  0.0821  0.2128  0.6032
  126CHL1  H23A15570   4.543   5.689   4.728 -0.3915  0.0252  1.0241
  126CHL1  H23B15571   4.591   5.862   4.702  0.4289  0.4401  1.8163
  126CHL1   C2415572   4.479   5.854   4.876 -0.0379 -0.1453 -0.3209
  126CHL1  H24A15573   4.451   5.961   4.862  0.6358  0.0711 -0.0578
  126CHL1  H24B15574   4.380   5.809   4.897 -0.1078  0.0453 -0.2381
  126CHL1   C2515575   4.577   5.824   4.986 -0.2573  0.2082 -0.0445
  126CHL1   H2515576   4.598   5.715   4.980 -1.2001  0.0834 -1.8165
  126CHL1   C2615577   4.708   5.900   4.955  0.6083  0.4562 -0.1786
  126CHL1  H26A15578   4.681   6.007   4.942  2.1471  0.6529 -2.1987
  126CHL1  H26B15579   4.776   5.886   5.042 -0.7109 -0.3021  0.7697
  126CHL1  H26C15580   4.759   5.856   4.867  1.0216 -2.1282  1.2468
  126CHL1   C2715581   4.516   5.862   5.124 -0.0427  0.4463 -0.3330
  126CHL1  H27A15582   4.441   5.785   5.153 -2.4603  1.9141 -2.1933
  126CHL1  H27B15583   4.600   5.860   5.197 -0.6398 -0.0079  0.3539
  126CHL1  H27C15584   4.470   5.963   5.128  0.4556  0.7410 -1.3971
  127CHL1    C315585   3.202   6.983   3.158 -0.0459  0.2848 -0.5409
  127CHL1    H315586   3.155   6.886   3.186  0.5816  0.4728  1.3143
  127CHL1    O315587   3.207   6.990   3.021 -0.1375  0.7661 -0.6617
  127CHL1   H3'15588   3.250   7.072   2.996 -1.0663  1.7804  0.8927
  127CHL1    C415589   3.113   7.090   3.221 -0.6984  0.0479  0.2607
  127CHL1   H4A15590   3.159   7.184   3.185 -0.5285 -0.5415 -1.1450
  127CHL1   H4B15591   3.010   7.090   3.178 -0.6065  1.9847 -0.0093
  127CHL1    C515592   3.099   7.083   3.372 -0.7289  0.2648  0.2367
  127CHL1    C615593   2.985   7.084   3.439  0.8024  0.1364 -0.6142
  127CHL1    H615594   2.890   7.097   3.385  1.7386  0.4632 -2.2378
  127CHL1    C715595   2.972   7.089   3.595 -0.1650  0.0405 -0.2851
  127CHL1   H7A15596   2.898   7.164   3.631  0.4178  0.4243  0.1384
  127CHL1   H7B15597   2.930   6.992   3.631 -0.5948  0.0854 -0.6644
  127CHL1    C815598   3.113   7.123   3.663  0.2361  1.0309 -0.3055
  127CHL1    H815599   3.129   7.232   3.646  2.2908  0.8421  0.2022
  127CHL1   C1415600   3.102   7.084   3.810  0.2966 -0.8147  0.3876
  127CHL1   H1415601   3.077   6.976   3.807 -2.5642 -0.2153 -0.6032
  127CHL1   C1515602   2.991   7.142   3.895 -0.0290  0.2942  0.2809
  127CHL1  H15A15603   2.980   7.247   3.861  2.0774  0.4166 -0.1402
  127CHL1  H15B15604   2.891   7.098   3.872 -0.6150  1.2465  0.9185
  127CHL1   C1615605   3.030   7.115   4.036  0.0514 -0.0983 -0.5283
  127CHL1  H16A15606   3.032   7.215   4.084 -0.2502  0.9788 -2.6121
  127CHL1  H16B15607   2.966   7.051   4.099 -1.0383 -1.3560 -2.7666
  127CHL1   C1715608   3.173   7.060   4.032  0.2817  0.1653 -0.2166
  127CHL1   H1715609   3.165   6.949   4.026 -4.7860  0.1455  1.7484
  127CHL1   C1315610   3.222   7.101   3.893 -0.0913 -0.6017  0.5260
  127CHL1   C1815611   3.267   7.246   3.905 -0.0625 -0.1105 -0.0262
  127CHL1  H18A15612   3.357   7.259   3.969  1.2059 -1.1388 -1.5419
  127CHL1  H18B15613   3.293   7.283   3.804  1.7652  0.1428  0.5089
  127CHL1  H18C15614   3.189   7.315   3.943 -0.5257 -1.4489  1.6027
  127CHL1   C1215615   3.330   7.018   3.826 -0.3744  0.3537  0.4235
  127CHL1  H12A15616   3.425   7.016   3.885  0.4421 -1.8090 -0.8484
  127CHL1  H12B15617   3.303   6.911   3.827 -0.0156  0.2035 -1.3290
  127CHL1   C1115618   3.357   7.050   3.681 -0.3278 -1.3360 -0.1301
  127CHL1  H11A15619   3.404   7.148   3.663  0.2393 -1.8077 -1.2949
  127CHL1  H11B15620   3.430   6.979   3.636  1.0965  0.6107 -0.9786
  127CHL1    C915621   3.224   7.044   3.588 -0.2907 -0.0547 -0.6181
  127CHL1    H915622   3.197   6.936   3.592 -0.4327 -0.0324 -0.9439
  127CHL1   C1015623   3.243   7.077   3.438 -0.0555  0.0098 -0.3850
  127CHL1   C1915624   3.323   7.213   3.425  0.1349  0.4576 -0.7884
  127CHL1  H19A15625   3.319   7.273   3.331 -1.7539  2.4757  0.5128
  127CHL1  H19B15626   3.292   7.285   3.503  0.7899 -0.2502  0.1484
  127CHL1  H19C15627   3.431   7.191   3.444  0.4478 -0.9061 -3.5972
  127CHL1    C115628   3.327   6.960   3.376  0.7320 -0.9533  0.2352
  127CHL1   H1A15629   3.430   6.950   3.416  1.2400  0.9783 -0.4621
  127CHL1   H1B15630   3.267   6.872   3.408 -1.1928  0.1818 -0.0848
  127CHL1    C215631   3.344   6.981   3.225 -0.5665  0.2405  0.4306
  127CHL1   H2A15632   3.402   6.903   3.171 -1.1318 -0.5791  0.9922
  127CHL1   H2B15633   3.396   7.076   3.199 -2.0373  0.6419 -1.2660
  127CHL1   C2015634   3.250   7.102   4.159  0.1617  0.3199 -0.1234
  127CHL1   H2015635   3.253   7.213   4.160 -1.8042  0.4259  1.8898
  127CHL1   C2115636   3.389   7.038   4.149  0.2376  0.6683 -0.1173
  127CHL1  H21A15637   3.450   7.083   4.067  2.0206 -0.5943  0.4448
  127CHL1  H21B15638   3.384   6.930   4.125 -0.5507  0.7963 -0.5724
  127CHL1  H21C15639   3.446   7.045   4.244 -1.8041 -0.4530  1.2637
  127CHL1   C2215640   3.183   7.053   4.286  0.2429 -0.6222 -0.4684
  127CHL1  H22A15641   3.076   7.082   4.293  0.1298 -1.1100 -0.1022
  127CHL1  H22B15642   3.174   6.943   4.271  0.2952 -1.0236  2.0903
  127CHL1   C2315643   3.239   7.079   4.423  0.5692  0.1722 -0.2404
  127CHL1  H23A15644   3.162   7.051   4.498  1.6291  2.9330  2.0364
  127CHL1  H23B15645   3.333   7.024   4.440  2.0748  2.4051 -0.8362
  127CHL1   C2415646   3.273   7.221   4.447  0.1176  0.5827 -0.1620
  127CHL1  H24A15647   3.341   7.263   4.370 -0.5986  0.1159 -1.0683
  127CHL1  H24B15648   3.176   7.275   4.435  0.3170  0.7719 -0.9640
  127CHL1   C2515649   3.336   7.249   4.590  0.6631 -0.3928  0.0155
  127CHL1   H2515650   3.432   7.193   4.590 -0.2624 -2.0813  2.0126
  127CHL1   C2615651   3.358   7.400   4.628 -0.2439 -0.2089  0.5734
  127CHL1  H26A15652   3.261   7.455   4.622 -0.4891 -0.4752  1.8945
  127CHL1  H26B15653   3.402   7.410   4.729 -2.5595 -0.1812  1.6365
  127CHL1  H26C15654   3.421   7.438   4.545  1.1320  0.8178  2.0390
  127CHL1   C2715655   3.252   7.189   4.707 -0.6379 -0.1673 -0.2418
  127CHL1  H27A15656   3.144   7.213   4.699 -0.2754  0.9652 -2.9634
  127CHL1  H27B15657   3.264   7.079   4.701  0.3317 -0.3188  2.6425
  127CHL1  H27C15658   3.291   7.223   4.805 -3.2803  0.6525  0.6073
  128CHL1    C315659   2.233   1.436   3.269  0.2990 -0.1033  0.4248
  128CHL1    H315660   2.154   1.365   3.235  0.8692 -0.1042 -0.9289
  128CHL1    O315661   2.260   1.539   3.168 -0.2173 -0.2345  0.6051
  128CHL1   H3'15662   2.261   1.618   3.222  0.3900 -0.4174  0.8700
  128CHL1    C415663   2.170   1.509   3.385  0.0819 -0.0117 -0.5523
  128CHL1   H4A15664   2.232   1.596   3.415 -1.2123  0.5706  0.5225
  128CHL1   H4B15665   2.067   1.545   3.363 -0.2395 -1.1451 -0.9764
  128CHL1    C515666   2.166   1.421   3.505  0.0701  0.4657 -0.3106
  128CHL1    C615667   2.052   1.414   3.575  0.0388 -0.3974 -0.6108
  128CHL1    H615668   1.967   1.475   3.541 -0.6658 -2.6625 -3.2307
  128CHL1    C715669   2.037   1.335   3.702  0.0858 -0.1715 -0.3495
  128CHL1   H7A15670   1.994   1.406   3.776  1.8860  2.2117 -1.4359
  128CHL1   H7B15671   1.968   1.248   3.699  0.5544 -0.5880  0.5749
  128CHL1    C815672   2.166   1.284   3.768 -0.0059  0.0359  0.0986
  128CHL1    H815673   2.223   1.367   3.816 -0.0642 -0.3977  0.9254
  128CHL1   C1415674   2.130   1.175   3.871 -0.3992 -0.4118 -0.6579
  128CHL1   H1415675   2.072   1.099   3.815  1.0098 -1.4055 -0.8383
  128CHL1   C1515676   2.034   1.217   3.983  0.8827  0.1594  0.0855
  128CHL1  H15A15677   2.071   1.313   4.024 -1.4699  1.0130  0.3597
  128CHL1  H15B15678   1.926   1.222   3.956  1.0045 -0.2951 -0.5277
  128CHL1   C1615679   2.061   1.118   4.094  0.0369  0.2713 -0.2005
  128CHL1  H16A15680   2.087   1.170   4.189 -1.7797  0.8561  0.0179
  128CHL1  H16B15681   1.976   1.048   4.107  0.3544 -0.2511 -0.8741
  128CHL1   C1715682   2.173   1.025   4.050  0.6415 -0.8528  1.2177
  128CHL1   H1715683   2.131   0.937   3.996 -1.6223 -0.3050  1.9689
  128CHL1   C1315684   2.249   1.106   3.942 -1.0482 -0.1900  0.0615
  128CHL1   C1815685   2.338   1.219   4.008 -0.0113 -0.4133 -0.4280
  128CHL1  H18A15686   2.376   1.294   3.935  1.5586 -1.4828 -0.7532
  128CHL1  H18B15687   2.280   1.276   4.084  1.6021 -0.0699  0.5903
  128CHL1  H18C15688   2.431   1.177   4.050  0.0408  0.2225  0.1071
  128CHL1   C1215689   2.325   1.035   3.821  0.3649  0.3035 -0.2254
  128CHL1  H12A15690   2.409   0.968   3.849 -0.5590 -1.9430 -2.5268
  128CHL1  H12B15691   2.251   0.966   3.776  0.1403  0.3667  0.0411
  128CHL1   C1115692   2.369   1.135   3.712  0.2548 -0.6964  0.2563
  128CHL1  H11A15693   2.457   1.194   3.746  0.8328 -0.5228 -1.4399
  128CHL1  H11B15694   2.404   1.074   3.626  0.0789  0.3533 -0.5763
  128CHL1    C915695   2.249   1.228   3.654  0.1955  0.0062  0.3351
  128CHL1    H915696   2.180   1.153   3.610 -0.3576 -0.7332  2.3497
  128CHL1   C1015697   2.288   1.336   3.545 -0.0694  0.3387  0.0582
  128CHL1   C1915698   2.387   1.441   3.607  0.4144  0.0260  0.5842
  128CHL1  H19A15699   2.482   1.389   3.636  0.3063 -0.3442  0.2861
  128CHL1  H19B15700   2.423   1.519   3.536  1.4677  0.9386  2.0587
  128CHL1  H19C15701   2.352   1.492   3.699 -0.4539 -3.6478  2.5120
  128CHL1    C115702   2.345   1.267   3.419  0.3022  0.3648 -0.1938
  128CHL1   H1A15703   2.445   1.225   3.443  0.8094  1.3148 -0.5876
  128CHL1   H1B15704   2.277   1.184   3.391 -1.4965  1.5425  0.4780
  128CHL1    C215705   2.361   1.358   3.295  0.0074 -0.0756 -0.1732
  128CHL1   H2A15706   2.403   1.304   3.207 -0.8243  0.7971 -1.1326
  128CHL1   H2B15707   2.436   1.432   3.327 -0.6555  0.5819 -0.1163
  128CHL1   C2015708   2.260   0.980   4.159 -0.7600 -0.3792 -0.4675
  128CHL1   H2015709   2.316   1.063   4.207 -1.8309 -0.7488  1.5465
  128CHL1   C2115710   2.362   0.877   4.102  0.7312 -0.3428 -0.1663
  128CHL1  H21A15711   2.312   0.791   4.054  0.2324 -0.6825  0.9118
  128CHL1  H21B15712   2.411   0.822   4.185 -0.5108 -1.2094  0.0153
  128CHL1  H21C15713   2.440   0.917   4.034  2.0473 -0.5926  1.1391
  128CHL1   C2215714   2.183   0.920   4.289 -0.4076 -0.6179  0.5857
  128CHL1  H22A15715   2.102   0.985   4.329  1.0467  1.3104  0.5354
  128CHL1  H22B15716   2.132   0.824   4.265  1.0416 -0.7052 -2.6437
  128CHL1   C2315717   2.277   0.894   4.416  0.0948  0.3470  0.1214
  128CHL1  H23A15718   2.212   0.873   4.504 -0.7549  0.7983 -0.3753
  128CHL1  H23B15719   2.320   0.795   4.393 -0.2067  0.2728 -0.1213
  128CHL1   C2415720   2.380   0.998   4.441  0.5510  0.2501 -0.6621
  128CHL1  H24A15721   2.448   1.006   4.353  1.2579 -0.2618 -0.1834
  128CHL1  H24B15722   2.334   1.098   4.433  0.6631  0.2886 -0.8198
  128CHL1   C2515723   2.456   1.003   4.575  0.0602 -0.0244 -0.4176
  128CHL1   H2515724   2.381   1.000   4.657  0.4422 -1.5868 -0.0873
  128CHL1   C2615725   2.549   0.879   4.597  0.3201  0.2729 -0.3724
  128CHL1  H26A15726   2.618   0.860   4.512  2.7608 -0.9902  1.7677
  128CHL1  H26B15727   2.613   0.886   4.687 -0.7054 -2.2146  0.6343
  128CHL1  H26C15728   2.479   0.795   4.619 -0.0587  0.5703 -0.4262
  128CHL1   C2715729   2.530   1.131   4.583 -0.1019 -0.3807 -0.1833
  128CHL1  H27A15730   2.615   1.130   4.511 -0.1095 -0.8954 -0.1854
  128CHL1  H27B15731   2.473   1.225   4.567  0.3383  0.1818  1.3864
  128CHL1  H27C15732   2.587   1.130   4.678  1.3981 -0.5213 -1.0450
  129CHL1    C315733   5.252   7.124   3.662  0.2398  0.1355  0.3668
  129CHL1    H315734   5.361   7.106   3.675  0.4676  0.3896 -1.0673
  129CHL1    O315735   5.228   7.141   3.521  0.0247 -0.0117  0.5605
  129CHL1   H3'15736   5.179   7.223   3.514 -0.6083 -0.3669  0.6965
  129CHL1    C415737   5.181   6.997   3.714 -0.8787  0.3502  0.0621
  129CHL1   H4A15738   5.075   7.007   3.682 -0.9957  0.1956  0.3964
  129CHL1   H4B15739   5.223   6.918   3.648  0.4423  1.7401 -0.8132
  129CHL1    C515740   5.194   6.973   3.862 -0.1470 -0.3570 -0.0389
  129CHL1    C615741   5.240   6.858   3.910  0.0538 -0.3694 -0.6766
  129CHL1    H615742   5.250   6.772   3.843  3.5505  0.3259 -1.2366
  129CHL1    C715743   5.250   6.824   4.054  0.1749 -0.4824  0.6523
  129CHL1   H7A15744   5.192   6.734   4.084 -1.2924  0.4269  0.6347
  129CHL1   H7B15745   5.352   6.817   4.098 -0.2256 -2.8383  1.3514
  129CHL1    C815746   5.184   6.933   4.150 -0.2319  0.0768  0.1282
  129CHL1    H815747   5.076   6.910   4.153 -0.0761 -0.8141 -0.5177
  129CHL1   C1415748   5.241   6.925   4.292  0.5614 -0.4854 -0.3102
  129CHL1   H1415749   5.351   6.932   4.282  0.4532  0.3649 -1.0333
  129CHL1   C1515750   5.214   6.788   4.367 -0.5250 -0.2396  0.9915
  129CHL1  H15A15751   5.119   6.745   4.329 -0.1282  1.5647 -2.5443
  129CHL1  H15B15752   5.303   6.728   4.339  0.8536  2.6990 -1.4615
  129CHL1   C1615753   5.220   6.827   4.516  0.3766 -0.1402  0.4055
  129CHL1  H16A15754   5.117   6.807   4.554 -0.5556 -1.4428 -2.5069
  129CHL1  H16B15755   5.299   6.775   4.574  0.7575  0.4423  0.4169
  129CHL1   C1715756   5.242   6.983   4.516  0.6182 -0.3847 -0.2531
  129CHL1   H1715757   5.352   7.000   4.510  0.8992 -2.4554 -2.8368
  129CHL1   C1315758   5.182   7.036   4.381 -0.4365  0.3910  0.1639
  129CHL1   C1815759   5.025   7.019   4.385 -0.0239 -0.0733  0.5461
  129CHL1  H18A15760   4.976   7.066   4.297 -2.0555  0.5841  1.9401
  129CHL1  H18B15761   5.004   6.910   4.382 -1.1318  0.1298 -2.4934
  129CHL1  H18C15762   4.987   7.066   4.478  1.6521  1.2991  0.5792
  129CHL1   C1215763   5.221   7.174   4.327  0.0835 -0.6990 -0.1454
  129CHL1  H12A15764   5.176   7.262   4.377 -0.0074  0.2307 -1.8004
  129CHL1  H12B15765   5.328   7.198   4.344 -0.3289  0.5670  0.7914
  129CHL1   C1115766   5.181   7.191   4.182 -0.0610 -0.3966 -0.5882
  129CHL1  H11A15767   5.075   7.224   4.192  0.6095  1.2256  4.5150
  129CHL1  H11B15768   5.238   7.283   4.157 -1.5242  1.0050  0.9152
  129CHL1    C915769   5.215   7.074   4.091 -0.4658  0.4049 -0.5060
  129CHL1    H915770   5.326   7.073   4.081 -0.5119  2.2278 -1.7153
  129CHL1   C1015771   5.164   7.100   3.949  0.5047  0.5985  0.0292
  129CHL1   C1915772   5.011   7.116   3.945 -0.5885  0.2685  0.3450
  129CHL1  H19A15773   4.948   7.038   3.995  1.3121 -0.4978  1.6522
  129CHL1  H19B15774   4.987   7.212   3.996  0.5212 -0.5372  2.5139
  129CHL1  H19C15775   4.979   7.142   3.842 -0.4426  0.1951  0.2808
  129CHL1    C115776   5.228   7.227   3.886 -0.9313  0.0825 -0.0704
  129CHL1   H1A15777   5.183   7.309   3.946 -3.2747 -1.1221 -0.0539
  129CHL1   H1B15778   5.338   7.238   3.894 -0.9458  0.1775  0.0021
  129CHL1    C215779   5.199   7.251   3.741 -0.5850 -0.2650 -0.3780
  129CHL1   H2A15780   5.237   7.350   3.708 -0.8719  0.0045  0.1005
  129CHL1   H2B15781   5.090   7.254   3.722 -0.8386  0.2938  1.0403
  129CHL1   C2015782   5.203   7.049   4.642  0.4163 -0.1826  0.0377
  129CHL1   H2015783   5.094   7.035   4.658  0.7431 -1.0539  1.6805
  129CHL1   C2115784   5.216   7.203   4.636  0.0977 -0.3984  0.5861
  129CHL1  H21A15785   5.321   7.226   4.608 -0.2252  0.7679  0.2897
  129CHL1  H21B15786   5.203   7.249   4.737  0.4661  3.3183 -0.9035
  129CHL1  H21C15787   5.136   7.249   4.575  0.7049 -0.1569 -0.0451
  129CHL1   C2215788   5.278   6.999   4.774 -0.2289  0.3080 -0.4011
  129CHL1  H22A15789   5.218   7.032   4.862 -0.8134 -0.9927 -0.2972
  129CHL1  H22B15790   5.270   6.888   4.774  0.4093  0.2150 -2.5124
  129CHL1   C2315791   5.427   7.028   4.767 -0.1013  1.1917 -0.3084
  129CHL1  H23A15792   5.467   6.962   4.686  0.7663  1.1215  0.1679
  129CHL1  H23B15793   5.450   7.135   4.745 -0.9884  1.3661 -0.3995
  129CHL1   C2415794   5.494   6.998   4.904  0.6914 -0.1621  0.6738
  129CHL1  H24A15795   5.437   7.051   4.983  0.5631 -0.7700  0.9888
  129CHL1  H24B15796   5.483   6.889   4.923 -1.6709 -0.2080 -0.6005
  129CHL1   C2515797   5.642   7.036   4.919  0.3370  0.9827 -0.1760
  129CHL1   H2515798   5.646   7.146   4.934 -0.3220  0.6917  2.5860
  129CHL1   C2615799   5.698   6.965   5.050  0.4718  0.0116 -0.0052
  129CHL1  H26A15800   5.639   6.994   5.140  0.3864 -0.0188 -0.0509
  129CHL1  H26B15801   5.681   6.855   5.038 -0.1032  0.1392 -0.3766
  129CHL1  H26C15802   5.806   6.987   5.064  0.1055  1.0798  1.3729
  129CHL1   C2715803   5.728   6.985   4.811  0.0239 -0.5250  0.8597
  129CHL1  H27A15804   5.730   6.875   4.804  2.1222 -0.5674  1.3013
  129CHL1  H27B15805   5.695   7.019   4.710  1.4646  0.2778  0.6227
  129CHL1  H27C15806   5.834   7.006   4.838  0.1899  0.0670 -0.1786
  130CHL1    C315807   2.943   6.579   3.412  0.5371 -0.5698 -0.1362
  130CHL1    H315808   3.037   6.618   3.368 -0.2135  2.6268  0.8222
  130CHL1    O315809   2.851   6.573   3.301 -0.2196  0.0898  0.0802
  130CHL1   H3'15810   2.757   6.574   3.322 -0.5149 -1.0856 -1.0735
  130CHL1    C415811   2.962   6.438   3.477 -0.5904  0.5999 -0.4149
  130CHL1   H4A15812   2.863   6.413   3.522 -0.2588 -2.5250 -1.2233
  130CHL1   H4B15813   2.997   6.356   3.411  0.2295  1.1294 -0.6552
  130CHL1    C515814   3.056   6.442   3.600  0.0728  0.4473  0.7633
  130CHL1    C615815   3.168   6.371   3.606 -0.4420 -0.6835 -0.7997
  130CHL1    H615816   3.185   6.302   3.521 -2.7715 -1.2345 -0.8711
  130CHL1    C715817   3.268   6.388   3.724  0.2212  0.2532  0.4757
  130CHL1   H7A15818   3.302   6.284   3.746  0.2608  0.2799  0.5388
  130CHL1   H7B15819   3.357   6.442   3.685 -1.0998  2.5033  0.4343
  130CHL1    C815820   3.198   6.450   3.853  0.2383  0.6515 -0.7117
  130CHL1    H815821   3.124   6.374   3.885  1.2080 -0.5684 -1.2300
  130CHL1   C1415822   3.299   6.480   3.958 -0.2383  0.0229  0.6185
  130CHL1   H1415823   3.360   6.558   3.909  0.2061 -0.5677  0.2221
  130CHL1   C1515824   3.406   6.376   3.995  0.1795  0.7736  0.4147
  130CHL1  H15A15825   3.366   6.274   4.014  1.2051  0.0864 -0.9784
  130CHL1  H15B15826   3.480   6.360   3.913  0.3315  0.2509  0.6480
  130CHL1   C1615827   3.468   6.426   4.122 -0.1637  0.2184 -0.3198
  130CHL1  H16A15828   3.468   6.349   4.202  2.1785 -1.3290 -1.7072
  130CHL1  H16B15829   3.572   6.463   4.109  0.1971 -1.2194 -1.7141
  130CHL1   C1715830   3.368   6.548   4.173  1.2122  0.1982  0.0219
  130CHL1   H1715831   3.416   6.637   4.127 -1.8297  1.1763 -1.4855
  130CHL1   C1315832   3.236   6.542   4.089 -0.0601  0.4073  0.3923
  130CHL1   C1815833   3.128   6.450   4.152  0.0395  0.3068  0.4965
  130CHL1  H18A15834   3.165   6.350   4.185 -1.8941 -0.0042  1.8286
  130CHL1  H18B15835   3.100   6.506   4.243  1.2001 -1.3679  1.9622
  130CHL1  H18C15836   3.035   6.440   4.092  0.2793 -0.3980  0.2222
  130CHL1   C1215837   3.165   6.674   4.045  0.0834 -0.5926  0.3084
  130CHL1  H12A15838   3.115   6.724   4.131  2.6767  0.3147  1.4154
  130CHL1  H12B15839   3.244   6.747   4.017  0.1894 -0.4116  1.0354
  130CHL1   C1115840   3.071   6.657   3.930 -0.4487  0.6340  0.6263
  130CHL1  H11A15841   2.977   6.608   3.963  0.3438 -3.8020 -2.7483
  130CHL1  H11B15842   3.042   6.758   3.895 -0.5375  0.9144  1.4819
  130CHL1    C915843   3.124   6.573   3.812  0.5770 -0.6893  0.4693
  130CHL1    H915844   3.197   6.640   3.762 -0.2590 -1.0765 -1.3571
  130CHL1   C1015845   3.018   6.554   3.697 -0.1162  0.2104 -0.6940
  130CHL1   C1915846   2.895   6.495   3.765  0.3161 -0.0072 -0.0789
  130CHL1  H19A15847   2.810   6.469   3.698  0.7519  2.7340 -1.8543
  130CHL1  H19B15848   2.913   6.404   3.826 -2.0226 -0.8094 -0.4773
  130CHL1  H19C15849   2.844   6.573   3.826 -0.8654  0.4984 -1.6482
  130CHL1    C115850   2.983   6.687   3.635  0.5476 -0.1897  0.4527
  130CHL1   H1A15851   2.929   6.748   3.711  1.6306  0.5041  0.6824
  130CHL1   H1B15852   3.070   6.740   3.591 -0.1367 -0.2035 -0.9569
  130CHL1    C215853   2.888   6.681   3.518  0.0477 -0.2261 -0.1477
  130CHL1   H2A15854   2.888   6.779   3.467 -2.1557 -0.8121 -1.4053
  130CHL1   H2B15855   2.786   6.657   3.555 -0.1839 -1.0708 -1.2944
  130CHL1   C2015856   3.357   6.552   4.326 -0.1162  0.0056 -0.5128
  130CHL1   H2015857   3.299   6.460   4.350  1.1238 -0.7944 -0.4745
  130CHL1   C2115858   3.275   6.677   4.371 -0.3858  0.1426 -0.2198
  130CHL1  H21A15859   3.245   6.661   4.476  0.1587 -0.6704 -0.1759
  130CHL1  H21B15860   3.185   6.695   4.308 -0.2709 -1.1611 -0.7920
  130CHL1  H21C15861   3.334   6.770   4.358  0.8783 -0.9205 -2.9771
  130CHL1   C2215862   3.493   6.538   4.399  0.4870 -0.1313 -0.0650
  130CHL1  H22A15863   3.562   6.465   4.351 -0.4996 -0.8312 -0.4467
  130CHL1  H22B15864   3.541   6.638   4.401 -0.9131  0.5588  0.9668
  130CHL1   C2315865   3.477   6.506   4.548 -0.0591  0.1740  0.4353
  130CHL1  H23A15866   3.432   6.586   4.610 -1.9716  0.5550 -1.3600
  130CHL1  H23B15867   3.411   6.417   4.548  1.7207 -1.2070  0.5696
  130CHL1   C2415868   3.615   6.476   4.604 -0.5773  0.0619 -0.0144
  130CHL1  H24A15869   3.664   6.388   4.558  1.4682  1.5461 -0.7727
  130CHL1  H24B15870   3.680   6.564   4.587 -1.0196  0.1265 -1.6016
  130CHL1   C2515871   3.618   6.428   4.749  0.5598  0.2691 -0.0248
  130CHL1   H2515872   3.562   6.497   4.815  0.0617  1.1204 -1.3257
  130CHL1   C2615873   3.549   6.295   4.769  0.6371  0.8344 -0.3088
  130CHL1  H26A15874   3.589   6.210   4.710  0.1607 -0.7892  1.6122
  130CHL1  H26B15875   3.561   6.254   4.871  0.7327 -1.6436 -1.2502
  130CHL1  H26C15876   3.440   6.300   4.751  0.3458 -1.8802  0.2500
  130CHL1   C2715877   3.762   6.418   4.805  0.3721 -0.6330 -0.5393
  130CHL1  H27A15878   3.755   6.391   4.913  0.5600  0.6936 -0.1881
  130CHL1  H27B15879   3.814   6.344   4.740  1.5834  0.1562 -0.4913
  130CHL1  H27C15880   3.811   6.517   4.811 -0.7657 -0.1265  0.8297
  131CHL1    C315881   0.801   4.256   3.799  0.0617 -0.2172 -0.4351
  131CHL1    H315882   0.797   4.204   3.898 -1.2485  0.3854 -0.1590
  131CHL1    O315883   0.787   4.151   3.700 -0.5177 -0.0196  0.6171
  131CHL1   H3'15884   0.705   4.103   3.714  1.4051 -3.0287  2.6712
  131CHL1    C415885   0.680   4.346   3.802 -0.1702 -0.5781  0.6752
  131CHL1   H4A15886   0.660   4.378   3.697 -2.9463 -3.1666  0.2686
  131CHL1   H4B15887   0.594   4.279   3.824  0.2056 -1.6920 -1.0341
  131CHL1    C515888   0.697   4.463   3.895  0.2875  0.1885 -0.1261
  131CHL1    C615889   0.593   4.492   3.975  0.5831  0.0995  0.3184
  131CHL1    H615890   0.499   4.442   3.949  0.4732  1.5198 -2.3501
  131CHL1    C715891   0.593   4.605   4.076 -0.1387  0.0684 -0.3080
  131CHL1   H7A15892   0.506   4.673   4.067 -0.9564 -0.6965  1.4086
  131CHL1   H7B15893   0.586   4.566   4.180  0.7683 -0.9961 -0.6197
  131CHL1    C815894   0.720   4.694   4.074  0.6603  0.0870  0.2641
  131CHL1    H815895   0.700   4.771   3.998  2.3265  0.1771 -0.1278
  131CHL1   C1415896   0.734   4.763   4.211  0.3717  0.6113  0.4974
  131CHL1   H1415897   0.778   4.693   4.285  1.4225  0.3177 -0.3714
  131CHL1   C1515898   0.615   4.831   4.275 -0.5357  0.3029  0.1460
  131CHL1  H15A15899   0.555   4.888   4.201 -0.3904  1.3798  0.8422
  131CHL1  H15B15900   0.561   4.747   4.324 -0.4396  0.8377  1.1732
  131CHL1   C1615901   0.686   4.924   4.380 -0.1227 -0.2572  0.3370
  131CHL1  H16A15902   0.662   5.033   4.375  0.1139 -0.2103  0.2124
  131CHL1  H16B15903   0.661   4.902   4.486 -0.2273  3.6260  1.2917
  131CHL1   C1715904   0.841   4.913   4.357  0.4589 -0.1794  0.3025
  131CHL1   H1715905   0.872   4.825   4.417 -2.1969 -1.1082  0.4398
  131CHL1   C1315906   0.849   4.870   4.213  0.2051  0.0160  0.3382
  131CHL1   C1815907   0.825   4.994   4.116  0.3089  0.9029 -0.2463
  131CHL1  H18A15908   0.740   5.061   4.142 -0.8960 -0.1085 -1.4269
  131CHL1  H18B15909   0.918   5.055   4.123 -0.4076  2.1054 -0.8329
  131CHL1  H18C15910   0.812   4.952   4.015 -0.9243  1.1415 -0.1998
  131CHL1   C1215911   0.983   4.797   4.168  0.0549 -0.1832  0.3306
  131CHL1  H12A15912   1.058   4.877   4.150  1.3796 -1.5429 -0.3632
  131CHL1  H12B15913   1.019   4.725   4.244  0.7437 -1.5050 -1.2060
  131CHL1   C1115914   0.961   4.724   4.033  0.1080  0.0010 -0.5472
  131CHL1  H11A15915   0.934   4.806   3.963  0.6204  1.4913  0.9376
  131CHL1  H11B15916   1.052   4.670   4.002  0.5144  1.5963 -2.3029
  131CHL1    C915917   0.848   4.623   4.041  0.1926  0.1529  0.2246
  131CHL1    H915918   0.866   4.545   4.118 -0.0134  0.6294  0.7635
  131CHL1   C1015919   0.832   4.540   3.909 -0.0986 -0.7728  0.1520
  131CHL1   C1915920   0.849   4.639   3.792 -0.3713 -0.7502  0.1493
  131CHL1  H19A15921   0.785   4.729   3.802  2.7279  1.5357  1.0072
  131CHL1  H19B15922   0.952   4.681   3.792  0.3866 -1.8318 -5.0174
  131CHL1  H19C15923   0.840   4.591   3.692 -1.3458 -1.3790  0.5252
  131CHL1    C115924   0.948   4.433   3.900  0.2153 -0.1570  0.1172
  131CHL1   H1A15925   1.033   4.500   3.877 -0.8507  1.7145  1.4054
  131CHL1   H1B15926   0.962   4.385   3.999  2.8718 -1.6731 -0.8871
  131CHL1    C215927   0.931   4.335   3.783 -0.3857  0.8070  0.5392
  131CHL1   H2A15928   1.019   4.267   3.783  1.1207  2.6712  0.9403
  131CHL1   H2B15929   0.928   4.382   3.682  2.6389  0.1767  0.0474
  131CHL1   C2015930   0.931   5.033   4.396  0.5059  0.2085  0.3395
  131CHL1   H2015931   0.945   5.115   4.322  0.9700 -0.1123  0.0677
  131CHL1   C2115932   1.066   4.981   4.425 -0.7953  0.4771  0.2766
  131CHL1  H21A15933   1.116   5.053   4.493 -1.7287  1.2978  0.1124
  131CHL1  H21B15934   1.130   4.984   4.334  0.7375 -1.1236  1.2294
  131CHL1  H21C15935   1.069   4.879   4.469 -0.6506 -0.0550 -0.9273
  131CHL1   C2215936   0.883   5.110   4.521  0.7173 -0.5510  0.2344
  131CHL1  H22A15937   0.951   5.196   4.541  0.3986 -0.1042 -0.5743
  131CHL1  H22B15938   0.778   5.145   4.507 -0.0163 -2.1497  1.4444
  131CHL1   C2315939   0.888   5.014   4.644 -0.0305 -0.5357  0.7107
  131CHL1  H23A15940   0.809   4.938   4.626  0.3447 -0.8023  0.1234
  131CHL1  H23B15941   0.981   4.953   4.649 -0.1615 -1.2785 -2.9174
  131CHL1   C2415942   0.872   5.079   4.780  0.1224 -0.4080  0.0231
  131CHL1  H24A15943   0.887   4.995   4.852  0.7995 -1.8249 -1.6923
  131CHL1  H24B15944   0.951   5.154   4.802  0.5086 -0.3931 -1.3413
  131CHL1   C2515945   0.725   5.144   4.801 -0.3603  1.1471  1.0000
  131CHL1   H2515946   0.704   5.203   4.709 -0.1189 -1.0457 -0.5391
  131CHL1   C2615947   0.622   5.035   4.794  0.5902  0.2590  0.2213
  131CHL1  H26A15948   0.623   4.986   4.694  0.6647  0.8420 -0.0698
  131CHL1  H26B15949   0.639   4.953   4.867 -1.2237 -2.3793 -2.1139
  131CHL1  H26C15950   0.518   5.071   4.804  0.6126  0.4384 -0.1782
  131CHL1   C2715951   0.724   5.238   4.932  0.4846 -0.3466  0.5927
  131CHL1  H27A15952   0.621   5.278   4.949 -0.1786 -1.7202  0.0182
  131CHL1  H27B15953   0.765   5.187   5.022  2.5063 -0.2317 -0.2232
  131CHL1  H27C15954   0.791   5.322   4.907 -1.0726  0.9741  0.6422
  132CHL1    C315955   2.568   7.472   3.239 -0.6144  0.1768 -0.7224
  132CHL1    H315956   2.563   7.362   3.227 -1.3451  0.0638  0.4187
  132CHL1    O315957   2.565   7.532   3.117 -0.0820  0.5972  0.1200
  132CHL1   H3'15958   2.590   7.623   3.135  3.0969 -0.3533  1.0663
  132CHL1    C415959   2.439   7.513   3.317  0.6698  0.1596 -0.4772
  132CHL1   H4A15960   2.433   7.624   3.323  1.8034  0.1634  1.0263
  132CHL1   H4B15961   2.354   7.475   3.256  0.2007  0.6549 -0.1412
  132CHL1    C515962   2.441   7.466   3.465 -0.6047  0.0141 -0.8202
  132CHL1    C615963   2.333   7.401   3.513 -0.5734 -0.0300 -0.0290
  132CHL1    H615964   2.240   7.399   3.455 -1.0603  1.8426  0.6281
  132CHL1    C715965   2.331   7.324   3.648 -0.2500 -0.7601  0.5732
  132CHL1   H7A15966   2.232   7.340   3.696 -0.7454  1.8920 -1.1106
  132CHL1   H7B15967   2.337   7.214   3.634  0.5043 -0.8684  1.6338
  132CHL1    C815968   2.433   7.384   3.741 -0.5349  0.1668  0.1053
  132CHL1    H815969   2.395   7.481   3.779 -2.1464 -0.4867  0.2087
  132CHL1   C1415970   2.454   7.299   3.874  0.0985  0.1572 -0.3706
  132CHL1   H1415971   2.499   7.204   3.836  0.1086 -0.4937  1.1900
  132CHL1   C1515972   2.327   7.252   3.953 -0.0609 -0.3178 -0.6737
  132CHL1  H15A15973   2.264   7.341   3.972  1.0139  0.0272  1.6206
  132CHL1  H15B15974   2.270   7.166   3.912 -0.3108  0.2622 -1.5677
  132CHL1   C1615975   2.390   7.196   4.086  0.1539 -0.5344  0.0810
  132CHL1  H16A15976   2.337   7.247   4.169 -0.4395 -0.6705 -0.2044
  132CHL1  H16B15977   2.384   7.085   4.090  2.4902 -0.8930 -2.6821
  132CHL1   C1715978   2.543   7.235   4.084 -0.5026  0.0236  0.4547
  132CHL1   H1715979   2.598   7.148   4.041 -1.1148  1.0101 -2.5798
  132CHL1   C1315980   2.562   7.337   3.971  0.4990  0.1943 -0.2255
  132CHL1   C1815981   2.524   7.474   4.035  0.0104 -0.3182  0.8029
  132CHL1  H18A15982   2.588   7.505   4.120 -0.8399 -1.5919  1.9301
  132CHL1  H18B15983   2.546   7.546   3.953  1.3872  0.3066  1.6799
  132CHL1  H18C15984   2.419   7.488   4.068  0.3164  0.9039  1.3193
  132CHL1   C1215985   2.693   7.332   3.892 -0.1283  0.7263 -0.0855
  132CHL1  H12A15986   2.782   7.360   3.952  0.3029 -0.1648 -0.3002
  132CHL1  H12B15987   2.712   7.228   3.857  0.5331  0.4244  1.1153
  132CHL1   C1115988   2.685   7.424   3.773 -0.3997 -0.1278  0.2981
  132CHL1  H11A15989   2.685   7.528   3.813 -2.9888  0.6080 -1.3620
  132CHL1  H11B15990   2.772   7.416   3.705 -1.9947  0.9749 -2.0167
  132CHL1    C915991   2.571   7.392   3.676  0.6443  0.0248  0.3334
  132CHL1    H915992   2.592   7.291   3.636  1.4095 -0.1471  1.1263
  132CHL1   C1015993   2.577   7.474   3.545 -0.7935 -0.5600  0.3541
  132CHL1   C1915994   2.587   7.621   3.591 -0.0979 -0.2808 -0.2030
  132CHL1  H19A15995   2.686   7.645   3.636 -0.5002  1.7903 -0.3499
  132CHL1  H19B15996   2.593   7.678   3.496  1.2199 -0.2833 -0.1501
  132CHL1  H19C15997   2.505   7.646   3.660  0.6706  0.1296  0.5770
  132CHL1    C115998   2.699   7.438   3.449 -0.4897 -0.8849 -0.1793
  132CHL1   H1A15999   2.794   7.475   3.494 -1.2155  0.9009 -0.0380
  132CHL1   H1B16000   2.702   7.329   3.427 -1.8643 -0.9216 -0.2625
  132CHL1    C216001   2.700   7.512   3.311 -0.1514 -0.1484  0.2211
  132CHL1   H2A16002   2.790   7.476   3.255  1.1954 -1.5300  3.0776
  132CHL1   H2B16003   2.722   7.619   3.329  2.3426 -0.5290 -0.1562
  132CHL1   C2016004   2.588   7.258   4.226 -0.5003 -0.6855 -0.5753
  132CHL1   H2016005   2.535   7.343   4.274  1.9168  0.5369  0.1113
  132CHL1   C2116006   2.742   7.281   4.221  0.4602 -0.2437  0.8490
  132CHL1  H21A16007   2.769   7.383   4.185 -1.5477 -0.5215 -1.7530
  132CHL1  H21B16008   2.791   7.200   4.163  1.6694  2.5257 -2.3391
  132CHL1  H21C16009   2.796   7.263   4.316  1.4065 -2.8416 -0.0915
  132CHL1   C2216010   2.548   7.131   4.313 -0.2755 -1.3906  0.0601
  132CHL1  H22A16011   2.438   7.120   4.309 -0.5754  1.2743 -0.9279
  132CHL1  H22B16012   2.594   7.046   4.259 -0.6532 -1.8539  0.4550
  132CHL1   C2316013   2.607   7.133   4.459 -0.0062  0.8989 -0.0450
  132CHL1  H23A16014   2.714   7.103   4.454  0.1205  0.3754  3.2286
  132CHL1  H23B16015   2.599   7.235   4.501  1.5919  0.6117  1.0455
  132CHL1   C2416016   2.531   7.023   4.549 -0.1844  0.5099 -0.2438
  132CHL1  H24A16017   2.429   7.062   4.567  0.0150  1.6429 -1.3699
  132CHL1  H24B16018   2.511   6.935   4.483 -0.6235  0.4005  0.0366
  132CHL1   C2516019   2.600   6.980   4.686  0.1984 -0.5830  0.0609
  132CHL1   H2516020   2.514   6.924   4.731  0.6795 -0.1510  1.5632
  132CHL1   C2616021   2.720   6.890   4.655 -0.1672 -0.4516  0.0732
  132CHL1  H26A16022   2.684   6.808   4.588  0.2481  1.4753 -2.6739
  132CHL1  H26B16023   2.794   6.950   4.598  0.7686 -0.1643  1.5443
  132CHL1  H26C16024   2.771   6.860   4.749 -2.1282 -0.1884  1.2675
  132CHL1   C2716025   2.642   7.102   4.770 -0.0262 -0.8341  0.4588
  132CHL1  H27A16026   2.685   7.076   4.869  1.2457  1.2769  0.5031
  132CHL1  H27B16027   2.718   7.163   4.717 -1.5573  1.3150  0.6268
  132CHL1  H27C16028   2.550   7.163   4.785  0.9983  0.9450 -0.2122
  133CHL1    C316029   1.297   1.739   3.654 -0.3875  0.3789 -0.3028
  133CHL1    H316030   1.394   1.697   3.619 -0.8060 -0.2584 -0.7295
  133CHL1    O316031   1.274   1.835   3.556  0.0049  0.0218 -0.0156
  133CHL1   H3'16032   1.241   1.785   3.481  1.3195  1.4281 -1.6107
  133CHL1    C416033   1.190   1.629   3.661  0.1348 -0.1751  0.3721
  133CHL1   H4A16034   1.091   1.679   3.675 -0.9035 -1.8240 -0.7094
  133CHL1   H4B16035   1.189   1.594   3.556  0.3073  0.8074  0.0363
  133CHL1    C516036   1.213   1.529   3.772  0.0962  0.4732  0.1321
  133CHL1    C616037   1.232   1.395   3.746  0.9958  0.2544  0.6683
  133CHL1    H616038   1.220   1.361   3.642  0.1110 -1.8378  1.3872
  133CHL1    C716039   1.251   1.294   3.849 -0.4529  0.2678 -0.1701
  133CHL1   H7A16040   1.185   1.209   3.822 -2.7378  1.5806  1.0192
  133CHL1   H7B16041   1.353   1.249   3.853  0.1994  1.7748  1.9551
  133CHL1    C816042   1.212   1.340   3.991  0.2455  0.1254 -0.1397
  133CHL1    H816043   1.102   1.350   4.001  0.0733  0.7686 -2.2000
  133CHL1   C1416044   1.261   1.247   4.097 -0.3827 -0.6791 -0.1586
  133CHL1   H1416045   1.372   1.244   4.095 -0.2165 -2.7350  3.5892
  133CHL1   C1516046   1.235   1.100   4.071 -0.0668 -0.0416 -0.0459
  133CHL1  H15A16047   1.128   1.079   4.050  0.3353  0.2995 -2.7680
  133CHL1  H15B16048   1.295   1.061   3.987  0.1063  0.0019  0.0570
  133CHL1   C1616049   1.270   1.033   4.204 -0.2003 -0.0800  0.3809
  133CHL1  H16A16050   1.185   0.971   4.239 -0.8095 -0.3816 -1.5183
  133CHL1  H16B16051   1.359   0.966   4.196 -1.0011 -1.2236  0.8259
  133CHL1   C1716052   1.288   1.154   4.308 -0.2834 -0.2596  0.4877
  133CHL1   H1716053   1.395   1.182   4.301 -0.5061  0.1798 -1.7966
  133CHL1   C1316054   1.219   1.275   4.240  0.0531 -0.3035 -0.0130
  133CHL1   C1816055   1.070   1.263   4.268 -0.3026 -0.6061  0.4393
  133CHL1  H18A16056   1.052   1.297   4.373  1.6144 -0.5447  0.7838
  133CHL1  H18B16057   1.017   1.328   4.195 -0.7275 -1.9504 -0.4871
  133CHL1  H18C16058   1.033   1.161   4.246 -1.9270  0.5101 -2.5158
  133CHL1   C1216059   1.289   1.412   4.268 -0.0562 -0.7883 -0.2638
  133CHL1  H12A16060   1.289   1.450   4.373 -0.0023 -2.2884  0.3027
  133CHL1  H12B16061   1.394   1.387   4.240  0.1227 -0.9690  0.5372
  133CHL1   C1116062   1.240   1.517   4.165  0.1785 -0.1907  0.0062
  133CHL1  H11A16063   1.136   1.542   4.194 -0.0415  0.7278 -1.4517
  133CHL1  H11B16064   1.272   1.622   4.186 -4.1091  1.4258 -0.6277
  133CHL1    C916065   1.267   1.480   4.022  0.2269 -0.9279  0.4420
  133CHL1    H916066   1.375   1.475   3.997 -0.3054 -0.4798 -2.2906
  133CHL1   C1016067   1.223   1.589   3.911 -0.0991 -0.8832 -0.1259
  133CHL1   C1916068   1.093   1.652   3.953 -0.1487 -0.4010 -0.3998
  133CHL1  H19A16069   1.109   1.693   4.055 -2.2872 -0.7904  0.1443
  133CHL1  H19B16070   1.050   1.735   3.894 -0.8672 -2.1984 -2.5168
  133CHL1  H19C16071   1.008   1.580   3.956 -0.6251  0.1730  0.2531
  133CHL1    C116072   1.329   1.704   3.904  0.2775 -0.3181  0.6130
  133CHL1   H1A16073   1.342   1.752   4.004 -0.3930 -0.7031  0.8898
  133CHL1   H1B16074   1.428   1.654   3.892 -0.6080 -1.7574 -1.0619
  133CHL1    C216075   1.309   1.803   3.791  0.1516 -0.5289 -0.4887
  133CHL1   H2A16076   1.380   1.888   3.793 -2.0690  1.4361  1.1960
  133CHL1   H2B16077   1.213   1.851   3.819  0.3845  0.0390 -0.6374
  133CHL1   C2016078   1.263   1.128   4.459  1.0446  0.2843  0.0407
  133CHL1   H2016079   1.161   1.085   4.467  1.8457 -1.6952  0.0783
  133CHL1   C2116080   1.295   1.243   4.549 -0.0969 -0.5004 -0.1226
  133CHL1  H21A16081   1.296   1.210   4.655 -0.7788  0.2453  0.1233
  133CHL1  H21B16082   1.227   1.328   4.527  2.8124  1.6538 -1.5815
  133CHL1  H21C16083   1.400   1.265   4.519 -0.6717  1.2773 -0.9403
  133CHL1   C2216084   1.344   1.006   4.500 -0.3209  0.0419  0.1417
  133CHL1  H22A16085   1.317   0.928   4.426  2.0989 -0.1168 -0.6496
  133CHL1  H22B16086   1.451   1.029   4.483 -0.0413 -0.8858  0.6279
  133CHL1   C2316087   1.324   0.932   4.632  0.2495 -0.3392  0.1804
  133CHL1  H23A16088   1.345   1.006   4.713 -0.1119 -0.0702  0.0277
  133CHL1  H23B16089   1.215   0.917   4.643 -0.0384  2.3312  2.0273
  133CHL1   C2416090   1.390   0.796   4.632 -0.1255  0.0335  0.0178
  133CHL1  H24A16091   1.352   0.730   4.551  2.4772 -0.1358 -1.1833
  133CHL1  H24B16092   1.496   0.805   4.601  0.0777 -0.9245  0.3915
  133CHL1   C2516093   1.385   0.724   4.769  0.6107 -0.1519 -0.0864
  133CHL1   H2516094   1.281   0.691   4.788  0.6047  0.4382  1.0148
  133CHL1   C2616095   1.467   0.593   4.780 -0.0375  0.0080 -0.0671
  133CHL1  H26A16096   1.465   0.527   4.690 -0.1905 -2.2421  1.5250
  133CHL1  H26B16097   1.574   0.618   4.801 -0.4460  1.4926  0.3944
  133CHL1  H26C16098   1.446   0.528   4.867  3.4761 -0.3062  0.7285
  133CHL1   C2716099   1.426   0.827   4.876  0.3688 -0.0223  0.6831
  133CHL1  H27A16100   1.518   0.882   4.849  0.7204 -0.5049  0.8866
  133CHL1  H27B16101   1.346   0.902   4.895  0.8831  1.0317 -1.1035
  133CHL1  H27C16102   1.445   0.778   4.974  0.7555 -0.1541  0.5424
  134CHL1    C316103   0.102   2.515   3.736 -0.7740 -0.0679  0.2249
  134CHL1    H316104   0.171   2.428   3.742  0.1687  0.7586  3.1390
  134CHL1    O316105   0.122   2.571   3.607  0.1300  0.1200  0.2545
  134CHL1   H3'16106   0.091   2.661   3.619  1.8243  0.6486  0.8242
  134CHL1    C416107  -0.044   2.468   3.745 -0.2683  0.1876 -0.7987
  134CHL1   H4A16108  -0.110   2.552   3.715 -0.5443 -0.0117 -0.7561
  134CHL1   H4B16109  -0.046   2.402   3.656  2.2961 -0.7156 -0.2749
  134CHL1    C516110  -0.081   2.400   3.877  0.1852 -0.6200  0.2643
  134CHL1    C616111  -0.131   2.276   3.877  0.4646 -0.3968 -0.3061
  134CHL1    H616112  -0.147   2.231   3.778 -0.3425 -0.8962  0.0333
  134CHL1    C716113  -0.183   2.203   4.000  0.6140 -0.3388 -0.6515
  134CHL1   H7A16114  -0.284   2.162   3.982  0.5750 -1.2196  1.2649
  134CHL1   H7B16115  -0.116   2.120   4.034  0.7448  0.1849  0.4147
  134CHL1    C816116  -0.185   2.304   4.125  0.0923 -0.0437 -0.2183
  134CHL1    H816117  -0.278   2.365   4.115 -0.2595 -0.5779 -0.2466
  134CHL1   C1416118  -0.196   2.221   4.258  0.6161  0.0384 -0.8195
  134CHL1   H1416119  -0.103   2.161   4.255  0.0187 -0.8783 -2.2690
  134CHL1   C1516120  -0.315   2.125   4.271  0.3101 -0.4629 -0.6852
  134CHL1  H15A16121  -0.411   2.177   4.256 -0.2326 -0.5148  2.0174
  134CHL1  H15B16122  -0.314   2.035   4.206 -1.1255 -1.1543  0.1961
  134CHL1   C1616123  -0.294   2.085   4.419  0.3696  0.1846  0.4239
  134CHL1  H16A16124  -0.394   2.089   4.467 -0.2754 -1.3285 -0.6907
  134CHL1  H16B16125  -0.254   1.981   4.417  1.4424  0.5006  2.5153
  134CHL1   C1716126  -0.194   2.181   4.487  0.8649  0.7749 -0.3542
  134CHL1   H1716127  -0.089   2.145   4.489  1.2966  1.8978 -1.3253
  134CHL1   C1316128  -0.199   2.301   4.388 -0.6526  0.3896  0.5669
  134CHL1   C1816129  -0.326   2.383   4.404  0.6564 -0.0945 -0.1072
  134CHL1  H18A16130  -0.338   2.454   4.320  0.0494 -0.4693 -0.3478
  134CHL1  H18B16131  -0.421   2.324   4.407 -1.4148  3.0107  0.3689
  134CHL1  H18C16132  -0.326   2.444   4.497 -1.3574  0.5776 -0.4864
  134CHL1   C1216133  -0.074   2.397   4.391 -0.2526  0.3119  0.0049
  134CHL1  H12A16134  -0.067   2.459   4.483 -1.2311  0.9364 -0.3259
  134CHL1  H12B16135   0.013   2.329   4.383 -1.0610 -0.9882  1.5799
  134CHL1   C1116136  -0.066   2.480   4.261  0.3946 -0.8174 -0.6142
  134CHL1  H11A16137  -0.162   2.534   4.264  0.5572 -0.5578  0.3677
  134CHL1  H11B16138   0.018   2.552   4.277  0.0198 -0.7209  1.1301
  134CHL1    C916139  -0.067   2.396   4.136  0.3219 -0.0959  0.1685
  134CHL1    H916140   0.022   2.330   4.147 -1.4590 -2.4743  1.1346
  134CHL1   C1016141  -0.049   2.482   4.005 -0.0502 -0.7954 -0.7701
  134CHL1   C1916142  -0.167   2.590   4.004 -0.7268 -0.7554  0.2565
  134CHL1  H19A16143  -0.167   2.643   3.907 -0.6310 -2.2279 -0.5819
  134CHL1  H19B16144  -0.269   2.551   4.025 -1.1214  0.9705  1.7319
  134CHL1  H19C16145  -0.147   2.666   4.082  0.8486  0.7206 -1.4795
  134CHL1    C116146   0.092   2.548   3.993 -0.8177  0.1633  0.2634
  134CHL1   H1A16147   0.114   2.626   4.068 -1.4704  0.3037  0.3156
  134CHL1   H1B16148   0.167   2.469   4.019 -0.1586  1.4736  2.6014
  134CHL1    C216149   0.128   2.612   3.852  0.2425 -0.6117  0.0950
  134CHL1   H2A16150   0.235   2.643   3.851  0.3936 -1.0120  1.5759
  134CHL1   H2B16151   0.058   2.697   3.836 -0.2386 -1.4717 -3.0863
  134CHL1   C2016152  -0.234   2.204   4.630  0.5229  0.1578  0.6038
  134CHL1   H2016153  -0.343   2.228   4.629  0.4043 -0.3769 -0.3602
  134CHL1   C2116154  -0.155   2.327   4.684  0.2817  0.1610  0.0357
  134CHL1  H21A16155  -0.209   2.422   4.662 -1.5353 -0.9810 -0.6430
  134CHL1  H21B16156  -0.059   2.321   4.629  0.1489 -0.0050 -0.1774
  134CHL1  H21C16157  -0.131   2.319   4.792 -1.8550  5.5952  1.2774
  134CHL1   C2216158  -0.207   2.089   4.728  0.0553  0.7527 -0.2073
  134CHL1  H22A16159  -0.232   1.990   4.686 -0.8126  0.9072 -0.0901
  134CHL1  H22B16160  -0.101   2.093   4.761 -0.3825  0.7257  1.3036
  134CHL1   C2316161  -0.289   2.110   4.865  0.1039 -0.3646  0.6891
  134CHL1  H23A16162  -0.235   2.182   4.930 -3.2138  1.7614  1.3357
  134CHL1  H23B16163  -0.388   2.154   4.844 -0.6055 -1.4225  1.6733
  134CHL1   C2416164  -0.299   1.976   4.933 -0.8357 -0.5913  0.3162
  134CHL1  H24A16165  -0.346   1.910   4.857  0.6210 -0.7892 -0.4592
  134CHL1  H24B16166  -0.197   1.934   4.951 -0.4868 -0.4873 -1.3074
  134CHL1   C2516167  -0.378   1.980   5.065 -0.3008  0.2902  0.4622
  134CHL1   H2516168  -0.469   2.040   5.046 -0.8293 -0.0068  1.8934
  134CHL1   C2616169  -0.417   1.837   5.096 -0.2328  0.4081 -0.5598
  134CHL1  H26A16170  -0.332   1.771   5.124  0.3070  0.6062 -1.6853
  134CHL1  H26B16171  -0.488   1.827   5.180  0.0082 -1.5717 -0.5288
  134CHL1  H26C16172  -0.479   1.789   5.017 -0.0822 -1.7542  0.5319
  134CHL1   C2716173  -0.298   2.050   5.182 -0.3534 -0.6271  0.1493
  134CHL1  H27A16174  -0.206   1.993   5.208 -1.0774 -1.6430  0.5309
  134CHL1  H27B16175  -0.264   2.151   5.151  1.9238 -1.7621 -1.4087
  134CHL1  H27C16176  -0.362   2.058   5.272 -0.2979 -1.1428  0.2363
  135CHL1    C316177   7.055   2.350   3.670  0.0603  0.1201 -0.6040
  135CHL1    H316178   7.142   2.285   3.694 -0.0785  0.4950  0.9972
  135CHL1    O316179   7.076   2.397   3.540 -0.1696 -0.2239 -0.0112
  135CHL1   H3'16180   7.003   2.459   3.530 -1.1847 -1.3659  0.1034
  135CHL1    C416181   6.936   2.261   3.678 -0.2318 -0.1173 -0.4114
  135CHL1   H4A16182   6.847   2.303   3.627 -1.4580  0.2348  1.8422
  135CHL1   H4B16183   6.956   2.165   3.625 -1.2935 -0.8737  0.5094
  135CHL1    C516184   6.901   2.223   3.823 -0.4060 -0.1996 -0.5647
  135CHL1    C616185   6.890   2.097   3.868 -0.3678  0.1398  0.4092
  135CHL1    H616186   6.889   2.010   3.801 -0.1238 -0.0744  0.6837
  135CHL1    C716187   6.850   2.058   4.006  0.6917  0.1219  0.1942
  135CHL1   H7A16188   6.775   1.976   3.999  0.3514  0.4883 -0.6384
  135CHL1   H7B16189   6.933   2.007   4.060  1.1513  0.5849 -0.0667
  135CHL1    C816190   6.799   2.181   4.096 -0.8942  0.4554 -0.5114
  135CHL1    H816191   6.695   2.200   4.065 -0.9459  2.2457  0.6496
  135CHL1   C1416192   6.801   2.147   4.238 -0.2738 -0.7882 -0.4265
  135CHL1   H1416193   6.907   2.122   4.262  0.0286  1.3305  0.6763
  135CHL1   C1516194   6.720   2.025   4.281 -0.1259  0.3728 -0.6298
  135CHL1  H15A16195   6.620   2.033   4.233 -0.2095  0.6187 -0.4173
  135CHL1  H15B16196   6.768   1.933   4.241 -0.0766  1.3923 -3.1303
  135CHL1   C1616197   6.709   2.038   4.440  0.7181  0.3417 -0.2688
  135CHL1  H16A16198   6.604   2.013   4.466  0.9436 -0.6809 -0.2948
  135CHL1  H16B16199   6.776   1.959   4.480  3.8307  2.4352 -0.9708
  135CHL1   C1716200   6.766   2.181   4.463  0.4331  0.7057  0.1272
  135CHL1   H1716201   6.874   2.168   4.488  0.9813 -1.5701 -2.7969
  135CHL1   C1316202   6.758   2.257   4.326  0.5012 -0.4729  0.4027
  135CHL1   C1816203   6.609   2.302   4.297 -0.7250  0.3120  0.4374
  135CHL1  H18A16204   6.579   2.375   4.375 -1.9941  0.4409 -0.1614
  135CHL1  H18B16205   6.599   2.346   4.196 -1.4043  1.2634  0.9105
  135CHL1  H18C16206   6.529   2.225   4.294  0.4950 -1.0517 -3.3772
  135CHL1   C1216207   6.860   2.378   4.313 -0.5691 -1.1897 -0.0706
  135CHL1  H12A16208   6.809   2.448   4.382 -0.7680 -1.4690  0.0705
  135CHL1  H12B16209   6.964   2.348   4.340  0.6049 -0.5694 -3.3520
  135CHL1   C1116210   6.859   2.422   4.165 -0.2906  0.1919  0.7029
  135CHL1  H11A16211   6.765   2.479   4.148 -0.8034 -0.8373 -0.0200
  135CHL1  H11B16212   6.936   2.501   4.153  2.0544 -1.9516  0.7399
  135CHL1    C916213   6.883   2.301   4.067  0.1611  0.0732  0.1714
  135CHL1    H916214   6.987   2.271   4.090  0.3512  1.1143  0.6941
  135CHL1   C1016215   6.886   2.347   3.915 -0.3328  0.8981  0.0184
  135CHL1   C1916216   6.756   2.419   3.879  0.1536  0.1435  0.0224
  135CHL1  H19A16217   6.759   2.449   3.772  1.1618  0.6675  0.1840
  135CHL1  H19B16218   6.674   2.348   3.902  0.1289 -0.4536 -1.7609
  135CHL1  H19C16219   6.745   2.512   3.939  1.2102 -0.2174  0.7924
  135CHL1    C116220   7.001   2.435   3.897  0.2141 -0.6607  0.1274
  135CHL1   H1A16221   6.977   2.530   3.949 -0.0547 -1.2307  1.0520
  135CHL1   H1B16222   7.087   2.399   3.958 -0.1924 -0.2396  0.9584
  135CHL1    C216223   7.041   2.468   3.755 -0.5469 -0.3781 -0.1057
  135CHL1   H2A16224   7.129   2.535   3.756 -0.4128 -0.5613  0.9228
  135CHL1   H2B16225   6.953   2.527   3.720 -1.8661 -1.1431  1.7110
  135CHL1   C2016226   6.714   2.257   4.586 -0.4884 -0.4194  0.4507
  135CHL1   H2016227   6.709   2.364   4.556  0.0252 -0.3916  0.4506
  135CHL1   C2116228   6.814   2.222   4.706  0.3985  0.3587  0.3788
  135CHL1  H21A16229   6.770   2.282   4.789 -1.2742  1.1160 -0.9841
  135CHL1  H21B16230   6.914   2.255   4.673  0.3865  1.0675  1.0094
  135CHL1  H21C16231   6.817   2.114   4.731 -0.8519  0.4419  1.0206
  135CHL1   C2216232   6.572   2.228   4.630 -0.9569  0.3223  0.0139
  135CHL1  H22A16233   6.501   2.221   4.545 -0.9866 -1.9386  0.1701
  135CHL1  H22B16234   6.574   2.126   4.674 -0.3795 -1.2602 -3.4113
  135CHL1   C2316235   6.496   2.314   4.729 -0.0169 -0.0813 -0.0299
  135CHL1  H23A16236   6.557   2.318   4.822  0.9013  0.0090 -0.6252
  135CHL1  H23B16237   6.498   2.419   4.692  0.2579 -0.0471  0.0788
  135CHL1   C2416238   6.356   2.254   4.753  0.6588  0.3117 -0.0581
  135CHL1  H24A16239   6.306   2.205   4.666  2.8430 -1.2048 -0.5550
  135CHL1  H24B16240   6.371   2.171   4.826  1.9521  0.8675  0.3313
  135CHL1   C2516241   6.248   2.360   4.809  0.4253 -0.3481 -0.2435
  135CHL1   H2516242   6.242   2.441   4.733  1.7047  1.1034  1.1201
  135CHL1   C2616243   6.114   2.282   4.811  0.1688 -0.0459 -0.1828
  135CHL1  H26A16244   6.090   2.240   4.711 -0.6907  2.9608 -1.3346
  135CHL1  H26B16245   6.105   2.195   4.880  1.9087  0.2691  0.4985
  135CHL1  H26C16246   6.030   2.351   4.833  1.2879  2.1275 -2.2365
  135CHL1   C2716247   6.286   2.422   4.940 -0.4172  0.9232 -0.5494
  135CHL1  H27A16248   6.280   2.343   5.017  0.1755 -0.0813 -1.5006
  135CHL1  H27B16249   6.395   2.441   4.938 -0.2415 -0.0420 -0.2873
  135CHL1  H27C16250   6.240   2.517   4.975  3.2800  1.5839  3.3455
  136CHL1    C316251   5.755   1.773   3.802 -0.4253  0.4115 -0.4640
  136CHL1    H316252   5.824   1.847   3.847  0.6285  0.0175 -1.3975
  136CHL1    O316253   5.712   1.803   3.674 -0.4656  0.5621 -0.3998
  136CHL1   H3'16254   5.676   1.724   3.633  3.5578 -0.2085 -2.9669
  136CHL1    C416255   5.839   1.643   3.797  0.0824  0.0890 -0.0736
  136CHL1   H4A16256   5.772   1.560   3.765 -1.0168  0.6901  0.5886
  136CHL1   H4B16257   5.923   1.648   3.725  0.2948 -0.0392  0.1627
  136CHL1    C516258   5.889   1.610   3.933 -0.0560 -0.2800 -0.1346
  136CHL1    C616259   6.026   1.612   3.956 -0.9881 -0.3419  1.1714
  136CHL1    H616260   6.100   1.617   3.874  0.5094 -0.2944  2.4653
  136CHL1    C716261   6.086   1.593   4.089  0.2187  0.1904  0.4019
  136CHL1   H7A16262   6.174   1.525   4.095  0.4434  0.4275 -0.1658
  136CHL1   H7B16263   6.118   1.693   4.125 -0.4485  0.8846 -0.8795
  136CHL1    C816264   5.988   1.531   4.193 -0.6261  0.2789 -0.2383
  136CHL1    H816265   5.968   1.433   4.145 -3.0045  1.4145 -1.7821
  136CHL1   C1416266   6.049   1.520   4.340  0.4397  0.3778  0.6513
  136CHL1   H1416267   6.072   1.625   4.368  2.0106  0.5951 -1.2537
  136CHL1   C1516268   6.184   1.456   4.365 -0.3179  0.0290 -0.2200
  136CHL1  H15A16269   6.185   1.351   4.328  2.5008 -1.2361  2.9262
  136CHL1  H15B16270   6.269   1.517   4.327  0.1738 -1.8163 -2.2938
  136CHL1   C1616271   6.179   1.434   4.518 -0.2908  0.4378  0.1231
  136CHL1  H16A16272   6.211   1.332   4.550  0.0455  0.7405  0.7693
  136CHL1  H16B16273   6.247   1.506   4.569  2.0222 -0.8998 -0.9318
  136CHL1   C1716274   6.042   1.473   4.571  0.7087 -0.3352  0.0305
  136CHL1   H1716275   6.033   1.578   4.608 -0.2278 -0.2111 -0.5229
  136CHL1   C1316276   5.950   1.468   4.450  0.7932  1.1676  0.7066
  136CHL1   C1816277   5.902   1.319   4.429  0.1937  0.1454 -0.3286
  136CHL1  H18A16278   5.855   1.301   4.330 -0.0300  0.5343 -0.2938
  136CHL1  H18B16279   5.985   1.245   4.427 -1.4937 -1.8388 -0.1901
  136CHL1  H18C16280   5.832   1.288   4.509 -0.2178 -0.8380 -1.0496
  136CHL1   C1216281   5.833   1.568   4.448  0.0343 -0.8784  0.0955
  136CHL1  H12A16282   5.746   1.548   4.514 -0.7669 -0.8840 -0.9315
  136CHL1  H12B16283   5.870   1.672   4.461  0.6534 -0.9355 -1.0183
  136CHL1   C1116284   5.762   1.571   4.318  0.5289 -0.3579 -0.1724
  136CHL1  H11A16285   5.719   1.470   4.303  0.3401 -0.6781  2.1146
  136CHL1  H11B16286   5.674   1.638   4.320  0.3289 -0.2963 -4.2113
  136CHL1    C916287   5.853   1.609   4.198 -0.0995  0.3883  0.2099
  136CHL1    H916288   5.883   1.713   4.220  0.5853  0.0843  0.7583
  136CHL1   C1016289   5.784   1.606   4.051 -0.0866  0.4552 -0.1221
  136CHL1   C1916290   5.701   1.478   4.039  0.2357  0.1308 -0.1984
  136CHL1  H19A16291   5.608   1.462   4.097 -0.0145  0.6169 -0.4586
  136CHL1  H19B16292   5.665   1.462   3.935  1.0557 -0.9526 -0.3387
  136CHL1  H19C16293   5.762   1.388   4.064 -1.2015 -0.4867  1.2169
  136CHL1    C116294   5.690   1.732   4.044 -0.0366 -0.2586 -0.7260
  136CHL1   H1A16295   5.603   1.721   4.111  1.1156 -1.4892  0.6315
  136CHL1   H1B16296   5.752   1.813   4.087  0.6979 -0.8204 -0.6958
  136CHL1    C216297   5.645   1.760   3.899  0.2370  0.6575  0.1926
  136CHL1   H2A16298   5.579   1.849   3.889 -1.1595 -0.3596  0.0348
  136CHL1   H2B16299   5.592   1.667   3.868  0.6313  0.6971 -0.6289
  136CHL1   C2016300   6.004   1.401   4.696  0.4323 -0.1391  0.2892
  136CHL1   H2016301   6.000   1.292   4.677  3.4509 -0.3084  0.1588
  136CHL1   C2116302   5.864   1.445   4.741  0.5213 -0.7025  0.2774
  136CHL1  H21A16303   5.791   1.412   4.665 -1.8036  3.2122  0.5487
  136CHL1  H21B16304   5.849   1.554   4.757 -0.3898 -0.9304  1.0682
  136CHL1  H21C16305   5.829   1.391   4.832 -0.7505 -1.0082 -0.3641
  136CHL1   C2216306   6.099   1.422   4.814 -0.3893 -0.1017 -0.5659
  136CHL1  H22A16307   6.065   1.354   4.895 -1.3803  2.5234  1.3655
  136CHL1  H22B16308   6.199   1.380   4.790 -0.0579  1.6221 -2.4749
  136CHL1   C2316309   6.108   1.564   4.877 -0.3924 -0.8617  0.2449
  136CHL1  H23A16310   6.127   1.640   4.798  2.9272 -0.4388  1.2538
  136CHL1  H23B16311   6.012   1.587   4.929 -0.0586 -1.1572  1.0159
  136CHL1   C2416312   6.218   1.581   4.990  0.0852 -0.5287 -0.3223
  136CHL1  H24A16313   6.201   1.487   5.047 -0.2266  0.0007  0.4768
  136CHL1  H24B16314   6.314   1.575   4.936  0.4609 -0.6160  0.3519
  136CHL1   C2516315   6.212   1.693   5.095 -0.0471 -0.5158 -0.1750
  136CHL1   H2516316   6.112   1.691   5.144  1.2086 -2.9223  2.6391
  136CHL1   C2616317   6.320   1.668   5.206  0.1836 -0.0709  0.1958
  136CHL1  H26A16318   6.337   1.755   5.272 -1.9635 -0.7349  1.7560
  136CHL1  H26B16319   6.283   1.584   5.270  0.3509 -0.4098 -0.1456
  136CHL1  H26C16320   6.411   1.636   5.151 -1.8173  1.7251 -4.7101
  136CHL1   C2716321   6.232   1.831   5.025 -0.1806 -0.0752 -0.4874
  136CHL1  H27A16322   6.213   1.921   5.087  0.2010  0.9663 -1.8047
  136CHL1  H27B16323   6.336   1.832   4.986  0.2645 -1.0748  0.6415
  136CHL1  H27C16324   6.162   1.845   4.940 -0.1085 -2.0794 -0.9080
  137CHL1    C316325   1.480   1.145   3.519  0.4854 -0.2959 -0.4431
  137CHL1    H316326   1.438   1.213   3.597 -0.9088 -0.0660 -1.3616
  137CHL1    O316327   1.488   1.198   3.393 -1.1207 -0.7950 -0.1094
  137CHL1   H3'16328   1.404   1.242   3.379  0.0089  1.0036 -1.7831
  137CHL1    C416329   1.623   1.104   3.556 -0.5671 -0.3569  0.2485
  137CHL1   H4A16330   1.656   1.033   3.477  1.5547 -0.9173  1.5632
  137CHL1   H4B16331   1.692   1.190   3.541  0.2685 -0.7465  1.7333
  137CHL1    C516332   1.641   1.027   3.687 -0.4831 -0.1591 -0.9200
  137CHL1    C616333   1.729   1.067   3.779  0.1849  0.9288  0.5833
  137CHL1    H616334   1.789   1.157   3.759  0.2578  0.5688 -0.9136
  137CHL1    C716335   1.754   0.998   3.909  0.6498  0.2909  0.3558
  137CHL1   H7A16336   1.863   0.989   3.924  0.6027  1.3628  1.5376
  137CHL1   H7B16337   1.723   1.054   3.999  2.4854  0.3739  0.9679
  137CHL1    C816338   1.680   0.859   3.916  0.2163 -0.0523  0.0498
  137CHL1    H816339   1.741   0.782   3.865  1.0534  0.5845  0.0626
  137CHL1   C1416340   1.669   0.823   4.060 -0.3587  0.5142 -1.3797
  137CHL1   H1416341   1.604   0.900   4.107 -1.2330  0.7942 -2.9783
  137CHL1   C1516342   1.799   0.818   4.145 -0.0072  0.1537  0.6271
  137CHL1  H15A16343   1.875   0.771   4.080 -3.4015 -3.1071 -1.4038
  137CHL1  H15B16344   1.850   0.909   4.182 -1.3829  0.2337  2.4765
  137CHL1   C1616345   1.764   0.725   4.260 -0.1083 -0.0929 -0.4063
  137CHL1  H16A16346   1.834   0.640   4.250  0.7262  0.6295 -0.8712
  137CHL1  H16B16347   1.787   0.774   4.357 -0.9308 -0.4501 -0.0226
  137CHL1   C1716348   1.614   0.666   4.240 -0.6685 -0.4504  0.4435
  137CHL1   H1716349   1.542   0.725   4.301  0.3760  0.9600  0.3505
  137CHL1   C1316350   1.591   0.690   4.081  0.4423 -0.3548  0.6421
  137CHL1   C1816351   1.665   0.578   3.999  0.3897  0.8129 -0.1293
  137CHL1  H18A16352   1.646   0.572   3.889 -0.3290  1.9357 -0.0813
  137CHL1  H18B16353   1.773   0.600   4.003  0.7413 -0.9413  2.7460
  137CHL1  H18C16354   1.644   0.477   4.040  0.7899  1.4625  1.7668
  137CHL1   C1216355   1.445   0.712   4.041 -0.1340 -0.1419  0.3819
  137CHL1  H12A16356   1.380   0.622   4.045 -0.5575  0.1271 -0.3561
  137CHL1  H12B16357   1.399   0.792   4.103  1.3860  0.6617  0.5303
  137CHL1   C1116358   1.447   0.753   3.892  0.2798  1.0377 -0.3462
  137CHL1  H11A16359   1.476   0.658   3.842  1.3270  1.3181 -0.2905
  137CHL1  H11B16360   1.343   0.784   3.869 -0.2039 -0.8635 -0.9231
  137CHL1    C916361   1.542   0.866   3.852  0.1791  0.6033 -0.4136
  137CHL1    H916362   1.503   0.953   3.909  1.8114  0.6333  0.7172
  137CHL1   C1016363   1.548   0.905   3.705  0.2090  0.5312 -0.7388
  137CHL1   C1916364   1.595   0.792   3.617 -0.5561  0.4282  0.1806
  137CHL1  H19A16365   1.574   0.820   3.512 -0.7477 -0.5158 -0.0384
  137CHL1  H19B16366   1.701   0.762   3.635  0.2300  1.5994 -2.1368
  137CHL1  H19C16367   1.546   0.693   3.615 -1.5985  0.8858  1.6484
  137CHL1    C116368   1.406   0.943   3.647 -0.1387  0.1213 -0.1547
  137CHL1   H1A16369   1.343   0.852   3.643  0.2542 -0.2466  1.3467
  137CHL1   H1B16370   1.357   1.002   3.728 -0.5997 -3.9883  2.8798
  137CHL1    C216371   1.395   1.019   3.518 -0.2317  0.4836 -0.1461
  137CHL1   H2A16372   1.288   1.043   3.498 -0.8573 -0.2184  2.0316
  137CHL1   H2B16373   1.435   0.951   3.440 -0.2489  0.1284  0.1535
  137CHL1   C2016374   1.609   0.522   4.292  0.5171  0.7327  0.1070
  137CHL1   H2016375   1.684   0.459   4.240 -1.0269 -0.1439 -1.1657
  137CHL1   C2116376   1.468   0.461   4.271  0.0424 -0.5060  0.4391
  137CHL1  H21A16377   1.449   0.456   4.161 -0.9534  1.6253  0.4608
  137CHL1  H21B16378   1.391   0.526   4.318 -0.1854  0.3606 -1.0464
  137CHL1  H21C16379   1.465   0.357   4.311 -0.4553 -1.0851 -1.0218
  137CHL1   C2216380   1.633   0.509   4.442  0.2746 -0.2403 -0.0807
  137CHL1  H22A16381   1.715   0.577   4.474 -0.4212  1.0964 -1.0338
  137CHL1  H22B16382   1.550   0.549   4.504  1.3572  0.8260  0.7266
  137CHL1   C2316383   1.666   0.355   4.473  0.1511  0.7456 -0.5621
  137CHL1  H23A16384   1.575   0.292   4.470  1.5336 -1.3473 -0.5616
  137CHL1  H23B16385   1.731   0.312   4.394 -0.4233  1.4978 -1.4646
  137CHL1   C2416386   1.744   0.348   4.604  0.4244  1.3216 -0.9006
  137CHL1  H24A16387   1.825   0.424   4.597  1.9223  0.0292  1.3042
  137CHL1  H24B16388   1.683   0.373   4.694 -1.8410 -3.3600 -0.8370
  137CHL1   C2516389   1.798   0.206   4.644  0.0240 -0.1776  1.0243
  137CHL1   H2516390   1.717   0.142   4.601  1.0187  0.1290 -1.5192
  137CHL1   C2616391   1.918   0.174   4.554 -0.1484 -0.1055  0.1285
  137CHL1  H26A16392   2.010   0.231   4.579 -1.8310  2.8277  0.0854
  137CHL1  H26B16393   1.941   0.065   4.557 -1.6504 -0.4691 -0.5232
  137CHL1  H26C16394   1.903   0.203   4.447  0.9631 -0.1575 -0.0555
  137CHL1   C2716395   1.817   0.177   4.799  0.7141 -0.0281  0.1266
  137CHL1  H27A16396   1.876   0.261   4.840  0.9122  0.9373 -2.0143
  137CHL1  H27B16397   1.713   0.166   4.837  0.0545 -1.2061 -1.8282
  137CHL1  H27C16398   1.878   0.086   4.814  0.1244 -0.5384 -0.5043
  138CHL1    C316399   0.659   0.051   3.286  1.0233  0.7985  0.2915
  138CHL1    H316400   0.560   0.003   3.299  2.5848 -2.8180  0.0994
  138CHL1    O316401   0.677   0.132   3.173  0.8424 -0.6146 -0.0274
  138CHL1   H3'16402   0.771   0.131   3.156  0.7311  1.1780 -0.9373
  138CHL1    C416403   0.678   0.142   3.406 -0.1498  1.0124 -0.0888
  138CHL1   H4A16404   0.767   0.208   3.394  0.1965  0.5474 -0.1256
  138CHL1   H4B16405   0.582   0.197   3.404  0.4638  2.0863 -0.6264
  138CHL1    C516406   0.693   0.066   3.541  0.0774  0.5122  0.0410
  138CHL1    C616407   0.616   0.104   3.646  0.1570  0.6371 -0.5037
  138CHL1    H616408   0.542   0.185   3.635  1.1076  1.6644  0.3583
  138CHL1    C716409   0.607   0.027   3.776  0.0230 -0.0818  0.4149
  138CHL1   H7A16410   0.608   0.097   3.862 -0.0416 -0.9575  1.1353
  138CHL1   H7B16411   0.508  -0.021   3.789 -1.4563  3.2918  3.1119
  138CHL1    C816412   0.719  -0.082   3.790  0.3925 -0.1905  0.0903
  138CHL1    H816413   0.808  -0.029   3.830 -0.7849 -0.2705  3.1025
  138CHL1   C1416414   0.678  -0.192   3.884  0.2052  0.1878  0.1214
  138CHL1   H1416415   0.593  -0.246   3.837  0.1342 -0.5921  1.1183
  138CHL1   C1516416   0.607  -0.167   4.021 -0.3898 -0.3206  0.1109
  138CHL1  H15A16417   0.658  -0.086   4.078 -0.5825  1.4840 -2.1460
  138CHL1  H15B16418   0.500  -0.134   4.021  0.0542  1.4219 -2.3006
  138CHL1   C1616419   0.625  -0.301   4.093 -0.4055 -0.3096 -0.0232
  138CHL1  H16A16420   0.664  -0.292   4.196 -0.7596 -1.5120  0.2279
  138CHL1  H16B16421   0.532  -0.362   4.098  1.0608 -2.6127  0.9504
  138CHL1   C1716422   0.721  -0.392   4.008 -0.1829 -0.4318 -0.4888
  138CHL1   H1716423   0.651  -0.452   3.945 -2.8775  1.2392  0.7084
  138CHL1   C1316424   0.796  -0.296   3.920  0.1852 -0.7425 -0.1253
  138CHL1   C1816425   0.903  -0.216   3.999 -0.8170  0.2656  0.1990
  138CHL1  H18A16426   0.866  -0.174   4.095  0.3317  1.0018  0.3388
  138CHL1  H18B16427   0.985  -0.289   4.018 -1.0017 -0.2337 -0.8370
  138CHL1  H18C16428   0.952  -0.132   3.945  2.4076 -0.2683  2.0227
  138CHL1   C1216429   0.839  -0.358   3.788 -0.0339 -0.4091  0.0947
  138CHL1  H12A16430   0.933  -0.411   3.814  0.2554 -0.1649 -0.4467
  138CHL1  H12B16431   0.757  -0.427   3.757 -0.5478  0.0220  0.4786
  138CHL1   C1116432   0.874  -0.261   3.681 -0.0252  0.4907 -0.9691
  138CHL1  H11A16433   0.971  -0.218   3.714 -0.8369  1.0791  0.7466
  138CHL1  H11B16434   0.884  -0.317   3.586  2.4577 -1.3006  0.2343
  138CHL1    C916435   0.759  -0.158   3.662 -0.4720  0.8827  0.2486
  138CHL1    H916436   0.670  -0.217   3.632  0.2309  0.2190 -0.6113
  138CHL1   C1016437   0.782  -0.063   3.537  0.9667  0.0918 -0.0655
  138CHL1   C1916438   0.933  -0.013   3.540 -0.2573 -0.0465 -0.0833
  138CHL1  H19A16439   0.954   0.069   3.469  1.5163  0.5635  1.0774
  138CHL1  H19B16440   0.956   0.017   3.644  0.2652  0.7975 -0.4395
  138CHL1  H19C16441   1.006  -0.093   3.513 -1.5339 -0.1226 -3.8959
  138CHL1    C116442   0.765  -0.143   3.406 -0.2073  1.1200  0.0590
  138CHL1   H1A16443   0.840  -0.224   3.390 -2.4863 -1.2171  0.4582
  138CHL1   H1B16444   0.665  -0.189   3.416 -0.4280  1.4662 -0.5548
  138CHL1    C216445   0.766  -0.066   3.277  0.1448 -0.0313  0.2106
  138CHL1   H2A16446   0.746  -0.123   3.184 -0.7824  1.0596 -0.2874
  138CHL1   H2B16447   0.862  -0.013   3.261 -0.1605  0.6475  0.5646
  138CHL1   C2016448   0.806  -0.490   4.091 -0.3764  0.3868  0.4158
  138CHL1   H2016449   0.884  -0.437   4.150 -0.3669  1.6805 -0.7040
  138CHL1   C2116450   0.872  -0.589   3.998 -0.4550 -1.0105  0.1241
  138CHL1  H21A16451   0.790  -0.637   3.941 -1.7553  0.3404  0.7687
  138CHL1  H21B16452   0.919  -0.669   4.058  1.4901 -0.1709 -0.1947
  138CHL1  H21C16453   0.956  -0.547   3.938  0.3099  0.0482  1.8645
  138CHL1   C2216454   0.720  -0.575   4.189  0.3800  0.1410  0.1931
  138CHL1  H22A16455   0.664  -0.502   4.251 -0.9230 -1.0747  0.5053
  138CHL1  H22B16456   0.642  -0.624   4.127 -0.3735  1.5182  0.0202
  138CHL1   C2316457   0.792  -0.682   4.278  0.0549 -0.2264 -0.5536
  138CHL1  H23A16458   0.813  -0.768   4.211  2.0979 -0.6580  0.5721
  138CHL1  H23B16459   0.887  -0.634   4.310  0.7634 -0.2626 -2.4723
  138CHL1   C2416460   0.705  -0.708   4.403  0.1466 -0.1245  0.7155
  138CHL1  H24A16461   0.691  -0.607   4.447 -0.1004 -0.0508  0.4657
  138CHL1  H24B16462   0.601  -0.738   4.376 -0.2446  1.9892 -0.3023
  138CHL1   C2516463   0.772  -0.797   4.510  0.2225 -1.1872  0.2644
  138CHL1   H2516464   0.796  -0.895   4.463  2.5198 -2.6985  4.1187
  138CHL1   C2616465   0.905  -0.735   4.563  0.5242 -0.2161  0.0476
  138CHL1  H26A16466   0.882  -0.644   4.622  0.7650 -0.1470  0.0365
  138CHL1  H26B16467   0.948  -0.810   4.634  1.0631 -1.0822 -1.1569
  138CHL1  H26C16468   0.983  -0.708   4.489 -0.5408  2.3812 -0.2117
  138CHL1   C2716469   0.674  -0.835   4.623 -0.5640 -0.3372 -0.4157
  138CHL1  H27A16470   0.638  -0.740   4.669  1.1590  0.2430 -0.1959
  138CHL1  H27B16471   0.589  -0.895   4.583  0.7916 -3.7838  1.4405
  138CHL1  H27C16472   0.729  -0.886   4.705 -0.1349  1.5440  0.5185
  139CHL1    C316473   7.280   5.892   3.328  0.8105  0.1705 -0.0084
  139CHL1    H316474   7.369   5.956   3.314 -1.1443  3.2622  0.7175
  139CHL1    O316475   7.181   5.892   3.223  0.5513  0.0746  0.6651
  139CHL1   H3'16476   7.227   5.911   3.141  2.6860 -0.7504  1.5863
  139CHL1    C416477   7.328   5.746   3.332  0.6971  1.2004  0.0778
  139CHL1   H4A16478   7.235   5.689   3.314  0.4636  1.7648 -0.5421
  139CHL1   H4B16479   7.382   5.732   3.237 -1.4257 -0.9075 -0.9290
  139CHL1    C516480   7.413   5.714   3.457 -0.4022 -0.1729 -0.9794
  139CHL1    C616481   7.537   5.670   3.447 -0.3554  0.0947  0.6550
  139CHL1    H616482   7.573   5.643   3.347 -0.1839 -1.9299  1.2224
  139CHL1    C716483   7.620   5.638   3.569  0.7432 -0.0066  0.4284
  139CHL1   H7A16484   7.692   5.556   3.550  1.0598  0.0162  1.4447
  139CHL1   H7B16485   7.686   5.726   3.577 -0.3052  0.8769 -0.3176
  139CHL1    C816486   7.535   5.613   3.696  0.2878 -0.4642  0.4561
  139CHL1    H816487   7.487   5.514   3.687  1.4890 -1.0718  0.5269
  139CHL1   C1416488   7.635   5.611   3.808  0.5125 -0.7945  1.1234
  139CHL1   H1416489   7.685   5.710   3.803 -1.0953 -0.0047 -0.8132
  139CHL1   C1516490   7.749   5.505   3.808 -0.0612 -0.6033 -0.1189
  139CHL1  H15A16491   7.713   5.413   3.758  0.4154 -0.2592 -1.1165
  139CHL1  H15B16492   7.825   5.548   3.740 -2.4219  1.2240 -1.7589
  139CHL1   C1616493   7.777   5.486   3.960 -0.2029 -0.0833  0.5932
  139CHL1  H16A16494   7.743   5.382   3.976  1.5268 -0.8616 -0.4919
  139CHL1  H16B16495   7.883   5.485   3.993  0.2025 -1.8939 -0.6132
  139CHL1   C1716496   7.697   5.598   4.035  0.6012  0.7334 -0.0627
  139CHL1   H1716497   7.738   5.700   4.022  0.8143  0.7093  0.3983
  139CHL1   C1316498   7.567   5.608   3.946  0.1262  0.0296 -0.6740
  139CHL1   C1816499   7.474   5.484   3.958  0.0539  0.1018 -0.2268
  139CHL1  H18A16500   7.532   5.399   3.918 -0.1849 -0.1772  0.0199
  139CHL1  H18B16501   7.437   5.466   4.061 -1.6365  0.5832 -0.7044
  139CHL1  H18C16502   7.385   5.494   3.892 -0.7575  3.1624  1.1313
  139CHL1   C1216503   7.486   5.739   3.964 -0.3498 -0.0858  0.0612
  139CHL1  H12A16504   7.429   5.745   4.059  0.1277 -0.8399  0.4076
  139CHL1  H12B16505   7.563   5.819   3.957 -1.5066  0.9686 -1.3069
  139CHL1   C1116506   7.384   5.758   3.847 -0.2327  0.0660 -0.2480
  139CHL1  H11A16507   7.301   5.685   3.862  0.0752 -0.4142 -0.8285
  139CHL1  H11B16508   7.325   5.852   3.854  0.7016  0.7152 -0.9216
  139CHL1    C916509   7.438   5.734   3.705  0.3452  0.4202  0.0018
  139CHL1    H916510   7.509   5.818   3.688  0.3096  0.4844  0.1636
  139CHL1   C1016511   7.341   5.753   3.588  0.0376  0.2442  0.0095
  139CHL1   C1916512   7.223   5.652   3.613 -0.7120 -0.8295  1.5462
  139CHL1  H19A16513   7.144   5.660   3.535 -0.2051  0.0236  1.0967
  139CHL1  H19B16514   7.258   5.547   3.623 -1.3737 -1.2012  0.2541
  139CHL1  H19C16515   7.170   5.693   3.701 -1.4691  1.3147  0.1727
  139CHL1    C116516   7.301   5.904   3.572 -0.0289  0.6799 -0.2658
  139CHL1   H1A16517   7.250   5.928   3.668  0.1630  1.0803 -0.2615
  139CHL1   H1B16518   7.394   5.965   3.561 -0.5831  1.9744  1.6336
  139CHL1    C216519   7.211   5.932   3.454  0.7753 -1.3039  0.1486
  139CHL1   H2A16520   7.187   6.039   3.442 -0.7848 -1.6036  0.4055
  139CHL1   H2B16521   7.111   5.884   3.461  0.4571 -1.0003 -1.6322
  139CHL1   C2016522   7.682   5.562   4.184 -0.1986  0.4341 -0.0004
  139CHL1   H2016523   7.654   5.454   4.186 -1.1850  0.6449 -1.2518
  139CHL1   C2116524   7.573   5.641   4.255  0.0627  0.1614 -0.3441
  139CHL1  H21A16525   7.602   5.748   4.245  3.7574 -0.7686 -1.0632
  139CHL1  H21B16526   7.579   5.601   4.359  0.9688 -1.6965 -1.0699
  139CHL1  H21C16527   7.477   5.596   4.222 -0.4036 -0.6539  1.9125
  139CHL1   C2216528   7.807   5.583   4.270  0.1731 -0.0005 -0.3055
  139CHL1  H22A16529   7.898   5.565   4.209  2.0868 -2.3220  2.9474
  139CHL1  H22B16530   7.825   5.687   4.303  2.7356 -0.2464 -0.7370
  139CHL1   C2316531   7.833   5.484   4.387  0.4973  0.1821  0.2111
  139CHL1  H23A16532   7.742   5.482   4.451  1.3988  1.3690  1.5943
  139CHL1  H23B16533   7.834   5.380   4.348  2.8038  0.1373  0.2400
  139CHL1   C2416534   7.956   5.504   4.476  0.5421  0.9908 -0.4071
  139CHL1  H24A16535   8.046   5.514   4.412  0.5497 -3.7300 -1.4813
  139CHL1  H24B16536   7.930   5.595   4.535  0.6220  1.0831 -0.5119
  139CHL1   C2516537   7.966   5.385   4.574  0.5567  0.9046 -0.7620
  139CHL1   H2516538   7.866   5.359   4.614  0.1065  1.6053 -1.4033
  139CHL1   C2616539   8.034   5.261   4.515 -0.2534  0.3788 -0.6336
  139CHL1  H26A16540   8.016   5.176   4.584 -2.2860  1.9824  0.9130
  139CHL1  H26B16541   7.991   5.242   4.414 -1.6678  0.5815 -0.0881
  139CHL1  H26C16542   8.144   5.268   4.500  0.1215 -0.2302  1.5137
  139CHL1   C2716543   8.052   5.430   4.699 -0.2487 -0.5430 -0.0980
  139CHL1  H27A16544   7.999   5.488   4.778 -1.2229  0.9336 -1.7786
  139CHL1  H27B16545   8.099   5.336   4.734 -0.0599  0.4913  2.7524
  139CHL1  H27C16546   8.138   5.495   4.673 -0.6176 -0.1069 -0.2415
  140CHL1    C316547   7.262   0.560   3.612 -0.1332 -0.0817 -0.6809
  140CHL1    H316548   7.355   0.620   3.614 -0.0619 -0.2098 -0.0224
  140CHL1    O316549   7.183   0.609   3.503  1.0960  0.8473  1.0565
  140CHL1   H3'16550   7.154   0.696   3.530 -2.6997 -0.3039  1.3414
  140CHL1    C416551   7.283   0.409   3.593 -0.0118 -0.0196 -0.6537
  140CHL1   H4A16552   7.183   0.361   3.593  0.7373 -1.7312  1.1255
  140CHL1   H4B16553   7.332   0.397   3.494  1.0333 -0.8517 -0.0680
  140CHL1    C516554   7.365   0.352   3.711 -0.0261 -0.1388  0.3280
  140CHL1    C616555   7.490   0.305   3.680  0.3568  0.6749 -0.3805
  140CHL1    H616556   7.521   0.295   3.575  0.3523  0.6162 -0.3765
  140CHL1    C716557   7.564   0.227   3.790 -0.1192 -0.0794  0.1102
  140CHL1   H7A16558   7.615   0.139   3.746  2.5283  1.2046  0.4617
  140CHL1   H7B16559   7.643   0.302   3.810  0.1866  0.2100 -1.9835
  140CHL1    C816560   7.493   0.204   3.924  0.0410 -0.0851 -0.2503
  140CHL1    H816561   7.426   0.118   3.909 -1.1519  0.9653 -1.1722
  140CHL1   C1416562   7.600   0.168   4.030 -1.2716  0.3528  0.0804
  140CHL1   H1416563   7.669   0.256   4.025 -0.8962 -0.0075 -2.7876
  140CHL1   C1516564   7.689   0.048   4.007  0.0185  0.6445 -0.1502
  140CHL1  H15A16565   7.630  -0.043   3.979  0.2885  0.1479  0.8582
  140CHL1  H15B16566   7.762   0.074   3.927  0.4969  0.8137  0.3415
  140CHL1   C1616567   7.752   0.026   4.136 -0.5462 -0.4016  0.2990
  140CHL1  H16A16568   7.737  -0.079   4.169  0.5416 -1.1561 -1.4809
  140CHL1  H16B16569   7.862   0.038   4.130 -0.6228  1.4278  1.5098
  140CHL1   C1716570   7.684   0.129   4.239 -0.0973 -0.1480 -0.1608
  140CHL1   H1716571   7.749   0.219   4.235 -0.1407 -0.1320 -0.5033
  140CHL1   C1316572   7.554   0.166   4.171  0.6831 -0.3609 -0.4107
  140CHL1   C1816573   7.455   0.044   4.183  0.2847  0.9555 -0.5722
  140CHL1  H18A16574   7.505  -0.047   4.143  0.7081  1.5626 -1.4646
  140CHL1  H18B16575   7.407   0.019   4.280 -0.0646  0.1430 -0.9489
  140CHL1  H18C16576   7.380   0.070   4.106  0.6645  1.5306 -0.7535
  140CHL1   C1216577   7.504   0.302   4.207 -0.1346  0.0117  0.1209
  140CHL1  H12A16578   7.461   0.311   4.309 -1.2471 -1.5807 -0.1766
  140CHL1  H12B16579   7.583   0.377   4.185 -0.3471  0.0838 -0.3880
  140CHL1   C1116580   7.379   0.330   4.117  0.2799 -0.4523  0.1972
  140CHL1  H11A16581   7.302   0.252   4.133 -0.4693 -0.2771 -2.1291
  140CHL1  H11B16582   7.338   0.432   4.134  1.5107  0.0244  0.4371
  140CHL1    C916583   7.413   0.329   3.962 -0.4384  0.3795  0.4919
  140CHL1    H916584   7.495   0.403   3.955  0.7974 -0.8955  1.0819
  140CHL1   C1016585   7.310   0.375   3.851  0.6057  0.6211  0.7156
  140CHL1   C1916586   7.183   0.292   3.882 -0.6119  0.0842  0.1661
  140CHL1  H19A16587   7.129   0.339   3.966 -0.6054 -1.0037  0.7991
  140CHL1  H19B16588   7.112   0.307   3.799  1.2565 -1.6086 -1.8774
  140CHL1  H19C16589   7.206   0.185   3.901  1.3722  0.2794 -0.8621
  140CHL1    C116590   7.281   0.530   3.858 -0.2529  0.2207  0.1564
  140CHL1   H1A16591   7.215   0.538   3.947 -0.0052 -0.7602  0.4401
  140CHL1   H1B16592   7.375   0.587   3.872 -0.0820  0.3344 -1.3048
  140CHL1    C216593   7.184   0.577   3.748 -1.0704  0.2556  0.3070
  140CHL1   H2A16594   7.153   0.682   3.766  3.5786  1.6945  1.3991
  140CHL1   H2B16595   7.093   0.516   3.729 -1.0283  1.1478 -3.4829
  140CHL1   C2016596   7.672   0.084   4.386  0.5263 -0.6480  0.0313
  140CHL1   H2016597   7.565   0.098   4.410  0.0868 -0.8540 -1.6693
  140CHL1   C2116598   7.750   0.196   4.468  0.0850  0.1632 -0.1035
  140CHL1  H21A16599   7.859   0.179   4.473  0.0418 -0.4037 -1.0340
  140CHL1  H21B16600   7.703   0.205   4.568 -0.1494 -0.6869 -0.1288
  140CHL1  H21C16601   7.731   0.297   4.424  0.0077  1.2897  2.3198
  140CHL1   C2216602   7.715  -0.067   4.418  0.0410  0.0096  0.7557
  140CHL1  H22A16603   7.650  -0.139   4.365 -1.1058  2.7877 -1.9738
  140CHL1  H22B16604   7.823  -0.065   4.392 -0.1463 -0.6581 -0.0993
  140CHL1   C2316605   7.702  -0.109   4.565 -0.7635  0.0208  0.1294
  140CHL1  H23A16606   7.737  -0.215   4.568 -0.5667  0.0682 -0.3324
  140CHL1  H23B16607   7.777  -0.055   4.626  0.4551  0.8195 -1.9693
  140CHL1   C2416608   7.559  -0.104   4.611  0.0996  0.4125  0.1343
  140CHL1  H24A16609   7.527  -0.000   4.632 -1.7055  0.2806 -1.6850
  140CHL1  H24B16610   7.494  -0.154   4.537 -1.4017 -1.1156  2.3442
  140CHL1   C2516611   7.532  -0.186   4.744 -0.1395  0.1850 -0.1588
  140CHL1   H2516612   7.581  -0.285   4.741  1.2742  0.7794  1.6212
  140CHL1   C2616613   7.385  -0.213   4.757 -0.2531 -0.1301  0.2920
  140CHL1  H26A16614   7.329  -0.117   4.766  0.2576  0.0682  1.6171
  140CHL1  H26B16615   7.345  -0.264   4.667 -0.0056  2.9847 -1.7326
  140CHL1  H26C16616   7.371  -0.276   4.847  0.0687 -2.4444 -1.2095
  140CHL1   C2716617   7.576  -0.114   4.873 -0.1868  0.1549  0.3116
  140CHL1  H27A16618   7.687  -0.124   4.877 -0.0308  1.8580  1.1073
  140CHL1  H27B16619   7.553  -0.006   4.865 -0.9929  0.2712  3.1845
  140CHL1  H27C16620   7.535  -0.160   4.966 -3.0095  0.9714 -0.4347
  141DOPC     N16621   3.974   1.714   7.608  0.0783 -0.0894  0.0646
  141DOPC   C1216622   3.890   1.694   7.478  0.6000 -0.3886  0.1172
  141DOPC  H12A16623   3.794   1.737   7.498 -0.1581 -1.4033 -1.1653
  141DOPC  H12B16624   3.884   1.588   7.456 -0.2886 -0.2105 -0.5436
  141DOPC   C1316625   3.939   1.842   7.676 -0.1129  0.7956 -0.3798
  141DOPC  H13A16626   3.942   1.930   7.614  0.9821  1.6815  0.8689
  141DOPC  H13B16627   3.837   1.850   7.711  0.2287  0.6537  0.6905
  141DOPC  H13C16628   4.006   1.861   7.759 -1.2514  0.7505  0.5714
  141DOPC   C1416629   4.121   1.718   7.583 -0.3088 -0.2009 -0.1150
  141DOPC  H14A16630   4.130   1.776   7.492 -1.4580 -1.0741 -0.8239
  141DOPC  H14B16631   4.173   1.762   7.666  1.8296 -3.2613  0.3312
  141DOPC  H14C16632   4.155   1.616   7.571  1.2475  0.2841  0.0308
  141DOPC   C1516633   3.934   1.613   7.708 -0.2893 -1.2062  0.1191
  141DOPC  H15A16634   3.963   1.513   7.679  1.3562 -0.9070  0.6273
  141DOPC  H15B16635   3.829   1.606   7.735 -0.4845  1.7019  0.4023
  141DOPC  H15C16636   3.991   1.641   7.795 -2.4204  1.5828  0.7680
  141DOPC   C1116637   3.940   1.765   7.346  0.4681 -0.4699 -0.0203
  141DOPC  H11A16638   4.045   1.735   7.325  1.6020  3.0489  0.0767
  141DOPC  H11B16639   3.879   1.735   7.257 -0.1795  2.6877 -0.7766
  141DOPC     P16640   4.052   1.989   7.288  0.1132 -0.1465 -0.1925
  141DOPC   O1316641   4.165   1.983   7.384 -0.0997  0.1129  0.2507
  141DOPC   O1416642   4.005   2.126   7.251  0.4978 -0.8269  0.6951
  141DOPC   O1216643   3.936   1.904   7.354  0.3863 -0.8840  0.4557
  141DOPC   O1116644   4.098   1.914   7.160  0.0432 -0.0883 -0.5313
  141DOPC    C116645   4.001   1.880   7.053 -0.4842 -0.5665  0.0501
  141DOPC    HA16646   3.893   1.894   7.075 -0.5428 -0.6402 -0.1913
  141DOPC    HB16647   4.029   1.779   7.015  1.7729  0.4100 -1.1190
  141DOPC    C216648   4.041   1.964   6.931 -0.1210 -0.6053 -0.2802
  141DOPC    HS16649   4.150   1.945   6.916  1.4546  2.4192  4.6527
  141DOPC   O2116650   4.024   2.112   6.959 -0.0871  0.0373  0.0572
  141DOPC   C2116651   4.121   2.190   6.934  0.1109  0.8847 -0.1397
  141DOPC   O2216652   4.226   2.166   6.873 -0.2527 -0.3000  0.2382
  141DOPC   C2216653   4.092   2.323   6.995 -0.0380  0.5107 -0.5858
  141DOPC   H2R16654   4.049   2.294   7.093 -2.1932 -3.4430 -2.4570
  141DOPC   H2S16655   4.011   2.382   6.947 -1.0375  1.8409  2.4811
  141DOPC    C316656   3.946   1.926   6.820  0.0658  0.1532  0.8706
  141DOPC    HX16657   3.839   1.943   6.847 -0.7606 -1.5917 -1.0091
  141DOPC    HY16658   3.943   1.819   6.792 -0.5956 -0.0045  1.4953
  141DOPC   O3116659   3.977   1.998   6.702 -0.8669 -0.8420 -0.0775
  141DOPC   C3116660   4.083   1.953   6.633 -0.3266 -0.2544  1.1558
  141DOPC   O3216661   4.145   1.852   6.653  0.6396 -0.4810  0.1833
  141DOPC   C3216662   4.118   2.048   6.514  0.2509 -0.3707 -0.0750
  141DOPC   H2X16663   4.031   2.115   6.500 -0.3649 -1.4771 -2.0403
  141DOPC   H2Y16664   4.201   2.113   6.547 -1.4778  1.2078  1.3302
  141DOPC   C2316665   4.215   2.411   7.009  0.3762  0.0701 -0.3369
  141DOPC   H3R16666   4.250   2.437   6.907  1.2363  0.6571  0.0974
  141DOPC   H3S16667   4.299   2.374   7.072  1.5154  1.5599 -0.9060
  141DOPC   C2416668   4.173   2.543   7.084 -0.5348  0.8880 -0.0745
  141DOPC   H4R16669   4.128   2.510   7.180  0.7492  0.4282  0.3774
  141DOPC   H4S16670   4.096   2.604   7.031  0.2813  1.0634 -1.0980
  141DOPC   C2516671   4.289   2.638   7.112 -0.3092  0.4525 -0.1072
  141DOPC   H5R16672   4.371   2.593   7.171  0.6593 -0.5640 -2.1231
  141DOPC   H5S16673   4.243   2.709   7.184  0.4518 -0.3197  1.1741
  141DOPC   C2616674   4.354   2.704   6.992 -0.3931  0.8614 -0.0285
  141DOPC   H6R16675   4.277   2.696   6.912 -1.6508 -1.5889  1.2940
  141DOPC   H6S16676   4.449   2.648   6.977 -1.7192 -1.3035 -0.8799
  141DOPC   C2716677   4.389   2.853   7.017  0.3237  0.0311  0.4683
  141DOPC   H7R16678   4.445   2.849   7.112  0.5859 -2.9715  0.2560
  141DOPC   H7S16679   4.293   2.909   7.030  1.0761  1.9695 -1.5349
  141DOPC   C2816680   4.469   2.925   6.906 -0.5616 -0.2577  0.5396
  141DOPC   H8R16681   4.405   2.941   6.817  1.2558  0.9247 -0.6134
  141DOPC   H8S16682   4.560   2.870   6.872  0.7512  0.3451  2.8402
  141DOPC   C2916683   4.514   3.062   6.960 -0.7078  0.2095 -0.3950
  141DOPC   H9R16684   4.528   3.071   7.069 -1.0065  0.2576 -0.3619
  141DOPC  C21016685   4.508   3.177   6.898 -0.4428  0.2417  0.2567
  141DOPC  H10R16686   4.544   3.271   6.943  0.7313 -0.2261  0.3309
  141DOPC  C21116687   4.457   3.196   6.758 -0.1738 -0.3968 -0.1717
  141DOPC  H11R16688   4.459   3.306   6.742 -0.4208  0.3452  3.7436
  141DOPC  H11S16689   4.354   3.156   6.747 -0.3587 -0.0197  0.1569
  141DOPC  C21216690   4.534   3.133   6.639  0.7289 -0.2362 -0.2418
  141DOPC  H12R16691   4.477   3.136   6.544  0.1193 -2.6103 -0.0081
  141DOPC  H12S16692   4.551   3.025   6.654  0.2335 -0.3042 -0.1593
  141DOPC  C21316693   4.684   3.176   6.625  0.0523  0.2284  0.9876
  141DOPC  H13R16694   4.739   3.145   6.716  0.8624 -0.9319  0.1464
  141DOPC  H13S16695   4.689   3.286   6.615 -1.2634  0.3579  1.5986
  141DOPC  C21416696   4.753   3.118   6.493 -0.3837  0.0568 -0.0107
  141DOPC  H14R16697   4.745   3.007   6.490  1.9327 -0.2289  1.7460
  141DOPC  H14S16698   4.861   3.141   6.501 -0.2339 -0.6038 -0.1128
  141DOPC  C21516699   4.720   3.184   6.360 -0.0455 -0.8329  0.0998
  141DOPC  H15R16700   4.765   3.286   6.352  1.2376 -1.5377 -3.2978
  141DOPC  H15S16701   4.610   3.192   6.366 -0.1007 -1.7992  0.4936
  141DOPC  C21616702   4.758   3.107   6.228 -0.1909  0.0310 -0.7919
  141DOPC  H16R16703   4.866   3.106   6.205 -0.3287  0.6184 -1.5180
  141DOPC  H16S16704   4.714   3.157   6.139 -0.0692  3.1174  0.7528
  141DOPC  C21716705   4.726   2.951   6.230 -0.2607 -0.1909  0.0040
  141DOPC  H17R16706   4.617   2.934   6.239 -0.2944 -0.4169 -0.7679
  141DOPC  H17S16707   4.784   2.903   6.311  1.0811  1.4789  0.1131
  141DOPC  C21816708   4.772   2.877   6.103  0.2206  0.6209  0.5681
  141DOPC  H18R16709   4.719   2.919   6.014 -1.3341 -0.5349  0.8966
  141DOPC  H18S16710   4.754   2.768   6.107  2.3456  0.2075 -0.1081
  141DOPC  H18T16711   4.875   2.914   6.084  0.2512  0.3507  0.1880
  141DOPC   C3316712   4.138   1.973   6.380  0.5290 -0.2809 -1.0896
  141DOPC   H3X16713   4.061   1.893   6.379 -1.4177  1.4319  0.7379
  141DOPC   H3Y16714   4.236   1.922   6.393 -0.9277 -3.3292 -1.3347
  141DOPC   C3416715   4.131   2.048   6.244  0.3037 -0.3148  0.2099
  141DOPC   H4X16716   4.183   2.146   6.246  1.2775 -0.7686 -1.1772
  141DOPC   H4Y16717   4.025   2.079   6.232  0.2604 -0.3503  0.5144
  141DOPC   C3516718   4.188   1.967   6.127 -0.3551  0.1541 -0.0311
  141DOPC   H5X16719   4.151   1.862   6.130 -3.5071  1.1415 -0.5193
  141DOPC   H5Y16720   4.297   1.958   6.148 -0.3854  0.0470  0.0785
  141DOPC   C3616721   4.179   2.033   5.986 -0.4388  0.4227 -0.6840
  141DOPC   H6X16722   4.071   2.059   5.981 -0.3745  0.7575 -0.3991
  141DOPC   H6Y16723   4.239   2.126   5.977 -0.0123  0.0329 -1.9831
  141DOPC   C3716724   4.214   1.936   5.875 -0.2516 -0.0076 -0.0014
  141DOPC   H7X16725   4.316   1.970   5.848  1.1029 -1.9359  2.2336
  141DOPC   H7Y16726   4.215   1.825   5.889 -0.6589 -0.0224 -0.0840
  141DOPC   C3816727   4.119   1.962   5.753  0.4170  0.3183 -0.6054
  141DOPC   H8X16728   4.017   1.934   5.790  0.7469  2.1355  2.0050
  141DOPC   H8Y16729   4.144   1.885   5.677  0.8532  1.0970 -1.2537
  141DOPC   C3916730   4.130   2.108   5.710  0.3951 -0.2384 -0.5879
  141DOPC   H9X16731   4.148   2.187   5.784 -1.0955  1.1098 -1.6171
  141DOPC  C31016732   4.120   2.159   5.588  0.5314  0.2651 -0.2779
  141DOPC  H10X16733   4.164   2.257   5.565  0.7017  0.0076 -1.0881
  141DOPC  C31116734   4.101   2.069   5.469  0.6999  0.3593  0.1162
  141DOPC  H11X16735   3.995   2.073   5.434  0.4236  4.1587  0.8926
  141DOPC  H11Y16736   4.139   1.966   5.479  1.8026  0.8033  0.6449
  141DOPC  C31216737   4.181   2.126   5.346 -0.3015  0.4226  0.2886
  141DOPC  H12X16738   4.282   2.155   5.381  0.3688 -1.0827 -0.3489
  141DOPC  H12Y16739   4.131   2.216   5.303 -1.3730 -1.3577 -2.4799
  141DOPC  C31316740   4.191   2.031   5.224 -0.3093  0.1648  0.2859
  141DOPC  H13X16741   4.243   1.936   5.250 -2.1414 -1.2486 -0.9405
  141DOPC  H13Y16742   4.089   1.989   5.211  1.4345 -4.5615 -0.2812
  141DOPC  C31416743   4.250   2.084   5.090  0.1265  0.7014  0.3172
  141DOPC  H14X16744   4.179   2.161   5.055  0.6831  2.1947  2.2835
  141DOPC  H14Y16745   4.350   2.127   5.114  0.2701  1.0422 -0.8353
  141DOPC  C31516746   4.257   1.970   4.987  0.0288 -0.4073 -0.5485
  141DOPC  H15X16747   4.159   1.934   4.950  0.1627 -0.2595 -1.0631
  141DOPC  H15Y16748   4.315   1.883   5.024 -1.2628 -1.7227 -1.5200
  141DOPC  C31616749   4.337   2.012   4.860  0.5253 -0.0603  0.2220
  141DOPC  H16X16750   4.307   2.115   4.832 -1.5322 -0.4780  0.7560
  141DOPC  H16Y16751   4.443   2.013   4.893  0.0809 -0.1509  1.7264
  141DOPC  C31716752   4.308   1.915   4.739 -0.2363 -0.4122 -0.5846
  141DOPC  H17X16753   4.198   1.903   4.730 -0.1020 -2.5618  0.1719
  141DOPC  H17Y16754   4.356   1.975   4.659  3.5091 -1.2116  0.8749
  141DOPC  C31816755   4.384   1.789   4.738 -0.0686  0.2257 -0.2807
  141DOPC  H18X16756   4.495   1.798   4.748 -0.2265  3.5095 -0.0982
  141DOPC  H18Y16757   4.338   1.718   4.810 -1.4635  0.6462 -0.7344
  141DOPC  H18Z16758   4.371   1.758   4.633 -1.5860  1.0414 -0.3517
  142DOPC     N16759   6.276   4.010   7.334 -0.0984 -0.2944 -0.1203
  142DOPC   C1216760   6.200   4.115   7.411  0.9964 -0.4103 -0.0079
  142DOPC  H12A16761   6.268   4.197   7.429  0.2332  0.3894 -0.6686
  142DOPC  H12B16762   6.172   4.078   7.508 -0.8519 -2.4871 -1.2416
  142DOPC   C1316763   6.197   3.889   7.313  0.3755 -0.3708  0.7307
  142DOPC  H13A16764   6.252   3.806   7.271 -0.2642 -0.2508 -0.3875
  142DOPC  H13B16765   6.140   3.857   7.399 -0.6849  0.0750  0.2116
  142DOPC  H13C16766   6.117   3.909   7.244  2.0340 -1.4880 -1.6349
  142DOPC   C1416767   6.397   3.966   7.419  0.1157 -0.1392  0.1173
  142DOPC  H14A16768   6.454   4.055   7.442  0.8391 -0.1036 -1.6887
  142DOPC  H14B16769   6.362   3.924   7.512 -0.9989  1.6493  0.5563
  142DOPC  H14C16770   6.463   3.907   7.357  2.0027  0.6337  1.3082
  142DOPC   C1516771   6.329   4.063   7.208 -0.3548 -0.0314  0.1868
  142DOPC  H15A16772   6.249   4.106   7.150  0.3377 -0.2066 -0.9213
  142DOPC  H15B16773   6.378   3.995   7.139 -0.8531 -1.5276  1.2383
  142DOPC  H15C16774   6.398   4.142   7.233  0.5941 -0.7114 -0.1933
  142DOPC   C1116775   6.075   4.170   7.337  0.3152  0.2334  0.0587
  142DOPC  H11A16776   6.012   4.085   7.301 -0.7960  2.1990 -3.0794
  142DOPC  H11B16777   6.005   4.232   7.397  0.1786 -0.9854  1.2081
  142DOPC     P16778   6.180   4.374   7.210  0.0022  0.2763  0.3944
  142DOPC   O1316779   6.276   4.352   7.098  0.1294  0.0514  0.3446
  142DOPC   O1416780   6.243   4.400   7.343  0.4540 -0.5948 -0.5537
  142DOPC   O1216781   6.105   4.235   7.218 -0.7158  0.3581  0.1786
  142DOPC   O1116782   6.066   4.492   7.183 -0.1921  0.2103 -0.0205
  142DOPC    C116783   6.004   4.490   7.057  0.6594  0.0118 -1.1159
  142DOPC    HA16784   6.076   4.501   6.973  1.1782  0.7556 -0.5752
  142DOPC    HB16785   5.946   4.585   7.057 -0.9576 -0.9036  0.9239
  142DOPC    C216786   5.893   4.378   7.030  0.5865  0.4353 -0.2299
  142DOPC    HS16787   5.946   4.280   7.028 -0.1394  0.0132  0.5575
  142DOPC   O2116788   5.825   4.404   6.907  0.7495  0.2516 -0.4332
  142DOPC   C2116789   5.910   4.376   6.807 -0.5443 -0.0761  0.2202
  142DOPC   O2216790   6.009   4.299   6.821 -0.2659 -0.3250  0.3217
  142DOPC   C2216791   5.869   4.447   6.683 -0.2992  0.3498 -0.0917
  142DOPC   H2R16792   5.955   4.476   6.619 -0.5995 -0.6050 -0.9494
  142DOPC   H2S16793   5.828   4.545   6.716  0.0720  0.3553  0.3599
  142DOPC    C316794   5.799   4.372   7.151  0.3228 -0.1232  0.0879
  142DOPC    HX16795   5.763   4.475   7.171 -0.0296 -0.4424  1.1629
  142DOPC    HY16796   5.857   4.331   7.236 -2.0640 -1.9010  0.9863
  142DOPC   O3116797   5.687   4.273   7.138 -0.0941 -0.0588 -0.4488
  142DOPC   C3116798   5.564   4.321   7.106 -0.1198  0.9552 -0.3715
  142DOPC   O3216799   5.530   4.435   7.107 -0.5017 -0.7809  0.2134
  142DOPC   C3216800   5.469   4.198   7.077  0.3830 -0.2259  0.0181
  142DOPC   H2X16801   5.526   4.120   7.023  0.0627 -0.7482  0.4341
  142DOPC   H2Y16802   5.446   4.151   7.175 -2.7293  0.6584 -0.1841
  142DOPC   C2316803   5.769   4.356   6.601 -0.1505  0.0147  0.4320
  142DOPC   H3R16804   5.821   4.267   6.560  0.4803  0.1629  0.8954
  142DOPC   H3S16805   5.745   4.428   6.520 -0.4614  0.1030  0.6010
  142DOPC   C2416806   5.634   4.320   6.668  0.2970  0.8618 -0.2836
  142DOPC   H4R16807   5.568   4.409   6.659 -1.8485 -0.4384  1.7125
  142DOPC   H4S16808   5.641   4.299   6.776 -2.9804  1.1587  0.0926
  142DOPC   C2516809   5.569   4.204   6.601 -0.5078  0.4295 -0.5122
  142DOPC   H5R16810   5.559   4.221   6.491  2.9582  1.8761 -0.7450
  142DOPC   H5S16811   5.472   4.188   6.653 -0.2834 -1.1276 -0.5148
  142DOPC   C2616812   5.659   4.079   6.621 -0.2730  0.5949  0.3178
  142DOPC   H6R16813   5.690   4.069   6.727  0.2122  1.0598  0.2224
  142DOPC   H6S16814   5.748   4.082   6.555 -0.6230 -1.0013 -0.2905
  142DOPC   C2716815   5.598   3.934   6.581  0.2913 -0.0090  0.5726
  142DOPC   H7R16816   5.538   3.950   6.488  1.0047 -1.9522 -0.2834
  142DOPC   H7S16817   5.527   3.892   6.656  1.3018 -1.6746  0.6519
  142DOPC   C2816818   5.706   3.826   6.552 -0.5745  0.0850  0.5617
  142DOPC   H8R16819   5.757   3.810   6.649 -0.2043  0.1624  0.3804
  142DOPC   H8S16820   5.773   3.880   6.483  0.0467 -1.4538 -0.0924
  142DOPC   C2916821   5.651   3.694   6.511 -0.1893 -0.0834  0.2156
  142DOPC   H9R16822   5.605   3.634   6.590 -2.1639 -0.1345 -0.9242
  142DOPC  C21016823   5.647   3.644   6.382 -0.5497 -0.1574 -0.2676
  142DOPC  H10R16824   5.585   3.557   6.356 -2.0663  1.0488 -0.8097
  142DOPC  C21116825   5.702   3.717   6.267 -0.4476  0.9803  0.4021
  142DOPC  H11R16826   5.739   3.634   6.202 -3.5500 -1.6416  1.7017
  142DOPC  H11S16827   5.793   3.773   6.296  1.1198 -1.8889  1.5107
  142DOPC  C21216828   5.601   3.801   6.182  0.3040  0.0213 -0.5546
  142DOPC  H12R16829   5.657   3.868   6.113  0.3926  2.2153  1.5103
  142DOPC  H12S16830   5.543   3.869   6.248 -1.6226  0.4284 -2.5547
  142DOPC  C21316831   5.504   3.715   6.098  0.2166 -0.3688  0.1881
  142DOPC  H13R16832   5.436   3.658   6.165 -2.0049 -0.1822 -1.7734
  142DOPC  H13S16833   5.561   3.645   6.034  0.6781  0.0195  0.1660
  142DOPC  C21416834   5.405   3.794   6.012  0.5103 -0.1320 -0.3664
  142DOPC  H14R16835   5.368   3.879   6.074  3.3702 -0.1947  1.6218
  142DOPC  H14S16836   5.324   3.720   5.994 -0.5217  0.4791  1.4450
  142DOPC  C21516837   5.461   3.847   5.881 -0.0903  0.4832 -0.2054
  142DOPC  H15R16838   5.498   3.756   5.829 -2.5066 -0.4770 -0.3812
  142DOPC  H15S16839   5.548   3.910   5.911  0.2422 -0.5060  0.9776
  142DOPC  C21616840   5.364   3.933   5.789 -0.1006  0.4972 -0.6148
  142DOPC  H16R16841   5.419   3.962   5.697  0.6569  0.7851 -0.0790
  142DOPC  H16S16842   5.348   4.025   5.849  1.5970  1.3677 -1.4249
  142DOPC  C21716843   5.234   3.872   5.754  0.2933  0.5880  0.3535
  142DOPC  H17R16844   5.173   3.855   5.844  1.1473  0.0816  0.8495
  142DOPC  H17S16845   5.263   3.772   5.715 -1.0698 -0.2705  1.4521
  142DOPC  C21816846   5.158   3.952   5.643 -0.0083 -0.5787 -0.2700
  142DOPC  H18R16847   5.210   3.961   5.546  0.6605  1.9103  0.2318
  142DOPC  H18S16848   5.130   4.053   5.681  0.4958 -0.7663  0.6219
  142DOPC  H18T16849   5.060   3.909   5.614  0.9374 -3.6311  0.7310
  142DOPC   C3316850   5.339   4.238   6.995 -0.0021 -0.2329  0.0478
  142DOPC   H3X16851   5.379   4.286   6.903  0.0353  0.1401  0.2553
  142DOPC   H3Y16852   5.285   4.320   7.046 -0.2696  0.0340 -0.6526
  142DOPC   C3416853   5.244   4.125   6.967  0.4168  0.4821  0.0207
  142DOPC   H4X16854   5.148   4.154   6.920 -0.4881 -2.2332  0.0363
  142DOPC   H4Y16855   5.242   4.072   7.064  5.2062  0.9115  0.6022
  142DOPC   C3516856   5.305   4.015   6.879  0.3226  0.1797  0.3813
  142DOPC   H5X16857   5.382   3.959   6.935  0.5188  0.0198 -0.0437
  142DOPC   H5Y16858   5.350   4.072   6.794  2.0903  0.7588  1.6295
  142DOPC   C3616859   5.196   3.917   6.822 -0.0293  0.1794 -0.0214
  142DOPC   H6X16860   5.133   3.886   6.909  1.3884 -1.3189  0.5258
  142DOPC   H6Y16861   5.147   3.978   6.743 -0.2550  0.6241  0.4448
  142DOPC   C3716862   5.251   3.786   6.765 -0.1572 -0.9226 -0.1137
  142DOPC   H7X16863   5.280   3.802   6.659  2.9328  0.1569  0.7672
  142DOPC   H7Y16864   5.341   3.746   6.817  1.4273  1.4442 -0.9216
  142DOPC   C3816865   5.134   3.691   6.783 -0.0444  0.0981  0.4565
  142DOPC   H8X16866   5.088   3.703   6.883 -0.5321  3.6679 -0.0533
  142DOPC   H8Y16867   5.174   3.588   6.776  0.4287  0.3458 -0.8154
  142DOPC   C3916868   5.030   3.713   6.675  0.4778  0.4153  0.4593
  142DOPC   H9X16869   4.977   3.808   6.668  0.3660  0.2377 -3.4592
  142DOPC  C31016870   4.993   3.624   6.578  0.3978  0.1737  0.6595
  142DOPC  H10X16871   4.914   3.656   6.507  1.0625 -0.4432 -0.3914
  142DOPC  C31116872   5.056   3.487   6.556  1.3364  0.5140 -0.0117
  142DOPC  H11X16873   4.994   3.413   6.611  1.7044  0.1148 -0.1292
  142DOPC  H11Y16874   5.159   3.477   6.596  1.5299 -0.7636 -0.7649
  142DOPC  C31216875   5.053   3.454   6.401 -0.4304 -0.2167  0.0919
  142DOPC  H12X16876   4.950   3.472   6.363 -0.9642 -0.0128  1.5616
  142DOPC  H12Y16877   5.079   3.347   6.390  2.6864  0.6444 -3.0433
  142DOPC  C31316878   5.152   3.540   6.325  0.0883 -0.4223  0.4820
  142DOPC  H13X16879   5.112   3.642   6.308 -3.7708 -1.8852 -0.3689
  142DOPC  H13Y16880   5.249   3.539   6.378  0.7617 -1.1371 -0.7317
  142DOPC  C31416881   5.179   3.481   6.187 -0.2662 -0.3948  0.0637
  142DOPC  H14X16882   5.236   3.562   6.136 -0.1832  0.9577  2.1927
  142DOPC  H14Y16883   5.227   3.382   6.186  0.1494 -0.2101  0.8867
  142DOPC  C31516884   5.058   3.470   6.103  0.6178 -0.8022 -0.0792
  142DOPC  H15X16885   4.999   3.564   6.099 -1.0065 -1.8269 -3.2621
  142DOPC  H15Y16886   4.996   3.387   6.146 -1.1430 -0.0962 -1.1535
  142DOPC  C31616887   5.069   3.422   5.958  0.5862 -0.6169 -0.1193
  142DOPC  H16X16888   5.122   3.324   5.951  0.4831 -0.7357  0.7065
  142DOPC  H16Y16889   4.965   3.416   5.920  0.1403  2.6414  0.3533
  142DOPC  C31716890   5.133   3.518   5.863 -0.1459  0.1969 -0.0938
  142DOPC  H17X16891   5.085   3.618   5.870 -0.2098  0.2252 -0.8869
  142DOPC  H17Y16892   5.240   3.517   5.893 -0.4884 -0.9544  1.2121
  142DOPC  C31816893   5.129   3.472   5.714  0.5173  0.2511 -0.2626
  142DOPC  H18X16894   5.165   3.367   5.704  1.7895  0.6116  0.2906
  142DOPC  H18Y16895   5.023   3.476   5.683 -0.5160 -0.6804  2.8059
  142DOPC  H18Z16896   5.194   3.544   5.659  0.6524  1.8748  1.8866
  143DOPC     N16897   1.460   4.572   6.521  0.2790 -0.5136 -0.5091
  143DOPC   C1216898   1.474   4.534   6.671 -0.5516  0.0721  0.1141
  143DOPC  H12A16899   1.394   4.587   6.719  0.7488  2.7465 -0.4928
  143DOPC  H12B16900   1.573   4.564   6.702  0.6710 -0.6313 -2.7513
  143DOPC   C1316901   1.556   4.488   6.436  0.1125 -0.7804 -1.0100
  143DOPC  H13A16902   1.651   4.521   6.475 -1.8315  1.1301  2.6938
  143DOPC  H13B16903   1.534   4.383   6.446  1.6359 -1.0997 -0.8568
  143DOPC  H13C16904   1.541   4.507   6.331  1.5763  0.8945 -0.9586
  143DOPC   C1416905   1.470   4.719   6.508 -0.4813  0.0057 -0.7022
  143DOPC  H14A16906   1.449   4.744   6.405 -0.8787  0.2150 -0.5702
  143DOPC  H14B16907   1.391   4.762   6.567 -0.8459 -2.6281  0.9042
  143DOPC  H14C16908   1.569   4.749   6.540 -0.2865 -1.4991  0.1954
  143DOPC   C1516909   1.327   4.535   6.473  0.3562  0.5292  0.4134
  143DOPC  H15A16910   1.310   4.553   6.368  2.2821 -0.3594 -0.0949
  143DOPC  H15B16911   1.255   4.587   6.535  1.3777  1.6370  0.6994
  143DOPC  H15C16912   1.319   4.431   6.499  0.5218  0.0539 -1.3387
  143DOPC   C1116913   1.468   4.380   6.704 -0.2625 -0.1003  0.3747
  143DOPC  H11A16914   1.477   4.365   6.814  0.5081 -5.3630 -0.1615
  143DOPC  H11B16915   1.367   4.341   6.679 -0.7180  0.8971  0.6130
  143DOPC     P16916   1.611   4.153   6.671  0.8507 -0.2989  0.1312
  143DOPC   O1316917   1.558   4.121   6.805  0.8232 -0.0050 -0.8465
  143DOPC   O1416918   1.755   4.133   6.658 -0.1054 -0.2608 -0.2461
  143DOPC   O1216919   1.574   4.301   6.639 -0.4521  0.2715 -0.7986
  143DOPC   O1116920   1.534   4.069   6.564  0.1641  0.1480 -0.6418
  143DOPC    C116921   1.504   4.103   6.427 -0.0472 -1.2590  0.4055
  143DOPC    HA16922   1.460   4.205   6.423 -0.4846 -1.2639  3.3251
  143DOPC    HB16923   1.424   4.035   6.391 -0.7142  0.7413 -2.2302
  143DOPC    C216924   1.629   4.073   6.334 -0.2593 -0.1578  0.6568
  143DOPC    HS16925   1.698   4.159   6.348 -0.9067  0.4255  0.3469
  143DOPC   O2116926   1.580   4.067   6.196  1.0774  0.2002 -0.4304
  143DOPC   C2116927   1.527   4.174   6.144 -0.1626  0.3387 -0.0042
  143DOPC   O2216928   1.527   4.286   6.193  0.4315  0.0167  0.6490
  143DOPC   C2216929   1.462   4.139   6.004 -0.2185 -0.0705  0.0273
  143DOPC   H2R16930   1.446   4.226   5.937 -0.5625  0.4925  0.8155
  143DOPC   H2S16931   1.360   4.102   6.031 -0.3001  0.9683  1.2640
  143DOPC    C316932   1.692   3.936   6.375  0.2290 -0.2324 -0.7101
  143DOPC    HX16933   1.605   3.874   6.403 -0.1848  0.7108  0.1755
  143DOPC    HY16934   1.756   3.958   6.464  0.4712  2.5697 -1.4642
  143DOPC   O3116935   1.772   3.876   6.270  0.0512 -0.1449 -0.2256
  143DOPC   C3116936   1.857   3.778   6.311  0.4828 -0.1061 -0.2271
  143DOPC   O3216937   1.864   3.738   6.427 -0.6138  0.5372  0.1275
  143DOPC   C3216938   1.924   3.722   6.188  0.4053 -0.6736  0.0383
  143DOPC   H2X16939   1.942   3.612   6.197  1.2054 -0.5758 -0.2591
  143DOPC   H2Y16940   1.865   3.747   6.097  0.3406 -0.5892  0.1041
  143DOPC   C2316941   1.535   4.025   5.919  0.2785 -1.3280  0.2652
  143DOPC   H3R16942   1.556   3.939   5.986  1.9226  0.6713  2.5082
  143DOPC   H3S16943   1.640   4.054   5.897  0.0302 -0.5470  0.0648
  143DOPC   C2416944   1.456   3.975   5.799  0.0486  0.2578  0.9227
  143DOPC   H4R16945   1.354   3.932   5.814 -0.6514  0.3538 -2.6648
  143DOPC   H4S16946   1.512   3.889   5.757  0.1387 -0.2804  2.0947
  143DOPC   C2516947   1.453   4.078   5.685  0.2627 -0.5372 -0.3828
  143DOPC   H5R16948   1.555   4.120   5.675 -0.0294 -0.2484 -2.4011
  143DOPC   H5S16949   1.385   4.163   5.706  0.2301 -1.4597  4.4511
  143DOPC   C2616950   1.430   4.005   5.558  1.0289  0.1823 -0.1503
  143DOPC   H6R16951   1.333   3.952   5.559  1.1378 -0.0201  0.7282
  143DOPC   H6S16952   1.502   3.923   5.540  0.8310 -0.1200  0.4213
  143DOPC   C2716953   1.419   4.106   5.438  0.0266  0.6117 -0.1902
  143DOPC   H7R16954   1.516   4.155   5.413  1.2097 -0.6152  1.7300
  143DOPC   H7S16955   1.353   4.195   5.449  0.7600  1.2611 -0.8919
  143DOPC   C2816956   1.357   4.043   5.316 -0.3941 -0.2775 -0.5465
  143DOPC   H8R16957   1.349   4.110   5.228 -0.1562  1.6014  0.7979
  143DOPC   H8S16958   1.251   4.015   5.336 -1.3107  1.9498 -1.8419
  143DOPC   C2916959   1.442   3.930   5.269  1.2383  0.6777  0.8038
  143DOPC   H9R16960   1.461   3.861   5.352  1.6874 -0.5710 -0.2976
  143DOPC  C21016961   1.514   3.922   5.157 -0.5490  0.7652  0.3597
  143DOPC  H10R16962   1.572   3.830   5.142  0.8725  1.6406  0.2410
  143DOPC  C21116963   1.530   4.031   5.056  0.7583 -0.1579  0.4084
  143DOPC  H11R16964   1.576   4.128   5.086  2.2682  0.0207 -2.1365
  143DOPC  H11S16965   1.429   4.056   5.017  0.9942  0.9778  0.4937
  143DOPC  C21216966   1.609   4.007   4.922  0.0573 -0.6947  0.6904
  143DOPC  H12R16967   1.711   3.973   4.948 -0.0320 -0.9941  0.6628
  143DOPC  H12S16968   1.615   4.103   4.866  0.7141 -1.5736 -0.8129
  143DOPC  C21316969   1.536   3.914   4.821 -0.3289  0.3306 -0.4647
  143DOPC  H13R16970   1.428   3.928   4.838 -0.0663  0.3254  1.4375
  143DOPC  H13S16971   1.562   3.809   4.844  1.1918  1.2040  2.2190
  143DOPC  C21416972   1.570   3.947   4.676  0.6921 -0.6815  0.8691
  143DOPC  H14R16973   1.569   4.057   4.668 -2.1207 -0.7731 -2.3066
  143DOPC  H14S16974   1.497   3.903   4.605 -0.6765  2.0774  0.4486
  143DOPC  C21516975   1.714   3.900   4.630  0.4300  0.1057 -0.4941
  143DOPC  H15R16976   1.782   3.918   4.717  0.7820  0.6969 -0.8831
  143DOPC  H15S16977   1.747   3.960   4.543 -1.2237  0.9300 -0.5824
  143DOPC  C21616978   1.717   3.754   4.593  0.8630  0.2055  0.5474
  143DOPC  H16R16979   1.642   3.733   4.514  1.0250  0.5955  0.2871
  143DOPC  H16S16980   1.696   3.680   4.673 -2.0712 -0.6911 -0.9167
  143DOPC  C21716981   1.847   3.717   4.522 -0.7820 -0.8443 -0.6346
  143DOPC  H17R16982   1.938   3.743   4.580 -1.1263 -1.9880  0.4669
  143DOPC  H17S16983   1.853   3.770   4.425  0.4535  1.4959  0.6373
  143DOPC  C21816984   1.854   3.567   4.504  0.2987 -0.0818  0.1420
  143DOPC  H18R16985   1.789   3.525   4.424  0.3667  0.6986 -0.3307
  143DOPC  H18S16986   1.817   3.526   4.600  2.2066  2.3682  2.0632
  143DOPC  H18T16987   1.958   3.530   4.488 -0.3654 -1.3665 -1.5141
  143DOPC   C3316988   2.066   3.773   6.194  0.2883  0.3732 -0.0650
  143DOPC   H3X16989   2.122   3.750   6.286  0.9673  0.0249 -0.5583
  143DOPC   H3Y16990   2.063   3.884   6.191 -0.7206  0.3884  0.7608
  143DOPC   C3416991   2.147   3.741   6.070  0.7064 -0.3316  0.1234
  143DOPC   H4X16992   2.074   3.754   5.987 -0.9302 -3.4782  0.9121
  143DOPC   H4Y16993   2.168   3.632   6.061 -0.2190 -0.5289  0.2513
  143DOPC   C3516994   2.267   3.832   6.054  0.2315  0.5157 -0.0928
  143DOPC   H5X16995   2.330   3.820   6.144  0.9488  1.4659 -0.4503
  143DOPC   H5Y16996   2.239   3.940   6.052 -0.6652  0.2899 -0.4121
  143DOPC   C3616997   2.352   3.797   5.929 -0.2402  0.6817  0.6002
  143DOPC   H6X16998   2.450   3.849   5.936 -0.5863  1.4797 -0.2700
  143DOPC   H6Y16999   2.366   3.688   5.914  2.2600  1.1493 -0.9479
  143DOPC   C3717000   2.281   3.848   5.799  0.6237  0.1548  0.3663
  143DOPC   H7X17001   2.179   3.811   5.777  0.9766 -0.2074 -0.7519
  143DOPC   H7Y17002   2.275   3.958   5.811  0.2483  0.1962 -0.1447
  143DOPC   C3817003   2.358   3.804   5.673  0.0335 -0.1181  0.7536
  143DOPC   H8X17004   2.350   3.695   5.688 -0.1730 -0.2725 -0.3712
  143DOPC   H8Y17005   2.461   3.834   5.703 -0.3661  0.4714  1.5934
  143DOPC   C3917006   2.307   3.855   5.540 -0.3368 -0.7310  0.8490
  143DOPC   H9X17007   2.306   3.961   5.511  1.2754 -1.4169 -2.0011
  143DOPC  C31017008   2.232   3.780   5.450 -0.1489 -0.6012 -0.2280
  143DOPC  H10X17009   2.189   3.837   5.366  0.2104 -2.3494 -1.6491
  143DOPC  C31117010   2.190   3.640   5.457 -0.5719 -0.6516 -1.1010
  143DOPC  H11X17011   2.108   3.612   5.386 -0.4419 -0.5254 -1.3009
  143DOPC  H11Y17012   2.148   3.610   5.555 -2.0839 -4.1317 -2.6202
  143DOPC  C31217013   2.304   3.546   5.415 -0.6224 -0.0484  0.2923
  143DOPC  H12X17014   2.254   3.447   5.410 -1.9005  0.6020 -0.4896
  143DOPC  H12Y17015   2.376   3.532   5.499 -1.1845  0.4747  0.8752
  143DOPC  C31317016   2.378   3.567   5.281  0.1241  0.0445  0.0635
  143DOPC  H13X17017   2.398   3.675   5.268 -1.8797  1.2207  4.6975
  143DOPC  H13Y17018   2.478   3.519   5.284  0.8468  1.5162  0.2291
  143DOPC  C31417019   2.295   3.512   5.166  0.2596  0.5884  0.3767
  143DOPC  H14X17020   2.264   3.408   5.189 -0.1744  0.0911 -2.0986
  143DOPC  H14Y17021   2.216   3.588   5.150 -0.9807 -1.1858 -3.1023
  143DOPC  C31517022   2.365   3.491   5.029 -0.0525  0.1466 -0.7921
  143DOPC  H15X17023   2.420   3.396   5.043 -0.7165  0.1028  2.4594
  143DOPC  H15Y17024   2.441   3.573   5.023  1.6604 -1.3715 -0.6389
  143DOPC  C31617025   2.271   3.479   4.911 -0.2863  0.1662 -0.2885
  143DOPC  H16X17026   2.200   3.398   4.938 -0.2023  0.8873  2.4362
  143DOPC  H16Y17027   2.209   3.570   4.900  0.3357  0.2945 -3.9944
  143DOPC  C31717028   2.332   3.453   4.774  0.2826 -0.3412  0.8934
  143DOPC  H17X17029   2.405   3.528   4.739  1.4872 -2.1917 -0.7791
  143DOPC  H17Y17030   2.395   3.363   4.790  2.2391  0.7822 -0.1533
  143DOPC  C31817031   2.224   3.435   4.666 -0.5538  0.6768  0.1262
  143DOPC  H18X17032   2.158   3.524   4.661 -1.3131  0.0622 -1.2680
  143DOPC  H18Y17033   2.264   3.429   4.563 -1.0123 -0.8686  0.0126
  143DOPC  H18Z17034   2.153   3.352   4.687  0.0464  0.1764  0.2241
  144DOPC     N17035   2.242   3.025   7.244 -0.3518  0.3665  0.0617
  144DOPC   C1217036   2.364   3.011   7.151  0.9848 -0.4399  0.3648
  144DOPC  H12A17037   2.396   2.908   7.150 -2.1988 -1.5293  0.1433
  144DOPC  H12B17038   2.442   3.069   7.200  2.2210 -0.8385 -1.0671
  144DOPC   C1317039   2.214   3.169   7.269  0.2378  0.4840 -0.5273
  144DOPC  H13A17040   2.294   3.212   7.329 -1.0980  1.3984  0.6690
  144DOPC  H13B17041   2.201   3.235   7.185  1.0239  0.8315 -0.3849
  144DOPC  H13C17042   2.124   3.174   7.329  1.6266  0.7639  1.6314
  144DOPC   C1417043   2.269   2.962   7.370  0.1442 -0.6235 -0.4220
  144DOPC  H14A17044   2.190   2.992   7.436 -0.3775  0.6147 -1.5669
  144DOPC  H14B17045   2.267   2.854   7.367 -0.1048 -0.6053 -1.1648
  144DOPC  H14C17046   2.358   2.997   7.420 -1.2632  0.3108  1.5150
  144DOPC   C1517047   2.124   2.971   7.173 -0.1839 -0.9420  0.3768
  144DOPC  H15A17048   2.098   3.021   7.081  2.1092  0.3403  0.3620
  144DOPC  H15B17049   2.031   2.972   7.227  0.5952  0.9541  1.7954
  144DOPC  H15C17050   2.145   2.867   7.150  1.6876 -0.9545  1.8720
  144DOPC   C1117051   2.351   3.061   7.000 -0.1098  0.2638 -0.6674
  144DOPC  H11A17052   2.437   3.023   6.941  0.2730  0.2493 -0.1070
  144DOPC  H11B17053   2.267   3.008   6.950 -1.0532  0.3567  0.7353
  144DOPC     P17054   2.454   3.300   7.035 -0.2360  0.3986 -0.0509
  144DOPC   O1317055   2.574   3.216   7.074  0.4893  0.1202  0.4300
  144DOPC   O1417056   2.409   3.398   7.134  0.1655 -0.2837 -0.5653
  144DOPC   O1217057   2.336   3.203   6.994  0.1892 -0.0721  0.0379
  144DOPC   O1117058   2.487   3.375   6.896 -0.2569  0.3375 -0.2545
  144DOPC    C117059   2.398   3.461   6.824  0.4932  0.8980  0.0979
  144DOPC    HA17060   2.390   3.552   6.886  0.9166  1.6393 -0.9048
  144DOPC    HB17061   2.298   3.417   6.806  0.7678  0.2982 -0.0011
  144DOPC    C217062   2.454   3.499   6.683  0.4668  0.4910 -0.9216
  144DOPC    HS17063   2.458   3.408   6.621  1.5368 -0.3124  0.2711
  144DOPC   O2117064   2.582   3.564   6.692  0.1275  0.1226  0.3655
  144DOPC   C2117065   2.683   3.496   6.641 -0.6026  0.6800 -0.4284
  144DOPC   O2217066   2.680   3.385   6.595  0.4586 -0.1234  0.1045
  144DOPC   C2217067   2.814   3.578   6.641  0.1213  0.1296 -0.8699
  144DOPC   H2R17068   2.829   3.612   6.746  0.2411  2.2791 -1.5199
  144DOPC   H2S17069   2.792   3.679   6.600  0.5029  0.8010  0.4999
  144DOPC    C317070   2.366   3.604   6.608 -0.2231  0.6179  0.3320
  144DOPC    HX17071   2.362   3.704   6.654  0.1450  0.4821  0.6573
  144DOPC    HY17072   2.262   3.565   6.609  0.5355 -1.5680  0.2434
  144DOPC   O3117073   2.427   3.615   6.476 -0.2147 -0.0312 -0.2247
  144DOPC   C3117074   2.375   3.543   6.378  0.6853 -0.5182 -0.0226
  144DOPC   O3217075   2.274   3.468   6.381 -0.6624 -0.7736  0.2899
  144DOPC   C3217076   2.453   3.576   6.251  0.7495 -0.2772 -1.0572
  144DOPC   H2X17077   2.382   3.571   6.166  0.2503 -1.7028 -0.5819
  144DOPC   H2Y17078   2.492   3.680   6.260  0.5743 -0.2105 -1.0696
  144DOPC   C2317079   2.938   3.510   6.577  0.1674 -0.3498 -0.4098
  144DOPC   H3R17080   2.959   3.411   6.625 -0.4395  1.3277  3.7021
  144DOPC   H3S17081   3.021   3.576   6.611 -0.3582  0.6783 -1.0768
  144DOPC   C2417082   2.931   3.507   6.423  0.1171  0.0197 -0.3071
  144DOPC   H4R17083   2.832   3.466   6.392  0.6759 -2.0020  0.4347
  144DOPC   H4S17084   3.007   3.442   6.376 -0.8130 -1.3046 -0.0282
  144DOPC   C2517085   2.945   3.653   6.366 -0.1693 -0.0178  0.3650
  144DOPC   H5R17086   3.053   3.676   6.384  0.3750 -0.6731 -1.7802
  144DOPC   H5S17087   2.880   3.730   6.412  0.7425  1.2279 -0.3431
  144DOPC   C2617088   2.906   3.660   6.217  0.6336 -0.0577  0.1788
  144DOPC   H6R17089   2.796   3.661   6.197  0.9199  1.6578 -1.6199
  144DOPC   H6S17090   2.967   3.576   6.178 -0.4769 -0.6521 -0.3188
  144DOPC   C2717091   2.958   3.780   6.131  1.1928 -0.2130  0.0243
  144DOPC   H7R17092   3.059   3.789   6.176  1.9727  2.2499 -2.0210
  144DOPC   H7S17093   2.897   3.869   6.158 -0.1621 -0.8991 -0.6573
  144DOPC   C2817094   2.969   3.766   5.975 -0.7165 -0.4063  0.6598
  144DOPC   H8R17095   3.050   3.691   5.969  1.0427  1.4163  0.3444
  144DOPC   H8S17096   2.998   3.859   5.922 -1.5038 -0.0934  0.7703
  144DOPC   C2917097   2.846   3.696   5.926 -0.3756 -0.2688  0.0286
  144DOPC   H9R17098   2.814   3.605   5.979  0.4293  0.6275  2.1775
  144DOPC  C21017099   2.768   3.746   5.825  0.2040  0.1186 -0.5545
  144DOPC  H10R17100   2.685   3.686   5.785  0.7345 -0.4784 -0.7926
  144DOPC  C21117101   2.788   3.870   5.747  0.2349  0.0294  0.2089
  144DOPC  H11R17102   2.889   3.915   5.759  1.3264 -2.1172 -0.3955
  144DOPC  H11S17103   2.722   3.956   5.769  1.5749  1.7520 -2.0566
  144DOPC  C21217104   2.762   3.838   5.603  0.0024 -0.3239 -0.2846
  144DOPC  H12R17105   2.769   3.919   5.527 -0.1009 -1.7582 -1.8769
  144DOPC  H12S17106   2.661   3.796   5.585  0.0895 -1.0724  0.9158
  144DOPC  C21317107   2.860   3.737   5.547  0.1032 -0.1646  0.1906
  144DOPC  H13R17108   2.834   3.642   5.598 -0.9139 -0.2469 -0.4482
  144DOPC  H13S17109   2.960   3.778   5.572 -0.2758  1.5667 -0.9308
  144DOPC  C21417110   2.835   3.717   5.394  0.0038  0.2456 -0.1846
  144DOPC  H14R17111   2.827   3.806   5.329  0.8011 -0.5549 -1.4047
  144DOPC  H14S17112   2.732   3.675   5.388  0.0486  0.1488 -0.2715
  144DOPC  C21517113   2.941   3.625   5.328 -0.1090 -0.2095 -0.1584
  144DOPC  H15R17114   2.973   3.545   5.398 -1.4144 -0.9402 -0.3613
  144DOPC  H15S17115   3.035   3.679   5.302  0.4142  0.0545  2.0545
  144DOPC  C21617116   2.881   3.559   5.200  0.0889 -0.5180 -0.1970
  144DOPC  H16R17117   2.775   3.530   5.213 -0.7036  2.1513 -0.0519
  144DOPC  H16S17118   2.929   3.463   5.173  0.2949  0.0855 -2.1586
  144DOPC  C21717119   2.889   3.660   5.086  0.1706 -0.5039 -0.3901
  144DOPC  H17R17120   2.988   3.666   5.034  0.7065  2.7146  0.8120
  144DOPC  H17S17121   2.862   3.762   5.118 -0.3545 -0.2326 -1.6289
  144DOPC  C21817122   2.787   3.623   4.982  0.4341 -0.4451 -0.0950
  144DOPC  H18R17123   2.689   3.666   5.011  0.5168 -0.1033 -0.3145
  144DOPC  H18S17124   2.776   3.513   4.971 -1.0229 -0.2959 -0.2292
  144DOPC  H18T17125   2.817   3.671   4.886  2.6697 -0.0938  0.7204
  144DOPC   C3317126   2.568   3.472   6.234 -0.3430  0.3349  0.2346
  144DOPC   H3X17127   2.636   3.461   6.322 -0.8961 -0.8554  0.5369
  144DOPC   H3Y17128   2.639   3.509   6.158  0.4637  0.0892  0.8541
  144DOPC   C3417129   2.521   3.333   6.179  0.4380  0.3452  0.0111
  144DOPC   H4X17130   2.436   3.303   6.245  0.0531 -1.7528 -1.3436
  144DOPC   H4Y17131   2.606   3.262   6.178  2.8881  3.1294 -1.1273
  144DOPC   C3517132   2.465   3.338   6.037 -0.4697  0.0827 -0.1823
  144DOPC   H5X17133   2.360   3.374   6.033 -1.6835 -3.1564 -1.4353
  144DOPC   H5Y17134   2.459   3.231   6.007  2.4797 -0.7709  1.8733
  144DOPC   C3617135   2.550   3.414   5.935 -0.0698  0.3147 -0.0095
  144DOPC   H6X17136   2.557   3.523   5.952  1.6085  0.2866 -0.3225
  144DOPC   H6Y17137   2.653   3.376   5.949 -0.9027 -1.9664  0.4701
  144DOPC   C3717138   2.505   3.383   5.797 -0.5189 -0.3875  0.2032
  144DOPC   H7X17139   2.495   3.272   5.790 -1.5016 -0.3725  0.9832
  144DOPC   H7Y17140   2.405   3.427   5.775  0.5936  1.0851 -2.2790
  144DOPC   C3817141   2.590   3.420   5.673  0.3397  0.0431 -0.0598
  144DOPC   H8X17142   2.589   3.531   5.673 -1.1622  0.0381  0.1898
  144DOPC   H8Y17143   2.528   3.383   5.588 -1.9793  1.1882  1.0650
  144DOPC   C3917144   2.728   3.353   5.677 -0.3846 -0.3272 -0.4709
  144DOPC   H9X17145   2.754   3.342   5.783 -3.1595 -0.1384  0.3255
  144DOPC  C31017146   2.808   3.314   5.573 -0.3235 -0.1962  0.2242
  144DOPC  H10X17147   2.907   3.267   5.583 -0.3753 -0.2852  0.3188
  144DOPC  C31117148   2.765   3.321   5.430  0.0512  0.3425  0.1494
  144DOPC  H11X17149   2.850   3.300   5.360 -0.2758  0.1241 -0.1867
  144DOPC  H11Y17150   2.731   3.424   5.408 -0.8637  0.0677  0.2536
  144DOPC  C31217151   2.658   3.217   5.375 -0.2133  0.0019  0.2192
  144DOPC  H12X17152   2.577   3.203   5.450  1.8489  0.4047  2.6545
  144DOPC  H12Y17153   2.698   3.113   5.376  0.5509  0.2846  1.8778
  144DOPC  C31317154   2.599   3.241   5.234  0.0557 -0.0791  0.5269
  144DOPC  H13X17155   2.509   3.178   5.219 -1.0526  1.5367  0.0254
  144DOPC  H13Y17156   2.550   3.341   5.240 -0.3220 -0.1660 -0.6606
  144DOPC  C31417157   2.684   3.231   5.110  0.3214 -0.2758  0.4767
  144DOPC  H14X17158   2.621   3.242   5.019  1.5096 -1.7842 -0.5849
  144DOPC  H14Y17159   2.759   3.313   5.117  0.5496 -0.5620  1.6124
  144DOPC  C31517160   2.755   3.098   5.082  0.6490  0.2238 -0.4562
  144DOPC  H15X17161   2.686   3.021   5.042  0.9318  0.3292 -1.1688
  144DOPC  H15Y17162   2.805   3.071   5.178  1.4579  3.2844  0.0984
  144DOPC  C31617163   2.866   3.115   4.981 -0.6133 -0.4883 -0.3038
  144DOPC  H16X17164   2.822   3.151   4.886 -2.3032  1.9817  1.3014
  144DOPC  H16Y17165   2.930   3.201   5.011 -1.9512 -0.1015  1.6326
  144DOPC  C31717166   2.954   2.990   4.957  0.3127 -0.1224  0.0642
  144DOPC  H17X17167   2.991   2.950   5.053 -0.4182  1.7833  1.1873
  144DOPC  H17Y17168   2.902   2.911   4.899  0.8359  0.4015 -1.1685
  144DOPC  C31817169   3.076   3.022   4.865 -0.7588 -0.6792  0.1854
  144DOPC  H18X17170   3.137   3.098   4.918 -0.5861  0.2538 -1.2626
  144DOPC  H18Y17171   3.141   2.934   4.846 -0.0349 -0.0811 -0.1800
  144DOPC  H18Z17172   3.045   3.061   4.765  0.7792  0.1830  0.0124
  145DOPC     N17173   3.215   5.623   7.207 -0.2706  0.9109 -0.5884
  145DOPC   C1217174   3.313   5.529   7.146  0.2780  0.1046  0.9869
  145DOPC  H12A17175   3.255   5.459   7.088 -0.5682  0.6016  1.2136
  145DOPC  H12B17176   3.357   5.471   7.226  0.8830  0.5123  0.9600
  145DOPC   C1317177   3.102   5.538   7.268 -0.0771  0.3738 -0.2278
  145DOPC  H13A17178   3.140   5.478   7.349 -0.0559 -0.3143 -0.7480
  145DOPC  H13B17179   3.028   5.602   7.316  0.4608  1.9565 -1.4102
  145DOPC  H13C17180   3.050   5.470   7.202 -0.8386  0.1397  0.5917
  145DOPC   C1417181   3.167   5.699   7.085  0.1287  0.3421  0.3155
  145DOPC  H14A17182   3.250   5.743   7.032 -0.1948  1.2181  0.5221
  145DOPC  H14B17183   3.120   5.631   7.016  0.7326  3.6610 -3.8142
  145DOPC  H14C17184   3.090   5.768   7.115 -0.2032  1.4806 -2.7641
  145DOPC   C1517185   3.271   5.715   7.301 -1.0710 -0.2837  0.5874
  145DOPC  H15A17186   3.334   5.782   7.246  0.5586 -3.1406 -1.3191
  145DOPC  H15B17187   3.333   5.676   7.381 -0.1023  0.9250  0.4419
  145DOPC  H15C17188   3.186   5.761   7.349 -2.5597 -2.1606 -0.1020
  145DOPC   C1117189   3.432   5.586   7.064 -0.3266 -0.4736  0.0535
  145DOPC  H11A17190   3.463   5.669   7.131 -0.7999 -0.8622  0.7726
  145DOPC  H11B17191   3.515   5.513   7.059  1.1880  1.2747 -1.5862
  145DOPC     P17192   3.514   5.696   6.846 -0.1215  0.1633 -0.2578
  145DOPC   O1317193   3.644   5.639   6.893 -0.5239 -0.4309  0.4197
  145DOPC   O1417194   3.510   5.844   6.830  0.0137  0.2270  0.9003
  145DOPC   O1217195   3.404   5.642   6.942  0.0016 -0.1967 -0.6382
  145DOPC   O1117196   3.471   5.627   6.705  0.1385 -0.0332 -0.5238
  145DOPC    C117197   3.398   5.508   6.714  0.3810  0.6078  0.9416
  145DOPC    HA17198   3.300   5.530   6.763  1.5092 -0.2791  3.8434
  145DOPC    HB17199   3.456   5.430   6.768  0.3673 -1.3308 -1.6579
  145DOPC    C217200   3.358   5.458   6.570  0.0505 -0.1871 -0.0396
  145DOPC    HS17201   3.271   5.389   6.579 -0.6930  0.9999  3.2531
  145DOPC   O2117202   3.471   5.396   6.505  0.5518 -0.0714 -0.3824
  145DOPC   C2117203   3.505   5.272   6.561  0.2959 -0.5799  0.0770
  145DOPC   O2217204   3.452   5.228   6.662  0.5073  0.4078  0.0854
  145DOPC   C2217205   3.608   5.200   6.472  0.2708  0.2370 -0.5256
  145DOPC   H2R17206   3.706   5.252   6.480 -1.2657  3.3009 -0.4789
  145DOPC   H2S17207   3.576   5.215   6.366 -1.9733 -1.8824 -0.2328
  145DOPC    C317208   3.308   5.579   6.488  0.5715  0.5884  0.4616
  145DOPC    HX17209   3.384   5.660   6.488  2.0215 -0.6038 -2.9243
  145DOPC    HY17210   3.219   5.616   6.544 -0.8683  0.1224 -1.4111
  145DOPC   O3117211   3.285   5.549   6.349 -0.4053  0.2358  0.0914
  145DOPC   C3117212   3.162   5.486   6.334 -0.5409 -0.3828  0.1442
  145DOPC   O3217213   3.093   5.448   6.424 -0.2469  0.0992  0.5546
  145DOPC   C3217214   3.138   5.470   6.187 -0.0007  0.1037 -0.2691
  145DOPC   H2X17215   3.125   5.569   6.137  1.1736 -0.0758 -0.9724
  145DOPC   H2Y17216   3.227   5.425   6.139 -0.7938 -0.6614 -1.0607
  145DOPC   C2317217   3.614   5.044   6.498  0.9520 -0.0937  0.2621
  145DOPC   H3R17218   3.690   5.003   6.428  0.1952 -0.2943 -0.4589
  145DOPC   H3S17219   3.525   4.986   6.468  1.5472 -1.4268  1.0016
  145DOPC   C2417220   3.662   4.998   6.636 -0.6539  0.5325 -0.1952
  145DOPC   H4R17221   3.588   5.001   6.718 -2.2914 -0.1915 -1.5836
  145DOPC   H4S17222   3.751   5.059   6.664 -0.9877  0.2724  1.5785
  145DOPC   C2517223   3.714   4.861   6.647 -0.1316  0.7374 -0.0189
  145DOPC   H5R17224   3.759   4.852   6.748 -0.0769 -0.0435 -0.1080
  145DOPC   H5S17225   3.796   4.849   6.573 -0.5538  0.5481 -0.4609
  145DOPC   C2617226   3.614   4.743   6.639 -0.6727  0.0068  0.1925
  145DOPC   H6R17227   3.554   4.741   6.546 -1.2160 -2.5928  0.5072
  145DOPC   H6S17228   3.545   4.757   6.726 -1.6755 -0.0443 -0.5791
  145DOPC   C2717229   3.659   4.590   6.635 -0.0666  0.2704 -0.1888
  145DOPC   H7R17230   3.580   4.517   6.608  1.4715 -1.3239 -0.5728
  145DOPC   H7S17231   3.683   4.561   6.739  0.9807  1.4264 -0.0819
  145DOPC   C2817232   3.781   4.564   6.548 -0.0626 -0.6014 -0.0174
  145DOPC   H8R17233   3.803   4.455   6.558  1.5672 -0.4729 -1.5837
  145DOPC   H8S17234   3.873   4.612   6.589 -0.7385  1.5035 -0.8629
  145DOPC   C2917235   3.755   4.605   6.403  0.5184  0.4993  0.6572
  145DOPC   H9R17236   3.789   4.702   6.363 -0.2446 -0.2096 -1.9530
  145DOPC  C21017237   3.692   4.529   6.306 -0.0724  0.0836  0.5206
  145DOPC  H10R17238   3.677   4.576   6.207 -1.1352  1.0705  1.1219
  145DOPC  C21117239   3.630   4.392   6.327 -0.2979 -0.4670  1.0179
  145DOPC  H11R17240   3.616   4.361   6.433  2.4749  0.0930  1.6278
  145DOPC  H11S17241   3.694   4.317   6.276 -1.1696 -0.1084 -0.6757
  145DOPC  C21217242   3.487   4.383   6.274 -0.4617 -0.1416 -0.7502
  145DOPC  H12R17243   3.425   4.453   6.334 -0.9958 -0.4282 -0.9628
  145DOPC  H12S17244   3.446   4.283   6.301 -0.2154  0.6246  2.9544
  145DOPC  C21317245   3.450   4.422   6.125 -0.2229  0.3401 -1.2998
  145DOPC  H13R17246   3.484   4.527   6.113  0.4176  0.3498  0.2765
  145DOPC  H13S17247   3.342   4.425   6.100 -0.6234  0.0586  0.2531
  145DOPC  C21417248   3.524   4.348   6.027  0.9385 -0.0489  0.1315
  145DOPC  H14R17249   3.518   4.239   6.049 -1.5581 -0.3654 -1.7073
  145DOPC  H14S17250   3.635   4.355   6.028  1.2126 -2.0285 -2.9777
  145DOPC  C21517251   3.474   4.360   5.883  0.2624  0.0245 -0.0923
  145DOPC  H15R17252   3.419   4.457   5.878  0.2032  0.0659  1.0593
  145DOPC  H15S17253   3.397   4.281   5.865 -0.2262  0.8540 -1.9371
  145DOPC  C21617254   3.590   4.342   5.782  0.3394  0.5439  0.5032
  145DOPC  H16R17255   3.648   4.248   5.796  0.0026  0.0079 -1.5215
  145DOPC  H16S17256   3.666   4.421   5.803  0.3647  0.8698 -0.7300
  145DOPC  C21717257   3.540   4.356   5.641  0.2260  0.2152  0.0128
  145DOPC  H17R17258   3.450   4.292   5.627  0.4033  0.1415 -0.8273
  145DOPC  H17S17259   3.619   4.316   5.573  1.7533  1.3563  1.0445
  145DOPC  C21817260   3.522   4.501   5.607  0.5462 -0.6813 -0.0784
  145DOPC  H18R17261   3.434   4.536   5.665  1.4676  0.2250  0.8133
  145DOPC  H18S17262   3.502   4.505   5.498  0.3487  0.9040 -0.0056
  145DOPC  H18T17263   3.615   4.558   5.630  1.2402 -1.5300 -0.7125
  145DOPC   C3317264   3.012   5.382   6.155  0.3212  0.4136  0.3402
  145DOPC   H3X17265   2.920   5.432   6.192 -0.8362 -2.5009  1.6994
  145DOPC   H3Y17266   3.021   5.283   6.204 -0.6961 -0.4935 -1.2065
  145DOPC   C3417267   2.991   5.351   6.007  0.3047  0.3137 -0.1548
  145DOPC   H4X17268   3.011   5.448   5.956  2.5020  0.2109  0.4037
  145DOPC   H4Y17269   2.886   5.319   5.992  1.3585 -2.4741 -2.3976
  145DOPC   C3517270   3.083   5.239   5.952 -0.0668  0.3214 -0.3553
  145DOPC   H5X17271   3.153   5.186   6.020  0.7059 -0.5744 -1.8032
  145DOPC   H5Y17272   3.157   5.290   5.887  1.0028 -0.8023 -0.0648
  145DOPC   C3617273   3.008   5.135   5.866  0.1279 -0.7842  0.1556
  145DOPC   H6X17274   3.091   5.078   5.818  0.4680  0.5876 -0.9559
  145DOPC   H6Y17275   2.949   5.068   5.932  1.5141 -0.6270  1.5896
  145DOPC   C3717276   2.928   5.204   5.752  0.0203  0.3078  0.6983
  145DOPC   H7X17277   2.861   5.281   5.796 -1.5493 -0.4987 -0.2400
  145DOPC   H7Y17278   2.979   5.262   5.672  2.2135 -0.2796  1.5706
  145DOPC   C3817279   2.829   5.101   5.680 -0.8308  0.7276 -0.1373
  145DOPC   H8X17280   2.758   5.161   5.620 -0.7439  1.6080  0.6245
  145DOPC   H8Y17281   2.775   5.057   5.767 -4.1443  1.2840 -1.8003
  145DOPC   C3917282   2.899   5.001   5.592  0.7188 -0.4023  0.7630
  145DOPC   H9X17283   3.006   4.982   5.604  0.6168 -0.3820  1.8287
  145DOPC  C31017284   2.835   4.936   5.491 -0.5299  1.1419 -0.6819
  145DOPC  H10X17285   2.894   4.864   5.433 -2.3599  1.2373 -2.8013
  145DOPC  C31117286   2.698   4.944   5.453  0.6069  0.2407  0.4459
  145DOPC  H11X17287   2.668   4.889   5.362  0.8663 -1.1086  1.1497
  145DOPC  H11Y17288   2.685   5.051   5.425 -3.5994  0.0981  1.1679
  145DOPC  C31217289   2.584   4.926   5.554 -0.4349  0.0673  0.2182
  145DOPC  H12X17290   2.484   4.935   5.506 -0.1816 -0.2257 -0.3817
  145DOPC  H12Y17291   2.581   5.000   5.637  2.7492  0.7247 -0.1523
  145DOPC  C31317292   2.583   4.786   5.625  0.4464 -0.0554 -0.4069
  145DOPC  H13X17293   2.558   4.709   5.549 -0.7878  0.9841 -1.0939
  145DOPC  H13Y17294   2.687   4.768   5.661  1.4422  1.9157 -2.0503
  145DOPC  C31417295   2.492   4.766   5.745  0.1469  0.1340 -0.6759
  145DOPC  H14X17296   2.536   4.686   5.809 -0.3590 -0.1081 -0.6269
  145DOPC  H14Y17297   2.484   4.854   5.811 -1.8158 -1.1170  0.8846
  145DOPC  C31517298   2.350   4.744   5.705  0.6957  0.3089 -0.3917
  145DOPC  H15X17299   2.340   4.657   5.637 -0.9972 -0.3015  0.5889
  145DOPC  H15Y17300   2.310   4.831   5.648 -1.3172  0.4916  1.1934
  145DOPC  C31617301   2.252   4.722   5.821  0.1802  0.1637  0.0499
  145DOPC  H16X17302   2.302   4.656   5.895  0.7884 -0.5478 -0.9709
  145DOPC  H16Y17303   2.240   4.820   5.871  2.0130  0.9754 -1.0199
  145DOPC  C31717304   2.114   4.666   5.772 -0.4178 -0.2614 -0.5361
  145DOPC  H17X17305   2.060   4.744   5.715  0.1877  0.3251 -0.3180
  145DOPC  H17Y17306   2.136   4.575   5.712  1.2583 -1.1830  1.3345
  145DOPC  C31817307   2.031   4.624   5.889 -0.1341  0.4281  0.0118
  145DOPC  H18X17308   2.011   4.712   5.954  0.7388 -0.2249  1.2184
  145DOPC  H18Y17309   1.940   4.575   5.850 -0.2211  0.3286  0.3350
  145DOPC  H18Z17310   2.076   4.546   5.955 -3.5067 -0.7806  1.1076
  146DOPC     N17311   4.801   2.745   7.876 -0.1452  0.0763  0.4099
  146DOPC   C1217312   4.799   2.888   7.833 -0.2724  0.0870 -0.1976
  146DOPC  H12A17313   4.902   2.921   7.826  0.3690 -2.1848 -3.1237
  146DOPC  H12B17314   4.753   2.946   7.913 -1.1050  0.6896 -1.0903
  146DOPC   C1317315   4.885   2.666   7.777  0.6574  0.6546  0.1387
  146DOPC  H13A17316   4.990   2.690   7.784  1.2944 -1.6276 -0.6097
  146DOPC  H13B17317   4.868   2.560   7.784  3.0182  0.2992  1.5306
  146DOPC  H13C17318   4.844   2.695   7.681 -0.9066 -0.6492  0.3635
  146DOPC   C1417319   4.659   2.696   7.898 -0.1709  0.4536 -0.2128
  146DOPC  H14A17320   4.656   2.594   7.933  2.6717  1.1773  2.6042
  146DOPC  H14B17321   4.606   2.753   7.973  0.6832  1.4068 -0.3116
  146DOPC  H14C17322   4.606   2.710   7.805 -1.6983  0.1805  0.5898
  146DOPC   C1517323   4.876   2.740   8.004  0.3274 -0.0283  0.1925
  146DOPC  H15A17324   4.980   2.768   7.994  1.2483 -3.3967 -0.6980
  146DOPC  H15B17325   4.864   2.639   8.038 -0.4776 -0.6370 -1.7405
  146DOPC  H15C17326   4.823   2.789   8.084 -0.3167  0.6415 -0.6123
  146DOPC   C1117327   4.724   2.918   7.708  0.0933  0.3692  0.4499
  146DOPC  H11A17328   4.629   2.862   7.701  2.0524 -3.2734  0.3490
  146DOPC  H11B17329   4.711   3.028   7.712  1.1359  0.4814  1.4728
  146DOPC     P17330   4.931   2.955   7.546 -0.0078 -0.4147 -0.1442
  146DOPC   O1317331   5.055   2.884   7.579 -0.0330  0.4927 -0.1197
  146DOPC   O1417332   4.927   3.090   7.604 -0.3837  0.3215  0.5161
  146DOPC   O1217333   4.797   2.876   7.589  0.4469  0.2581 -0.1543
  146DOPC   O1117334   4.931   2.962   7.395 -0.0344  0.1044  0.7230
  146DOPC    C117335   4.816   3.015   7.325  0.2737  0.3680 -0.6382
  146DOPC    HA17336   4.758   3.095   7.375  0.6319 -0.5447  1.2988
  146DOPC    HB17337   4.740   2.934   7.321  0.7929 -0.1209 -0.6659
  146DOPC    C217338   4.838   3.055   7.175 -0.7103 -0.4460 -0.3973
  146DOPC    HS17339   4.742   3.058   7.120 -0.2258 -0.0861 -1.2486
  146DOPC   O2117340   4.930   2.964   7.108 -0.1671 -0.4667 -0.2665
  146DOPC   C2117341   4.865   2.860   7.058 -0.6961  0.1566 -0.4756
  146DOPC   O2217342   4.753   2.825   7.085 -0.3856  0.3702  0.2742
  146DOPC   C2217343   4.946   2.785   6.956 -0.2703 -0.0098  0.6656
  146DOPC   H2R17344   4.955   2.680   6.993 -0.1246 -0.4775 -0.6446
  146DOPC   H2S17345   5.047   2.829   6.946  0.3456 -1.7130 -1.4074
  146DOPC    C317346   4.899   3.206   7.178 -0.2441 -0.4310  0.0761
  146DOPC    HX17347   4.978   3.218   7.255  0.2416  0.7334 -0.5704
  146DOPC    HY17348   4.818   3.271   7.217  1.0723 -0.9366  4.0407
  146DOPC   O3117349   4.946   3.251   7.043  0.5096  0.0670  0.1224
  146DOPC   C3117350   5.068   3.208   7.011  0.8320 -0.1101  0.4633
  146DOPC   O3217351   5.145   3.145   7.078 -0.1353 -0.0947  0.0066
  146DOPC   C3217352   5.081   3.254   6.863  1.1555  0.6394 -0.0920
  146DOPC   H2X17353   5.012   3.180   6.816  1.8078  1.4992 -2.5255
  146DOPC   H2Y17354   5.042   3.358   6.865 -1.2695 -0.1159  3.8468
  146DOPC   C2317355   4.879   2.796   6.822 -0.0763  0.3744 -0.4736
  146DOPC   H3R17356   4.890   2.897   6.777 -0.1162 -0.2552 -1.9689
  146DOPC   H3S17357   4.770   2.779   6.840  0.3616 -1.0676  1.0802
  146DOPC   C2417358   4.935   2.699   6.715 -0.6589 -0.0853  0.1509
  146DOPC   H4R17359   4.947   2.600   6.762 -2.5680 -0.6208 -0.3964
  146DOPC   H4S17360   5.034   2.738   6.683 -1.1242  0.7775 -0.2805
  146DOPC   C2517361   4.838   2.681   6.597 -0.2322 -0.3275 -0.1594
  146DOPC   H5R17362   4.809   2.775   6.544 -0.5290 -0.4877 -0.2794
  146DOPC   H5S17363   4.741   2.636   6.627 -1.0214  1.3650 -0.0520
  146DOPC   C2617364   4.897   2.587   6.489  0.0158 -0.4024  0.6466
  146DOPC   H6R17365   4.920   2.484   6.524  2.5722 -0.1612 -0.0722
  146DOPC   H6S17366   4.988   2.644   6.459 -1.0779  0.9484 -0.2319
  146DOPC   C2717367   4.801   2.582   6.368 -0.0983  0.2505  0.6380
  146DOPC   H7R17368   4.780   2.684   6.330  2.6809  0.3116 -1.0035
  146DOPC   H7S17369   4.702   2.551   6.409 -1.0583 -0.0511 -1.7256
  146DOPC   C2817370   4.855   2.487   6.249  0.3403 -0.3687 -0.5485
  146DOPC   H8R17371   4.767   2.458   6.188  1.4682  1.2432 -3.0805
  146DOPC   H8S17372   4.887   2.397   6.306 -1.7689 -0.8721 -0.0748
  146DOPC   C2917373   4.953   2.551   6.169  0.1496 -0.1177 -0.3054
  146DOPC   H9R17374   5.047   2.577   6.220 -0.5586  0.6208  0.6769
  146DOPC  C21017375   4.942   2.586   6.037  0.1461 -0.0806  0.3155
  146DOPC  H10R17376   5.031   2.637   5.999  0.8920  0.8490  3.0692
  146DOPC  C21117377   4.829   2.565   5.936 -0.8001  0.4864  0.4907
  146DOPC  H11R17378   4.776   2.660   5.913 -2.7848 -1.4265 -3.9161
  146DOPC  H11S17379   4.744   2.508   5.979  0.6256 -3.2809 -1.1959
  146DOPC  C21217380   4.871   2.486   5.807 -0.0026 -0.4028  0.6123
  146DOPC  H12R17381   4.892   2.380   5.833 -1.4215 -0.1543  2.9973
  146DOPC  H12S17382   4.970   2.519   5.767  0.2676 -1.3128  0.4938
  146DOPC  C21317383   4.758   2.476   5.702 -0.5645  0.4482  0.2892
  146DOPC  H13R17384   4.786   2.517   5.603 -1.1897  0.0757 -0.0444
  146DOPC  H13S17385   4.675   2.533   5.749  0.8797  1.6886  1.4288
  146DOPC  C21417386   4.710   2.335   5.662  0.1933 -0.5300  0.0714
  146DOPC  H14R17387   4.649   2.297   5.747 -1.8428  2.6243  0.2135
  146DOPC  H14S17388   4.806   2.280   5.651  1.6963  1.6839  1.4370
  146DOPC  C21517389   4.629   2.312   5.534  0.0756  0.0222 -0.2983
  146DOPC  H15R17390   4.682   2.366   5.453  0.0307 -0.4174 -0.6200
  146DOPC  H15S17391   4.529   2.349   5.565 -0.9454 -1.9264 -1.1118
  146DOPC  C21617392   4.601   2.167   5.496 -0.0463  0.2242 -1.0693
  146DOPC  H16R17393   4.704   2.123   5.494  0.3340  1.0917 -0.9295
  146DOPC  H16S17394   4.563   2.156   5.392  0.8200 -1.5369 -1.2469
  146DOPC  C21717395   4.517   2.093   5.597  0.2745  0.2994  0.5658
  146DOPC  H17R17396   4.431   2.160   5.617 -1.4427 -1.0228 -1.8660
  146DOPC  H17S17397   4.568   2.082   5.695  0.6894  0.8450  0.4143
  146DOPC  C21817398   4.475   1.958   5.551  0.4672  0.0388 -0.1395
  146DOPC  H18R17399   4.426   1.898   5.631  0.6723 -0.5014 -0.4161
  146DOPC  H18S17400   4.569   1.906   5.526  0.2750 -0.3127 -0.1307
  146DOPC  H18T17401   4.401   1.971   5.469  0.4755  1.3602  0.0311
  146DOPC   C3317402   5.222   3.227   6.803  0.4279 -0.7860 -0.2350
  146DOPC   H3X17403   5.303   3.240   6.877 -0.3828  0.9939  0.3877
  146DOPC   H3Y17404   5.249   3.292   6.717 -0.8355  0.6220  0.3900
  146DOPC   C3417405   5.227   3.088   6.735 -0.3138 -0.1260 -0.0775
  146DOPC   H4X17406   5.183   3.015   6.807 -0.7235  1.4605  1.3554
  146DOPC   H4Y17407   5.336   3.070   6.726 -0.3444  0.4629 -1.9486
  146DOPC   C3517408   5.154   3.088   6.598 -0.2725  0.0973 -0.5150
  146DOPC   H5X17409   5.169   3.191   6.559  0.9017  0.1184 -0.0365
  146DOPC   H5Y17410   5.047   3.059   6.602 -0.1538 -0.2186  0.9786
  146DOPC   C3617411   5.211   2.992   6.491  0.6176 -0.7256  0.0140
  146DOPC   H6X17412   5.321   3.007   6.480  0.2871  1.2086 -1.1648
  146DOPC   H6Y17413   5.188   2.893   6.535 -0.2325 -0.6609 -0.2826
  146DOPC   C3717414   5.147   3.026   6.360  0.4370  1.0764  0.8715
  146DOPC   H7X17415   5.041   3.040   6.389 -0.4859 -1.2365 -1.0352
  146DOPC   H7Y17416   5.176   3.124   6.317  1.5367  0.8948  1.1434
  146DOPC   C3817417   5.140   2.921   6.246  0.0666  0.0439  0.4337
  146DOPC   H8X17418   5.062   2.944   6.170 -1.3422  0.3897  1.9197
  146DOPC   H8Y17419   5.112   2.825   6.296  0.6739 -0.5880 -0.4091
  146DOPC   C3917420   5.273   2.884   6.175  0.3117 -0.4071 -0.0946
  146DOPC   H9X17421   5.352   2.861   6.248 -1.3290 -1.0530  1.5393
  146DOPC  C31017422   5.287   2.874   6.041  0.1534  0.6662 -0.2030
  146DOPC  H10X17423   5.379   2.844   5.990 -0.0759 -1.2030  0.4223
  146DOPC  C31117424   5.166   2.895   5.953 -0.6109 -0.1167  0.8529
  146DOPC  H11X17425   5.145   3.002   5.933 -0.9473 -0.5955 -1.6450
  146DOPC  H11Y17426   5.075   2.848   5.995 -0.9461 -0.3731 -0.1323
  146DOPC  C31217427   5.204   2.847   5.811  0.2171  0.4465 -0.7180
  146DOPC  H12X17428   5.223   2.737   5.813  0.2175  0.3582 -3.0730
  146DOPC  H12Y17429   5.295   2.897   5.771  1.0413  1.9981  2.7319
  146DOPC  C31317430   5.081   2.870   5.723  0.3853 -0.0597  0.4799
  146DOPC  H13X17431   4.989   2.840   5.778  0.0416 -0.4214 -0.2733
  146DOPC  H13Y17432   5.063   2.979   5.714 -1.0150 -0.3440 -0.4781
  146DOPC  C31417433   5.087   2.794   5.591  1.1367  0.1901  0.3334
  146DOPC  H14X17434   5.184   2.801   5.537  1.8848 -1.3735  1.4189
  146DOPC  H14Y17435   5.073   2.686   5.613  1.6845  0.0085 -0.1849
  146DOPC  C31517436   4.964   2.821   5.489  0.0572 -0.8357 -0.7310
  146DOPC  H15X17437   4.979   2.924   5.450 -0.3520 -0.0548  1.1036
  146DOPC  H15Y17438   4.871   2.819   5.550 -0.0751 -0.2554 -0.9061
  146DOPC  C31617439   4.948   2.721   5.375 -0.3576 -0.3363 -0.5707
  146DOPC  H16X17440   5.034   2.712   5.305 -0.6304  0.3436 -1.0018
  146DOPC  H16Y17441   4.930   2.626   5.431 -1.8157  0.9932  1.3497
  146DOPC  C31717442   4.828   2.739   5.283 -0.8962  0.1425  0.8508
  146DOPC  H17X17443   4.851   2.830   5.224  1.0843  0.6983  2.3424
  146DOPC  H17Y17444   4.832   2.654   5.212 -0.7389  2.2581 -1.8310
  146DOPC  C31817445   4.697   2.750   5.352 -0.5782 -0.3477 -0.0564
  146DOPC  H18X17446   4.610   2.743   5.283 -0.1087  0.4931 -0.7605
  146DOPC  H18Y17447   4.688   2.672   5.430 -1.4262  0.6107  0.8339
  146DOPC  H18Z17448   4.691   2.850   5.400  0.2647 -0.9320  1.3117
  147DOPC     N17449   2.452   2.265   7.123  0.0447 -0.3696  0.7877
  147DOPC   C1217450   2.344   2.180   7.054 -0.1328 -0.0829 -0.2208
  147DOPC  H12A17451   2.361   2.190   6.947  1.8701 -0.6972  0.0125
  147DOPC  H12B17452   2.249   2.227   7.076 -0.2865  0.5524 -2.0091
  147DOPC   C1317453   2.583   2.224   7.077 -0.2002  0.2231  0.7818
  147DOPC  H13A17454   2.665   2.266   7.132  2.1216 -2.0791 -0.7112
  147DOPC  H13B17455   2.586   2.116   7.078 -1.5642  0.1647  0.2806
  147DOPC  H13C17456   2.598   2.248   6.973 -0.9145  0.3578  0.7054
  147DOPC   C1417457   2.446   2.265   7.268  0.3080  0.2167 -0.3194
  147DOPC  H14A17458   2.529   2.317   7.312 -0.3972 -0.9495  2.6437
  147DOPC  H14B17459   2.353   2.301   7.309  0.7246  0.7868  0.1461
  147DOPC  H14C17460   2.446   2.163   7.303  1.9540  0.5340  0.7263
  147DOPC   C1517461   2.422   2.409   7.071  0.1886  0.6311 -0.4839
  147DOPC  H15A17462   2.337   2.450   7.123 -0.2819 -1.2117  0.2786
  147DOPC  H15B17463   2.407   2.399   6.964 -1.0621 -1.1804 -0.1976
  147DOPC  H15C17464   2.511   2.467   7.089  0.2927  0.9247 -1.8141
  147DOPC   C1117465   2.343   2.024   7.076  0.2237 -0.7181  0.7784
  147DOPC  H11A17466   2.358   2.021   7.186  0.5604  1.4939  0.8449
  147DOPC  H11B17467   2.246   1.977   7.048 -0.3792  1.4085 -0.9817
  147DOPC     P17468   2.460   1.933   6.861 -0.1075  0.6031 -0.2662
  147DOPC   O1317469   2.420   1.795   6.830 -0.2235  0.1279  0.0192
  147DOPC   O1417470   2.599   1.964   6.828  0.5666 -0.0822 -0.5449
  147DOPC   O1217471   2.446   1.951   7.016 -0.6809  0.6149 -0.3022
  147DOPC   O1117472   2.369   2.038   6.796  0.7751  0.3961 -0.6259
  147DOPC    C117473   2.287   2.007   6.683  0.6671  0.0255  0.1882
  147DOPC    HA17474   2.225   2.097   6.660  1.9535  0.9518  0.2198
  147DOPC    HB17475   2.209   1.930   6.703 -0.2537  1.3292  1.9734
  147DOPC    C217476   2.366   1.982   6.555  0.0522  0.2464 -0.0764
  147DOPC    HS17477   2.429   1.890   6.563  1.6381  1.4332  2.1495
  147DOPC   O2117478   2.446   2.094   6.518  0.4148 -0.0359 -0.1099
  147DOPC   C2117479   2.538   2.068   6.425 -0.4673 -0.0138  0.4675
  147DOPC   O2217480   2.577   1.954   6.392  0.2375 -0.3171 -0.1787
  147DOPC   C2217481   2.608   2.195   6.380 -0.3661 -0.3902  0.1892
  147DOPC   H2R17482   2.657   2.250   6.463  2.2282 -0.7321 -1.0105
  147DOPC   H2S17483   2.527   2.249   6.327  0.1441  0.0493 -0.1483
  147DOPC    C317484   2.264   1.953   6.440  0.9018  0.7443  0.5912
  147DOPC    HX17485   2.207   1.864   6.476  1.3411 -1.1035 -2.8425
  147DOPC    HY17486   2.306   1.917   6.344 -1.5976 -2.4237  0.4888
  147DOPC   O3117487   2.180   2.067   6.419 -0.5222  0.1201  0.3866
  147DOPC   C3117488   2.225   2.163   6.329 -0.1844  0.8229 -0.2057
  147DOPC   O3217489   2.328   2.159   6.264 -0.2283  0.2215 -0.0817
  147DOPC   C3217490   2.115   2.272   6.323 -0.4424  0.2798 -0.9252
  147DOPC   H2X17491   2.014   2.225   6.316 -0.4763 -0.5103  2.7754
  147DOPC   H2Y17492   2.125   2.326   6.420  2.2244 -1.9620  0.1596
  147DOPC   C2317493   2.714   2.174   6.264 -0.3911 -0.4040  0.2754
  147DOPC   H3R17494   2.808   2.119   6.287  1.0396  1.4292 -0.9474
  147DOPC   H3S17495   2.750   2.274   6.234  1.6417 -1.8794 -2.7744
  147DOPC   C2417496   2.652   2.120   6.135 -0.1248 -1.0507 -0.7197
  147DOPC   H4R17497   2.572   2.191   6.107  1.4043  1.1385  0.1759
  147DOPC   H4S17498   2.602   2.025   6.163 -0.9296 -0.5386 -0.3677
  147DOPC   C2517499   2.749   2.113   6.016 -0.6729  0.0198 -0.8082
  147DOPC   H5R17500   2.812   2.024   6.038 -0.0282  0.4633 -0.8328
  147DOPC   H5S17501   2.821   2.198   6.022 -0.0907 -0.4653 -0.8238
  147DOPC   C2617502   2.676   2.105   5.880  0.0490  0.4114 -0.0233
  147DOPC   H6R17503   2.583   2.165   5.871  0.3345  0.9830  0.7134
  147DOPC   H6S17504   2.643   2.001   5.861  0.3495  0.0570  1.3224
  147DOPC   C2717505   2.768   2.159   5.767 -0.0259  0.1317 -0.8645
  147DOPC   H7R17506   2.857   2.093   5.756  0.1242  0.2911 -0.6121
  147DOPC   H7S17507   2.813   2.249   5.812 -1.3704  0.2061  0.4050
  147DOPC   C2817508   2.683   2.178   5.641 -0.6934 -0.2887 -0.1411
  147DOPC   H8R17509   2.605   2.250   5.674  0.5871  0.2469  1.8725
  147DOPC   H8S17510   2.624   2.084   5.633 -0.1320 -0.6100 -0.5623
  147DOPC   C2917511   2.772   2.196   5.513 -0.0133  0.1218 -0.0558
  147DOPC   H9R17512   2.868   2.143   5.506 -1.1909 -2.0835 -0.2629
  147DOPC  C21017513   2.734   2.268   5.405  0.2924 -0.2445  0.1474
  147DOPC  H10R17514   2.802   2.269   5.319  1.7114 -2.2885  1.1431
  147DOPC  C21117515   2.600   2.335   5.395 -0.0541  0.4124 -0.2500
  147DOPC  H11R17516   2.603   2.439   5.435 -0.5265 -1.0102  4.0578
  147DOPC  H11S17517   2.526   2.284   5.461  2.5349 -1.4942  1.3953
  147DOPC  C21217518   2.548   2.342   5.254 -0.3385 -0.0128 -0.1535
  147DOPC  H12R17519   2.546   2.238   5.217  1.9294 -0.0990 -0.1760
  147DOPC  H12S17520   2.628   2.392   5.194 -0.1759  0.8492  0.7535
  147DOPC  C21317521   2.411   2.402   5.224 -0.1340  0.0832 -0.8821
  147DOPC  H13R17522   2.411   2.423   5.115  0.2699  0.7335 -0.7618
  147DOPC  H13S17523   2.414   2.496   5.283 -1.5128 -0.4321  0.0682
  147DOPC  C21417524   2.288   2.322   5.274  0.0209  0.1115  0.4970
  147DOPC  H14R17525   2.214   2.402   5.294 -0.4467 -0.2796  0.3624
  147DOPC  H14S17526   2.326   2.279   5.369 -0.5125 -0.0900  0.6211
  147DOPC  C21517527   2.219   2.226   5.173 -0.2293  0.7723 -0.4697
  147DOPC  H15R17528   2.296   2.158   5.132 -1.1135  0.0055 -0.8992
  147DOPC  H15S17529   2.169   2.274   5.087 -0.7559 -2.4902 -2.1573
  147DOPC  C21617530   2.101   2.145   5.239 -0.4782 -0.4454  0.2528
  147DOPC  H16R17531   2.030   2.224   5.271 -1.7807 -0.3656 -2.5338
  147DOPC  H16S17532   2.140   2.085   5.324 -2.2580 -1.2907  0.5032
  147DOPC  C21717533   2.030   2.052   5.137 -0.9609  0.3420 -0.5626
  147DOPC  H17R17534   1.967   1.982   5.197 -3.3043  1.6055 -1.4151
  147DOPC  H17S17535   2.112   1.993   5.092 -0.0980  0.4521  0.7950
  147DOPC  C21817536   1.960   2.132   5.034  0.2186 -0.6072  0.9085
  147DOPC  H18R17537   2.015   2.170   4.944 -2.5366  1.7439  0.0748
  147DOPC  H18S17538   1.895   2.207   5.083  0.5302  0.3132 -0.0395
  147DOPC  H18T17539   1.889   2.070   4.975  1.6089 -0.0318 -1.5445
  147DOPC   C3317540   2.126   2.363   6.200  0.3789  0.5162 -0.0431
  147DOPC   H3X17541   2.230   2.399   6.188  0.8060 -0.7361 -0.2846
  147DOPC   H3Y17542   2.052   2.444   6.221 -1.5772 -0.4982 -2.4514
  147DOPC   C3417543   2.092   2.289   6.065  0.3211 -0.1950  0.5601
  147DOPC   H4X17544   2.150   2.195   6.060  1.0678  0.3377 -1.9387
  147DOPC   H4Y17545   2.138   2.349   5.984  0.8342 -2.7059 -1.1213
  147DOPC   C3517546   1.938   2.263   6.057 -0.0669  0.4707  0.3291
  147DOPC   H5X17547   1.882   2.350   6.098 -2.0441  0.7327 -2.6264
  147DOPC   H5Y17548   1.924   2.173   6.120  1.0545 -0.9430 -1.3536
  147DOPC   C3617549   1.878   2.236   5.913  0.8836 -0.3092  1.0602
  147DOPC   H6X17550   1.894   2.332   5.860 -0.8822 -1.6535 -2.1436
  147DOPC   H6Y17551   1.939   2.160   5.860  0.5988  0.4504 -0.3978
  147DOPC   C3717552   1.728   2.203   5.921 -0.2552  0.6754 -0.3583
  147DOPC   H7X17553   1.699   2.128   5.998 -1.5536 -0.5682 -1.9875
  147DOPC   H7Y17554   1.677   2.301   5.931  0.5121  0.9070  1.7335
  147DOPC   C3817555   1.684   2.134   5.792 -0.1549  0.0087  0.2685
  147DOPC   H8X17556   1.693   2.210   5.711  0.8439 -0.3139  0.0665
  147DOPC   H8Y17557   1.577   2.106   5.793 -0.2244  0.1640 -0.8399
  147DOPC   C3917558   1.748   2.001   5.756  0.0968  0.4008 -0.0709
  147DOPC   H9X17559   1.724   1.919   5.826  0.1887 -0.3143 -0.8641
  147DOPC  C31017560   1.821   1.967   5.655 -0.0306  0.2862  0.3165
  147DOPC  H10X17561   1.853   1.862   5.648 -2.0357 -0.2643 -2.3678
  147DOPC  C31117562   1.857   2.063   5.546 -0.4827  0.2604  0.0895
  147DOPC  H11X17563   1.943   2.031   5.484 -0.3444 -1.5807  1.1755
  147DOPC  H11Y17564   1.898   2.152   5.598  1.1189 -2.3631  3.7188
  147DOPC  C31217565   1.742   2.108   5.448 -0.2485  0.0717  0.1495
  147DOPC  H12X17566   1.783   2.197   5.395  0.7349 -0.1445  0.5086
  147DOPC  H12Y17567   1.648   2.145   5.495 -0.6224 -1.1011  0.3465
  147DOPC  C31317568   1.709   2.001   5.347 -1.2019  0.2704 -0.3516
  147DOPC  H13X17569   1.799   1.937   5.330 -1.4400  0.0866 -0.9291
  147DOPC  H13Y17570   1.646   1.924   5.396  1.4940 -2.3892 -0.7245
  147DOPC  C31417571   1.654   2.060   5.222  0.2377 -0.1953  0.1247
  147DOPC  H14X17572   1.560   2.109   5.258  0.2657 -0.7536  0.9781
  147DOPC  H14Y17573   1.730   2.130   5.181  3.1012 -2.3041  1.5830
  147DOPC  C31517574   1.620   1.963   5.108 -0.3003 -0.1237 -0.7126
  147DOPC  H15X17575   1.715   1.925   5.066  0.2084  0.8511 -0.4727
  147DOPC  H15Y17576   1.568   2.013   5.023 -0.9996  0.1888 -0.1134
  147DOPC  C31617577   1.530   1.847   5.155 -0.2564 -0.0107 -0.2567
  147DOPC  H16X17578   1.570   1.800   5.247 -2.9596 -2.2009 -0.0762
  147DOPC  H16Y17579   1.438   1.894   5.196  1.0036 -0.4149  3.4221
  147DOPC  C31717580   1.513   1.751   5.040 -0.0982  0.1966  0.0164
  147DOPC  H17X17581   1.466   1.810   4.959 -2.4385 -1.0528  0.3680
  147DOPC  H17Y17582   1.606   1.700   5.007 -0.8196 -1.6480  0.6451
  147DOPC  C31817583   1.417   1.628   5.072 -0.1013 -0.0031 -0.3214
  147DOPC  H18X17584   1.397   1.568   4.980 -0.0038 -1.2985  0.4734
  147DOPC  H18Y17585   1.453   1.564   5.155 -1.3632 -1.6759 -0.9993
  147DOPC  H18Z17586   1.316   1.669   5.095 -0.6332 -0.6640 -1.3786
  148DOPC     N17587   2.245   4.271   6.725  0.4240 -0.5735  0.8800
  148DOPC   C1217588   2.351   4.382   6.712  0.2223 -0.6086  0.9953
  148DOPC  H12A17589   2.379   4.373   6.608 -1.6637  1.1266  0.2588
  148DOPC  H12B17590   2.443   4.361   6.764  1.0663  0.9341  0.2187
  148DOPC   C1317591   2.155   4.291   6.840  0.0171 -0.5973 -0.3174
  148DOPC  H13A17592   2.102   4.200   6.864  0.5648 -0.5717  1.0634
  148DOPC  H13B17593   2.210   4.317   6.929  1.5714 -0.4759 -1.2826
  148DOPC  H13C17594   2.084   4.371   6.822  0.3954 -0.4423 -1.1904
  148DOPC   C1417595   2.318   4.148   6.753  0.2741  0.6286  0.5153
  148DOPC  H14A17596   2.257   4.062   6.779 -1.0835  0.7848 -1.8531
  148DOPC  H14B17597   2.382   4.121   6.671  1.2601 -1.1642  1.8024
  148DOPC  H14C17598   2.371   4.172   6.844  0.5838 -1.8718  1.0830
  148DOPC   C1517599   2.158   4.269   6.607 -0.2302  0.3541  0.6885
  148DOPC  H15A17600   2.102   4.177   6.603  2.3111 -1.2988  0.7560
  148DOPC  H15B17601   2.226   4.266   6.524 -0.5323 -0.2467  0.4564
  148DOPC  H15C17602   2.101   4.361   6.601  2.0392  1.7941  0.1341
  148DOPC   C1117603   2.297   4.531   6.720  0.5300 -0.2022 -0.0113
  148DOPC  H11A17604   2.271   4.545   6.827 -0.2790  0.1727 -0.2516
  148DOPC  H11B17605   2.382   4.598   6.695 -0.2346  1.0434  0.6407
  148DOPC     P17606   2.114   4.697   6.648 -0.0511  0.0108 -0.0585
  148DOPC   O1317607   2.212   4.802   6.686 -0.8085  0.0114  0.2577
  148DOPC   O1417608   2.004   4.678   6.742 -0.5390 -0.2561  0.1578
  148DOPC   O1217609   2.185   4.558   6.638  0.2406 -0.1695  0.0507
  148DOPC   O1117610   2.050   4.726   6.507 -0.2980  0.3961 -0.1487
  148DOPC    C117611   2.112   4.801   6.405  0.4142 -0.0036  0.6990
  148DOPC    HA17612   2.216   4.837   6.426 -0.4535  2.6489  0.8600
  148DOPC    HB17613   2.061   4.899   6.389 -0.7153 -0.6871  0.0389
  148DOPC    C217614   2.108   4.724   6.270 -0.4630 -0.0549  0.2989
  148DOPC    HS17615   2.163   4.781   6.192  0.4964 -0.8063  0.4007
  148DOPC   O2117616   1.978   4.688   6.228  0.3817 -0.1336  0.6689
  148DOPC   C2117617   1.891   4.770   6.197  0.2799 -0.2882 -0.3485
  148DOPC   O2217618   1.892   4.895   6.209  0.0688 -0.1118  0.2400
  148DOPC   C2217619   1.768   4.680   6.161 -0.5091 -0.1634  0.2212
  148DOPC   H2R17620   1.736   4.615   6.245  0.2176  1.2900  1.6623
  148DOPC   H2S17621   1.795   4.614   6.076  0.4566 -0.3094  0.6254
  148DOPC    C317622   2.191   4.594   6.279  0.2232  0.1810  0.3991
  148DOPC    HX17623   2.190   4.561   6.172  1.7836  1.9120 -0.2054
  148DOPC    HY17624   2.126   4.519   6.329 -1.4108  1.6708  0.6373
  148DOPC   O3117625   2.325   4.613   6.335 -0.5099 -0.8327 -0.3583
  148DOPC   C3117626   2.402   4.516   6.337  0.0280  0.4792  0.9105
  148DOPC   O3217627   2.388   4.414   6.268 -0.3177  0.7774 -0.1823
  148DOPC   C3217628   2.524   4.533   6.430 -0.0606 -0.8110  0.1321
  148DOPC   H2X17629   2.489   4.597   6.514  1.3524  0.5507 -0.2725
  148DOPC   H2Y17630   2.552   4.433   6.470  0.7503 -0.3851  0.6433
  148DOPC   C2317631   1.651   4.761   6.110  0.8638 -0.2706 -0.1286
  148DOPC   H3R17632   1.617   4.834   6.187 -0.2294 -1.9713  1.0671
  148DOPC   H3S17633   1.566   4.693   6.089  1.0774 -0.7849  0.6335
  148DOPC   C2417634   1.686   4.844   5.980  0.4187  0.1513  0.2052
  148DOPC   H4R17635   1.790   4.883   5.988  2.4051 -4.4085 -0.3367
  148DOPC   H4S17636   1.610   4.925   5.974  0.5510  0.3382  0.9729
  148DOPC   C2517637   1.682   4.773   5.844 -0.0032 -0.1855  0.1607
  148DOPC   H5R17638   1.577   4.737   5.842 -0.0082 -0.4704  2.5374
  148DOPC   H5S17639   1.738   4.678   5.833 -0.9804 -0.6391 -1.1550
  148DOPC   C2617640   1.727   4.866   5.733  0.0053  0.2254  0.3400
  148DOPC   H6R17641   1.832   4.894   5.756  0.4316 -0.8576 -0.2002
  148DOPC   H6S17642   1.667   4.959   5.746 -1.4119 -0.6759  0.4634
  148DOPC   C2717643   1.712   4.807   5.588 -0.1891 -0.1270  0.4086
  148DOPC   H7R17644   1.605   4.790   5.562 -0.2129 -0.6165  0.8020
  148DOPC   H7S17645   1.758   4.706   5.581 -0.1197 -0.1691  1.3067
  148DOPC   C2817646   1.782   4.889   5.484  0.0894  0.0668 -0.2497
  148DOPC   H8R17647   1.885   4.915   5.516  0.0779 -0.9304  0.6720
  148DOPC   H8S17648   1.724   4.982   5.467 -0.8055 -0.2687  0.8572
  148DOPC   C2917649   1.786   4.803   5.354  0.1059 -0.4351  0.0453
  148DOPC   H9R17650   1.688   4.789   5.305  0.9631 -0.6880 -1.6305
  148DOPC  C21017651   1.893   4.754   5.293 -0.4141  0.6756 -0.2175
  148DOPC  H10R17652   1.888   4.681   5.211  1.1846 -1.6433  1.6018
  148DOPC  C21117653   2.031   4.780   5.342  0.4067 -0.0605  0.2821
  148DOPC  H11R17654   2.032   4.798   5.452 -1.5659 -1.5421  0.6004
  148DOPC  H11S17655   2.072   4.877   5.306 -0.9227  2.5410  4.9903
  148DOPC  C21217656   2.124   4.661   5.312  0.5776  0.1812 -0.3082
  148DOPC  H12R17657   2.104   4.605   5.218  1.2261  1.1771 -1.0616
  148DOPC  H12S17658   2.112   4.589   5.396  2.1676 -1.0931 -1.1080
  148DOPC  C21317659   2.276   4.706   5.304 -0.5286 -0.7055 -0.2298
  148DOPC  H13R17660   2.311   4.754   5.398  1.0713 -2.3023  0.0431
  148DOPC  H13S17661   2.276   4.786   5.226  3.2497 -1.1600 -0.9259
  148DOPC  C21417662   2.372   4.594   5.269 -0.4923  0.0467 -0.5841
  148DOPC  H14R17663   2.331   4.507   5.213 -0.0442 -1.4042  1.2457
  148DOPC  H14S17664   2.424   4.553   5.358  1.2096 -0.9837 -1.9754
  148DOPC  C21517665   2.479   4.658   5.174 -0.4319 -0.2930  0.5354
  148DOPC  H15R17666   2.512   4.751   5.225 -1.6088 -0.7088  2.1381
  148DOPC  H15S17667   2.437   4.673   5.073  0.0868  0.8351  0.4776
  148DOPC  C21617668   2.595   4.560   5.160 -0.8422  0.6848  0.4223
  148DOPC  H16R17669   2.544   4.473   5.114 -0.2830  0.7112 -0.2725
  148DOPC  H16S17670   2.638   4.525   5.256 -0.5854 -1.8471 -0.5573
  148DOPC  C21717671   2.700   4.614   5.070 -0.0385 -0.1831 -0.1954
  148DOPC  H17R17672   2.733   4.716   5.101 -0.0612 -0.2828  0.1564
  148DOPC  H17S17673   2.645   4.627   4.974 -1.0084 -1.4379  0.1602
  148DOPC  C21817674   2.825   4.534   5.056 -0.0438 -0.3422 -0.4753
  148DOPC  H18R17675   2.794   4.428   5.046  1.2938 -0.7108 -0.8545
  148DOPC  H18S17676   2.895   4.554   5.140 -0.7180  0.3468 -0.0598
  148DOPC  H18T17677   2.883   4.556   4.964  0.5950 -3.5732 -0.9389
  148DOPC   C3317678   2.637   4.610   6.360 -0.1015  0.5699 -0.7749
  148DOPC   H3X17679   2.707   4.638   6.442 -0.3852 -2.6350  0.7355
  148DOPC   H3Y17680   2.596   4.692   6.297  3.1967  1.3086 -2.1794
  148DOPC   C3417681   2.714   4.528   6.254 -0.3037 -0.3962 -0.1986
  148DOPC   H4X17682   2.644   4.477   6.184  0.2062 -1.7636  0.2699
  148DOPC   H4Y17683   2.778   4.453   6.304 -0.1852  1.6938  3.0732
  148DOPC   C3517684   2.804   4.625   6.176  0.1076  0.0573  0.3304
  148DOPC   H5X17685   2.858   4.692   6.247  1.6195  1.0827 -1.6839
  148DOPC   H5Y17686   2.759   4.704   6.113 -0.4268 -0.2562  0.3132
  148DOPC   C3617687   2.910   4.561   6.087 -0.4342  0.1070 -0.1846
  148DOPC   H6X17688   2.941   4.471   6.144 -2.4083 -1.2290 -1.1263
  148DOPC   H6Y17689   2.867   4.525   5.992 -3.4288 -1.2573  1.5592
  148DOPC   C3717690   3.032   4.662   6.055  0.4096  0.0444 -0.4708
  148DOPC   H7X17691   3.043   4.710   6.154 -1.5877 -1.3487  0.4921
  148DOPC   H7Y17692   3.125   4.609   6.026 -0.5503 -1.9597 -0.0115
  148DOPC   C3817693   2.995   4.772   5.951  0.1880  0.0943 -0.1810
  148DOPC   H8X17694   3.088   4.829   5.930 -0.1576  0.5221 -0.5546
  148DOPC   H8Y17695   2.922   4.842   5.995  0.2101 -1.0775  1.8720
  148DOPC   C3917696   2.945   4.707   5.824  0.3319  0.0480 -0.8625
  148DOPC   H9X17697   2.835   4.712   5.826  0.2994 -0.5333 -0.8431
  148DOPC  C31017698   3.020   4.647   5.733 -0.3055  0.3904  0.1835
  148DOPC  H10X17699   2.967   4.602   5.648 -0.8960  0.9614  0.2466
  148DOPC  C31117700   3.173   4.639   5.735  0.4283  0.6840  0.0281
  148DOPC  H11X17701   3.209   4.540   5.700  0.8739  0.8645 -0.0324
  148DOPC  H11Y17702   3.215   4.664   5.835 -0.9155 -0.2351  0.8538
  148DOPC  C31217703   3.225   4.751   5.635  0.4124  1.0263  0.3335
  148DOPC  H12X17704   3.320   4.790   5.677 -0.3563  0.4628  2.7495
  148DOPC  H12Y17705   3.149   4.832   5.640 -1.4715 -0.4323 -2.1460
  148DOPC  C31317706   3.247   4.705   5.492 -1.0178 -0.3575 -0.3640
  148DOPC  H13X17707   3.294   4.604   5.497  0.6255  0.3556 -0.7662
  148DOPC  H13Y17708   3.144   4.709   5.452 -0.8829  0.8839 -0.6274
  148DOPC  C31417709   3.335   4.800   5.424 -0.5277 -1.0627  0.0432
  148DOPC  H14X17710   3.430   4.806   5.480 -0.3948  0.9589 -0.3219
  148DOPC  H14Y17711   3.358   4.753   5.325 -0.3652 -1.1788  0.1362
  148DOPC  C31517712   3.277   4.939   5.414  0.3727  0.3155 -0.2506
  148DOPC  H15X17713   3.301   5.001   5.503  1.3550 -1.4459  0.7608
  148DOPC  H15Y17714   3.167   4.925   5.408  0.5576 -0.9270 -1.1018
  148DOPC  C31617715   3.331   5.016   5.289 -0.4808  0.1024 -0.1753
  148DOPC  H16X17716   3.301   4.955   5.201  1.4427 -0.4251 -0.5131
  148DOPC  H16Y17717   3.282   5.115   5.280 -0.3915  0.1776  0.1591
  148DOPC  C31717718   3.475   5.051   5.298 -0.8671  0.0690 -0.6037
  148DOPC  H17X17719   3.500   5.090   5.399 -0.6669  0.3728 -0.7702
  148DOPC  H17Y17720   3.529   4.955   5.280 -0.1839  0.8204 -2.8515
  148DOPC  C31817721   3.522   5.157   5.195 -0.7499 -0.2906  0.4297
  148DOPC  H18X17722   3.503   5.108   5.097 -1.1382  0.2753  0.2152
  148DOPC  H18Y17723   3.463   5.251   5.194  1.4251  1.1473 -0.2259
  148DOPC  H18Z17724   3.628   5.183   5.215 -0.4557  0.1306 -1.5115
  149DOPC     N17725   2.990   2.600   7.262  0.3079 -0.5457 -0.1117
  149DOPC   C1217726   2.939   2.588   7.120  0.0981  0.3395 -0.7441
  149DOPC  H12A17727   3.018   2.542   7.062 -0.2683  1.0422 -1.8302
  149DOPC  H12B17728   2.947   2.684   7.070  0.1470  0.3406 -0.7343
  149DOPC   C1317729   3.131   2.645   7.254  0.4033  0.0439 -0.4524
  149DOPC  H13A17730   3.164   2.679   7.351  1.1506 -0.3769 -0.5491
  149DOPC  H13B17731   3.205   2.578   7.213  1.7434  0.5574  1.0333
  149DOPC  H13C17732   3.129   2.741   7.205  1.9660  1.4070  1.9285
  149DOPC   C1417733   2.990   2.471   7.333  0.9594 -0.5090  0.2081
  149DOPC  H14A17734   3.044   2.493   7.424 -0.7883 -1.3410  1.4964
  149DOPC  H14B17735   2.886   2.448   7.351  0.2264  1.3418 -1.2450
  149DOPC  H14C17736   3.033   2.401   7.264  4.7838  1.5265  0.2693
  149DOPC   C1517737   2.912   2.692   7.346  0.0569 -0.0611 -0.5856
  149DOPC  H15A17738   2.814   2.648   7.340  0.8705 -2.1003  0.4106
  149DOPC  H15B17739   2.923   2.794   7.311 -0.7605 -0.1142 -1.0198
  149DOPC  H15C17740   2.946   2.681   7.447 -1.6226 -0.4743 -0.0444
  149DOPC   C1117741   2.803   2.521   7.096 -0.1703  0.0406 -0.8661
  149DOPC  H11A17742   2.799   2.503   6.987  2.5770 -1.6737 -0.7789
  149DOPC  H11B17743   2.793   2.425   7.151  0.2399  1.2678  1.4599
  149DOPC     P17744   2.660   2.744   7.077 -0.0516 -0.2893  0.5080
  149DOPC   O1317745   2.784   2.810   7.032 -0.0927 -1.1435  0.4266
  149DOPC   O1417746   2.578   2.822   7.172  0.3207  0.0958  0.5859
  149DOPC   O1217747   2.695   2.603   7.144  0.1012  0.2530 -0.6913
  149DOPC   O1117748   2.568   2.712   6.954 -0.7579  0.3030  0.2066
  149DOPC    C117749   2.625   2.691   6.825  0.9412 -0.1336  0.0798
  149DOPC    HA17750   2.553   2.627   6.770 -0.6837  1.1339  0.6431
  149DOPC    HB17751   2.727   2.646   6.821  0.7908 -0.3861 -1.4024
  149DOPC    C217752   2.642   2.828   6.749 -0.0631  0.8420 -0.2941
  149DOPC    HS17753   2.692   2.899   6.819 -0.5560  1.1256 -0.2215
  149DOPC   O2117754   2.510   2.880   6.713 -0.1419 -0.1247  0.0596
  149DOPC   C2117755   2.515   3.012   6.693 -0.6037  0.4813  0.0344
  149DOPC   O2217756   2.606   3.080   6.731 -0.6268  0.6017  0.0646
  149DOPC   C2217757   2.383   3.068   6.643  0.8455 -0.3330 -1.0355
  149DOPC   H2R17758   2.394   3.179   6.649 -0.2389 -0.2270 -0.7188
  149DOPC   H2S17759   2.304   3.036   6.714  0.0370  2.0579 -0.7372
  149DOPC    C317760   2.725   2.809   6.618 -0.6527 -0.0487 -0.0080
  149DOPC    HX17761   2.674   2.734   6.554 -0.3487 -0.1708 -0.1069
  149DOPC    HY17762   2.822   2.764   6.646 -0.2097  1.0767  0.3457
  149DOPC   O3117763   2.733   2.930   6.533 -0.1160 -0.1879  0.3987
  149DOPC   C3117764   2.846   2.986   6.520 -0.0231  0.3056 -0.1271
  149DOPC   O3217765   2.952   2.950   6.565 -0.6835 -0.4276  0.7066
  149DOPC   C3217766   2.833   3.117   6.439 -0.0296 -0.7017 -0.0896
  149DOPC   H2X17767   2.728   3.123   6.402 -0.0637 -2.9533 -0.5042
  149DOPC   H2Y17768   2.858   3.205   6.502 -0.9044 -0.5309  0.0369
  149DOPC   C2317769   2.357   3.039   6.499 -0.0473  0.6690 -0.5307
  149DOPC   H3R17770   2.451   3.051   6.441  1.0187  1.6364  1.3002
  149DOPC   H3S17771   2.280   3.107   6.456 -0.5908 -0.3395 -1.1898
  149DOPC   C2417772   2.312   2.901   6.458  0.5784 -0.4060 -0.7622
  149DOPC   H4R17773   2.231   2.881   6.531 -0.5677  2.3202 -1.1637
  149DOPC   H4S17774   2.383   2.818   6.479 -2.4890 -3.3896 -1.3313
  149DOPC   C2517775   2.263   2.894   6.311 -1.0923  0.2997  0.4447
  149DOPC   H5R17776   2.197   2.983   6.299 -1.8476 -0.3536 -0.3708
  149DOPC   H5S17777   2.208   2.801   6.285  0.3310 -0.1487 -1.1872
  149DOPC   C2617778   2.380   2.896   6.202 -0.8921 -0.1802  0.6727
  149DOPC   H6R17779   2.425   2.997   6.202  0.0567 -0.5833 -0.6315
  149DOPC   H6S17780   2.327   2.871   6.108 -1.2335 -1.7271  1.2506
  149DOPC   C2717781   2.480   2.791   6.204 -0.0605  0.5628 -0.7848
  149DOPC   H7R17782   2.564   2.813   6.273  1.5227  1.0307 -2.7643
  149DOPC   H7S17783   2.530   2.797   6.105  1.6704 -0.0614  0.0208
  149DOPC   C2817784   2.421   2.646   6.225 -0.4149 -0.0376  0.1800
  149DOPC   H8R17785   2.355   2.619   6.140  2.8024 -2.1381 -1.8647
  149DOPC   H8S17786   2.360   2.643   6.318  1.6632 -2.0110  1.5954
  149DOPC   C2917787   2.538   2.549   6.228  0.2141 -0.3175 -0.0985
  149DOPC   H9R17788   2.548   2.518   6.333  1.0608 -1.2093 -0.4263
  149DOPC  C21017789   2.635   2.525   6.145  0.4230  0.4647  0.4068
  149DOPC  H10R17790   2.715   2.454   6.171  1.5931  1.7793  0.4738
  149DOPC  C21117791   2.651   2.585   6.016 -0.2489 -0.0969 -0.0231
  149DOPC  H11R17792   2.716   2.672   6.038 -0.8068  0.7011 -1.4073
  149DOPC  H11S17793   2.555   2.621   5.974  0.3687  3.4286  1.2522
  149DOPC  C21217794   2.718   2.491   5.912  0.4959 -0.1137 -0.0856
  149DOPC  H12R17795   2.654   2.407   5.876  0.0145 -0.0672  0.6392
  149DOPC  H12S17796   2.808   2.458   5.969 -0.6683 -0.5758  1.5733
  149DOPC  C21317797   2.778   2.576   5.803  0.4758  0.2431 -0.5315
  149DOPC  H13R17798   2.845   2.652   5.849  0.7586  0.2776 -0.9898
  149DOPC  H13S17799   2.705   2.642   5.752 -0.2039  0.2600  0.4334
  149DOPC  C21417800   2.852   2.499   5.697 -0.2622 -0.3271  0.4339
  149DOPC  H14R17801   2.771   2.432   5.662  1.0122 -2.3275  1.1358
  149DOPC  H14S17802   2.926   2.431   5.744 -0.0850 -0.0842  0.5146
  149DOPC  C21517803   2.924   2.580   5.584 -0.3423  0.1263 -0.0267
  149DOPC  H15R17804   2.968   2.498   5.523 -0.0267 -1.1384  1.8126
  149DOPC  H15S17805   3.008   2.633   5.634 -0.1453 -0.5530  0.3854
  149DOPC  C21617806   2.841   2.677   5.496  0.2283  0.1045 -0.1030
  149DOPC  H16R17807   2.769   2.732   5.561  0.8980  2.0777 -0.9361
  149DOPC  H16S17808   2.776   2.620   5.427  0.4180  0.9568 -1.0177
  149DOPC  C21717809   2.929   2.778   5.428 -1.3544 -0.0968 -0.1073
  149DOPC  H17R17810   2.973   2.741   5.333 -0.6235 -0.6892  0.4552
  149DOPC  H17S17811   3.003   2.829   5.494 -0.6365  0.9270 -1.6432
  149DOPC  C21817812   2.846   2.902   5.376 -0.2897  0.2211  0.5447
  149DOPC  H18R17813   2.911   2.973   5.320  0.6108 -0.9528  0.0730
  149DOPC  H18S17814   2.804   2.961   5.461 -0.9269  1.8763 -0.8539
  149DOPC  H18T17815   2.757   2.869   5.319  0.2527 -0.3408  0.0014
  149DOPC   C3317816   2.925   3.114   6.315 -0.2500 -0.0021  0.9389
  149DOPC   H3X17817   3.019   3.057   6.329  0.9917  1.5778 -0.4825
  149DOPC   H3Y17818   2.948   3.219   6.286  0.2426 -0.2418  0.4423
  149DOPC   C3417819   2.848   3.048   6.198  0.1892 -0.7068  0.1736
  149DOPC   H4X17820   2.747   3.095   6.192  0.9919  1.4674  2.4008
  149DOPC   H4Y17821   2.832   2.939   6.210  1.7260 -1.6077 -4.1724
  149DOPC   C3517822   2.921   3.080   6.068 -0.1030  0.2053 -0.2752
  149DOPC   H5X17823   3.027   3.048   6.067 -0.1141  0.1024  0.8109
  149DOPC   H5Y17824   2.910   3.188   6.046  2.9619  1.3408  2.8873
  149DOPC   C3617825   2.860   2.994   5.959  0.6261  0.0723  0.5525
  149DOPC   H6X17826   2.922   3.013   5.869  0.6863 -1.4665  0.2357
  149DOPC   H6Y17827   2.878   2.887   5.985 -1.0070 -0.0207  1.4408
  149DOPC   C3717828   2.713   3.027   5.922  0.4381 -0.6402 -0.0502
  149DOPC   H7X17829   2.647   2.990   6.004 -0.0370 -0.3904 -0.3165
  149DOPC   H7Y17830   2.702   3.138   5.916 -0.0658 -0.7451 -1.2219
  149DOPC   C3817831   2.662   2.974   5.786  0.1757  0.4709  0.4473
  149DOPC   H8X17832   2.721   2.887   5.747 -1.6744 -0.4732 -0.3650
  149DOPC   H8Y17833   2.685   3.053   5.711 -0.0081 -1.1770 -1.4393
  149DOPC   C3917834   2.521   2.925   5.790  0.5470  0.8344  0.3896
  149DOPC   H9X17835   2.479   2.895   5.887  1.8211 -0.0942  0.6748
  149DOPC  C31017836   2.436   2.913   5.694  0.5460 -0.4130 -0.0470
  149DOPC  H10X17837   2.340   2.862   5.710  0.1976  0.4449  0.7302
  149DOPC  C31117838   2.459   2.950   5.549 -0.9474 -0.3013  0.7639
  149DOPC  H11X17839   2.565   2.967   5.522 -1.1905 -0.9657 -0.7587
  149DOPC  H11Y17840   2.401   3.041   5.525 -0.6613  0.2151  1.9652
  149DOPC  C31217841   2.413   2.833   5.452 -0.1398  0.0567  0.1235
  149DOPC  H12X17842   2.304   2.819   5.468 -0.4113  2.2680  0.4137
  149DOPC  H12Y17843   2.465   2.736   5.470 -2.2934 -1.5136 -1.4635
  149DOPC  C31317844   2.429   2.866   5.305 -0.2666  0.4330  0.4631
  149DOPC  H13X17845   2.532   2.903   5.282 -0.2165 -1.4793 -3.1630
  149DOPC  H13Y17846   2.430   2.767   5.254 -0.9330  1.4655 -1.6774
  149DOPC  C31417847   2.327   2.961   5.246  0.0191  0.0294 -0.4741
  149DOPC  H14X17848   2.233   2.908   5.272  0.0245 -0.7319 -1.9271
  149DOPC  H14Y17849   2.327   3.061   5.295  0.3012 -0.9809  1.7253
  149DOPC  C31517850   2.341   2.977   5.095  0.3231 -0.1893 -0.2675
  149DOPC  H15X17851   2.336   2.881   5.039  0.8234 -0.1611 -0.3663
  149DOPC  H15Y17852   2.440   3.024   5.079  0.1097 -0.1619 -1.6372
  149DOPC  C31617853   2.231   3.070   5.045  0.0368  0.2791 -0.1189
  149DOPC  H16X17854   2.141   3.045   5.105  1.0696 -1.5330  0.7871
  149DOPC  H16Y17855   2.261   3.172   5.073 -1.2068  0.4627  0.6214
  149DOPC  C31717856   2.190   3.065   4.892  0.1124 -0.1435 -0.4613
  149DOPC  H17X17857   2.128   3.154   4.869 -0.1493  0.2561  1.5479
  149DOPC  H17Y17858   2.283   3.083   4.835  0.2241 -0.1510 -0.2855
  149DOPC  C31817859   2.122   2.942   4.842  0.5350  0.2531 -0.3189
  149DOPC  H18X17860   2.018   2.938   4.881 -0.0125  1.9874 -1.4862
  149DOPC  H18Y17861   2.100   2.946   4.733  0.5392  1.4139 -0.2916
  149DOPC  H18Z17862   2.174   2.848   4.868 -1.7448 -1.1300 -0.4726
  150DOPC     N17863   4.284   6.075   7.090  0.3035 -0.1227  0.7578
  150DOPC   C1217864   4.377   6.033   6.978 -0.4112  0.0115 -0.2315
  150DOPC  H12A17865   4.357   5.931   6.948  0.7334 -0.8276  1.6846
  150DOPC  H12B17866   4.477   6.030   7.018  0.3802  1.4767 -1.9239
  150DOPC   C1317867   4.285   5.971   7.195  0.3571 -0.1566  0.0628
  150DOPC  H13A17868   4.252   5.881   7.146 -0.8111  0.9075 -1.1696
  150DOPC  H13B17869   4.385   5.947   7.231  0.7201 -0.3867 -1.0568
  150DOPC  H13C17870   4.213   6.003   7.268 -0.0191 -0.0209 -0.3694
  150DOPC   C1417871   4.141   6.100   7.042 -0.9070 -0.0510 -0.1906
  150DOPC  H14A17872   4.097   6.004   7.017  0.6595 -1.2517  1.4544
  150DOPC  H14B17873   4.082   6.137   7.124  0.3386 -0.4643  0.9155
  150DOPC  H14C17874   4.137   6.172   6.961  1.1565  1.1897  0.7302
  150DOPC   C1517875   4.332   6.196   7.152  0.0547 -0.0160  0.3084
  150DOPC  H15A17876   4.425   6.173   7.202 -0.4856 -1.4175  0.7048
  150DOPC  H15B17877   4.269   6.240   7.228  0.2832  1.1680 -0.1739
  150DOPC  H15C17878   4.361   6.274   7.083  0.3802 -0.4050 -0.0010
  150DOPC   C1117879   4.386   6.122   6.851 -0.6732  0.2685 -0.4281
  150DOPC  H11A17880   4.416   6.048   6.773  0.8870 -0.6334  0.9789
  150DOPC  H11B17881   4.286   6.156   6.817 -0.6537 -0.5941 -1.4042
  150DOPC     P17882   4.490   6.319   6.730 -0.0108 -0.3506 -0.4408
  150DOPC   O1317883   4.623   6.373   6.743  0.3079  0.0107 -0.4447
  150DOPC   O1417884   4.376   6.409   6.716  0.5850  0.1975 -0.1092
  150DOPC   O1217885   4.475   6.228   6.862 -0.3970 -0.1380 -0.5783
  150DOPC   O1117886   4.489   6.224   6.610 -0.2114 -0.4881  0.2683
  150DOPC    C117887   4.579   6.115   6.584 -0.0656 -0.3871  0.1744
  150DOPC    HA17888   4.534   6.016   6.607  0.2620 -0.2084  1.6622
  150DOPC    HB17889   4.668   6.128   6.648  0.8703 -0.4331 -1.0664
  150DOPC    C217890   4.622   6.115   6.435  0.2498  0.1062 -0.1469
  150DOPC    HS17891   4.636   6.222   6.408 -1.4258  0.2993 -0.3732
  150DOPC   O2117892   4.517   6.060   6.361  0.3714  0.3015 -0.8136
  150DOPC   C2117893   4.485   5.934   6.355 -0.0173  0.6416  0.2193
  150DOPC   O2217894   4.544   5.841   6.405  0.0944  0.3276 -0.2504
  150DOPC   C2217895   4.358   5.924   6.259 -0.0239  0.2777 -0.3059
  150DOPC   H2R17896   4.361   6.007   6.185  0.9376  1.4262  0.9759
  150DOPC   H2S17897   4.273   5.928   6.330 -1.0600 -0.9620 -1.4135
  150DOPC    C317898   4.754   6.044   6.414 -0.0114 -0.4648 -0.6002
  150DOPC    HX17899   4.750   5.961   6.486 -0.0213  1.1008  1.2780
  150DOPC    HY17900   4.833   6.109   6.458 -1.7941  0.5720  1.2534
  150DOPC   O3117901   4.783   6.014   6.279  0.0931  0.2829  0.0519
  150DOPC   C3117902   4.851   5.899   6.251  0.2420 -0.1114 -0.1627
  150DOPC   O3217903   4.902   5.825   6.331 -0.5240 -0.0437  0.0332
  150DOPC   C3217904   4.844   5.872   6.107  0.2891 -0.3392 -0.0238
  150DOPC   H2X17905   4.785   5.943   6.046  0.9836 -1.0016 -1.5162
  150DOPC   H2Y17906   4.944   5.860   6.061  0.6563  1.6831  0.1507
  150DOPC   C2317907   4.353   5.789   6.179 -0.0722  0.5053 -0.0323
  150DOPC   H3R17908   4.365   5.696   6.238  0.8852  0.3355 -0.4742
  150DOPC   H3S17909   4.445   5.785   6.116 -1.0837 -1.2642 -1.4755
  150DOPC   C2417910   4.232   5.791   6.093  0.7183 -0.6891  0.2082
  150DOPC   H4R17911   4.242   5.871   6.015  1.3533  0.6780  1.6390
  150DOPC   H4S17912   4.135   5.796   6.147 -1.0242  0.4483 -2.7342
  150DOPC   C2517913   4.224   5.663   6.004 -0.4482  0.7338 -0.3055
  150DOPC   H5R17914   4.123   5.665   5.956 -1.0317  0.7483  0.8821
  150DOPC   H5S17915   4.217   5.577   6.075 -1.3987  0.2947 -0.8995
  150DOPC   C2617916   4.339   5.648   5.905  0.2866 -0.1543 -0.4398
  150DOPC   H6R17917   4.312   5.553   5.854 -0.7132  1.1952 -2.5999
  150DOPC   H6S17918   4.443   5.642   5.943  1.0710  0.1997 -2.4247
  150DOPC   C2717919   4.337   5.755   5.792 -0.1047 -0.7092 -0.3586
  150DOPC   H7R17920   4.381   5.851   5.826 -1.7475  0.0116 -0.1781
  150DOPC   H7S17921   4.234   5.780   5.758  0.0987  0.6420 -0.0281
  150DOPC   C2817922   4.405   5.708   5.657  0.0070  0.0818  0.0061
  150DOPC   H8R17923   4.353   5.614   5.629 -0.4758  0.3964 -0.1609
  150DOPC   H8S17924   4.511   5.691   5.687 -0.1487 -0.0318  0.5123
  150DOPC   C2917925   4.390   5.808   5.549 -0.1978 -1.2089  0.4024
  150DOPC   H9R17926   4.411   5.914   5.571 -0.7022 -1.0403  0.1013
  150DOPC  C21017927   4.336   5.774   5.429 -0.2243 -0.3489  0.4681
  150DOPC  H10R17928   4.338   5.856   5.355 -1.8122 -0.6735  0.0341
  150DOPC  C21117929   4.287   5.644   5.373 -0.9353  0.4488  0.0242
  150DOPC  H11R17930   4.293   5.563   5.449 -2.2657  1.7208  1.5487
  150DOPC  H11S17931   4.362   5.621   5.294 -0.1339  0.7795  0.6769
  150DOPC  C21217932   4.143   5.625   5.320  0.1707 -0.2886 -0.5661
  150DOPC  H12R17933   4.066   5.640   5.399 -2.2318 -2.7155 -2.2474
  150DOPC  H12S17934   4.134   5.523   5.276  2.7830 -1.7630  1.9604
  150DOPC  C21317935   4.114   5.741   5.222 -0.7760  0.1531 -0.8378
  150DOPC  H13R17936   4.198   5.743   5.149  0.1794  0.3393  0.2305
  150DOPC  H13S17937   4.104   5.834   5.282 -1.3028 -0.4106 -0.0193
  150DOPC  C21417938   3.980   5.710   5.152  0.2542  0.5067  0.6010
  150DOPC  H14R17939   3.904   5.728   5.231  1.4567  1.2351  1.6359
  150DOPC  H14S17940   3.966   5.607   5.113 -0.4727 -0.1733  2.5764
  150DOPC  C21517941   3.948   5.808   5.029  1.0754 -0.1109 -0.4127
  150DOPC  H15R17942   3.977   5.751   4.939  0.5850  0.6499 -1.0614
  150DOPC  H15S17943   4.011   5.897   5.048 -1.1046  1.2424  0.9055
  150DOPC  C21617944   3.800   5.857   5.014  0.2900 -0.6211  0.1438
  150DOPC  H16R17945   3.773   5.902   5.112 -0.3730 -1.0375  0.1561
  150DOPC  H16S17946   3.733   5.770   4.996  1.2691 -2.3440  3.9884
  150DOPC  C21717947   3.774   5.962   4.912  0.1093  0.4041 -0.1229
  150DOPC  H17R17948   3.856   6.037   4.908  1.8595 -1.3500  1.1306
  150DOPC  H17S17949   3.678   6.013   4.938 -0.8126 -0.3531 -1.8564
  150DOPC  C21817950   3.754   5.898   4.780 -0.2088  0.4906  0.1060
  150DOPC  H18R17951   3.842   5.875   4.716 -0.6775  0.8963 -0.7123
  150DOPC  H18S17952   3.708   5.976   4.716  1.3273  2.3162  1.1319
  150DOPC  H18T17953   3.687   5.810   4.795  0.5465  0.0373  0.8948
  150DOPC   C3317954   4.778   5.729   6.093  0.0768  0.5654  0.5011
  150DOPC   H3X17955   4.692   5.720   6.163  2.5938 -1.6637  3.5873
  150DOPC   H3Y17956   4.854   5.655   6.124  0.6326  1.0358  0.2910
  150DOPC   C3417957   4.744   5.697   5.943 -0.3414  0.3385 -1.0760
  150DOPC   H4X17958   4.818   5.743   5.873  1.6654  1.6810  1.7544
  150DOPC   H4Y17959   4.644   5.731   5.908  0.5109  0.5742 -3.5276
  150DOPC   C3517960   4.767   5.546   5.921 -0.3316  0.3326  0.3908
  150DOPC   H5X17961   4.675   5.502   5.964 -2.1658  1.2476 -2.3194
  150DOPC   H5Y17962   4.856   5.508   5.977 -0.2209  1.4071  0.9644
  150DOPC   C3617963   4.778   5.510   5.774  0.4889 -0.1994  0.2369
  150DOPC   H6X17964   4.691   5.535   5.710  0.1015 -2.5134 -0.2213
  150DOPC   H6Y17965   4.869   5.551   5.725  0.2457 -1.0676 -0.9831
  150DOPC   C3717966   4.803   5.361   5.762  0.1253  0.5239  0.3216
  150DOPC   H7X17967   4.871   5.327   5.843  0.6326  2.5388  0.7769
  150DOPC   H7Y17968   4.716   5.300   5.796  0.5435  0.2007  0.8384
  150DOPC   C3817969   4.834   5.330   5.618  0.2565  0.3123  0.3584
  150DOPC   H8X17970   4.945   5.339   5.614  0.2662  1.1396  1.7318
  150DOPC   H8Y17971   4.792   5.414   5.558  1.2946  1.2019  0.8269
  150DOPC   C3917972   4.789   5.194   5.571  0.7107 -0.5363 -0.0933
  150DOPC   H9X17973   4.858   5.114   5.601 -0.3582 -2.6710 -2.8332
  150DOPC  C31017974   4.690   5.170   5.473 -0.3019 -0.1865  0.7315
  150DOPC  H10X17975   4.662   5.065   5.454 -3.6167  0.6576  0.3733
  150DOPC  C31117976   4.605   5.266   5.395 -0.2426  0.1590  0.0468
  150DOPC  H11X17977   4.613   5.365   5.444  0.6620  0.6809 -1.1133
  150DOPC  H11Y17978   4.496   5.248   5.387  0.2212 -2.6058 -1.3257
  150DOPC  C31217979   4.657   5.283   5.247  0.4695  0.8243 -0.4554
  150DOPC  H12X17980   4.682   5.184   5.204  0.8969  0.3586  0.8403
  150DOPC  H12Y17981   4.752   5.340   5.248 -0.3137  2.3461 -2.8962
  150DOPC  C31317982   4.559   5.366   5.157  0.6015  0.1757 -0.0343
  150DOPC  H13X17983   4.472   5.298   5.143 -0.5876  1.8358 -1.0546
  150DOPC  H13Y17984   4.524   5.457   5.210  1.5231  1.2269 -1.1799
  150DOPC  C31417985   4.610   5.408   5.018  0.2894  0.3634 -0.6130
  150DOPC  H14X17986   4.685   5.489   5.020  0.1647  0.5003 -1.1450
  150DOPC  H14Y17987   4.662   5.326   4.963 -0.7526 -0.2716 -0.6871
  150DOPC  C31517988   4.493   5.450   4.920  0.2129 -0.0825 -0.4696
  150DOPC  H15X17989   4.543   5.499   4.834  0.1444  0.8681  0.0230
  150DOPC  H15Y17990   4.415   5.514   4.965  1.5346  1.9255 -0.8620
  150DOPC  C31617991   4.413   5.339   4.854  0.7720 -0.0323 -0.0596
  150DOPC  H16X17992   4.468   5.273   4.784 -4.4095 -0.9936 -3.8339
  150DOPC  H16Y17993   4.361   5.278   4.931  0.8833  0.1570  0.1663
  150DOPC  C31717994   4.304   5.405   4.765 -0.0097  0.5777  0.0694
  150DOPC  H17X17995   4.232   5.458   4.832 -3.6506 -1.8999 -1.5324
  150DOPC  H17Y17996   4.349   5.462   4.680  2.5491 -0.3279  0.7363
  150DOPC  C31817997   4.208   5.302   4.700 -0.8353  0.3047  0.0657
  150DOPC  H18X17998   4.145   5.248   4.774 -0.6553 -0.5656 -0.3998
  150DOPC  H18Y17999   4.139   5.337   4.621  2.3872  2.4981 -2.0256
  150DOPC  H18Z18000   4.259   5.212   4.661 -0.0844  0.4878  0.5925
  151DOPC     N18001   1.083   2.863   6.832  0.1098 -0.9311 -0.2651
  151DOPC   C1218002   1.181   2.927   6.927 -0.4508 -0.4405 -0.8353
  151DOPC  H12A18003   1.160   2.904   7.030  0.1619 -2.1023 -1.0482
  151DOPC  H12B18004   1.181   3.034   6.911  0.3658 -0.6246 -2.2077
  151DOPC   C1318005   1.129   2.902   6.695  0.1686  0.2103 -0.4821
  151DOPC  H13A18006   1.219   2.846   6.672  1.2988  0.7404  2.2481
  151DOPC  H13B18007   1.060   2.883   6.615 -0.3298 -0.2069  0.0402
  151DOPC  H13C18008   1.156   3.005   6.682 -0.1988  0.2906 -0.6086
  151DOPC   C1418009   0.949   2.921   6.852 -0.3429 -0.4689 -0.1174
  151DOPC  H14A18010   0.879   2.893   6.775 -1.9592  0.0647  1.1002
  151DOPC  H14B18011   0.914   2.898   6.952 -0.9320 -1.9574 -0.6400
  151DOPC  H14C18012   0.948   3.029   6.855 -0.8858 -0.4781  2.0735
  151DOPC   C1518013   1.076   2.710   6.846 -0.0313 -0.0370 -0.4825
  151DOPC  H15A18014   1.024   2.678   6.936  0.7301  0.5516  0.1772
  151DOPC  H15B18015   1.175   2.667   6.839 -0.2784 -0.9271  0.9722
  151DOPC  H15C18016   1.011   2.665   6.772 -2.2588  0.7901  0.8410
  151DOPC   C1118017   1.335   2.896   6.903 -0.4229  0.0301  0.0188
  151DOPC  H11A18018   1.369   2.931   6.803 -1.0153 -0.3610 -0.3195
  151DOPC  H11B18019   1.392   2.956   6.977 -0.8615 -1.4851  1.6575
  151DOPC     P18020   1.506   2.689   6.885 -0.0332  0.1016  0.4656
  151DOPC   O1318021   1.497   2.550   6.923  0.2924 -0.3102  0.5330
  151DOPC   O1418022   1.625   2.765   6.936 -0.2644 -0.3201 -0.4184
  151DOPC   O1218023   1.367   2.757   6.927  0.4235 -0.3004 -0.2360
  151DOPC   O1118024   1.499   2.698   6.723 -0.5002  0.2495  0.5020
  151DOPC    C118025   1.443   2.597   6.640  0.2700  0.3915 -0.5549
  151DOPC    HA18026   1.335   2.581   6.662  0.5485 -0.6907  0.0873
  151DOPC    HB18027   1.495   2.501   6.658 -0.2345  0.6345  2.7881
  151DOPC    C218028   1.451   2.629   6.493 -0.4331  0.5407  0.9227
  151DOPC    HS18029   1.559   2.651   6.479 -0.0747 -0.3247  2.1856
  151DOPC   O2118030   1.373   2.748   6.463  0.4778 -0.4857 -0.2836
  151DOPC   C2118031   1.409   2.829   6.362  0.4574 -0.7109  0.2489
  151DOPC   O2218032   1.516   2.825   6.299 -0.0596 -0.4483 -1.0006
  151DOPC   C2218033   1.296   2.927   6.340 -0.4369 -0.2125  0.4666
  151DOPC   H2R18034   1.267   2.971   6.437 -0.1715  3.0024 -0.7923
  151DOPC   H2S18035   1.209   2.875   6.294 -0.6770 -0.0319  0.7123
  151DOPC    C318036   1.397   2.513   6.407  0.2788 -0.3877 -0.5589
  151DOPC    HX18037   1.293   2.485   6.434 -0.1745  2.0745  0.4952
  151DOPC    HY18038   1.461   2.423   6.417  1.4823  0.4332 -0.6837
  151DOPC   O3118039   1.400   2.552   6.272  0.2515 -0.3286  0.6953
  151DOPC   C3118040   1.520   2.545   6.202  0.6275  0.1877  0.1461
  151DOPC   O3218041   1.625   2.509   6.245 -0.1267  0.0415  0.1131
  151DOPC   C3218042   1.503   2.589   6.060  1.0678 -0.1843  0.2096
  151DOPC   H2X18043   1.439   2.508   6.017  0.3382  0.5872 -0.1807
  151DOPC   H2Y18044   1.450   2.686   6.058  1.0919 -0.1782 -0.4032
  151DOPC   C2318045   1.340   3.044   6.241  0.3709  0.3240 -0.1316
  151DOPC   H3R18046   1.239   3.090   6.232 -0.2813 -0.5879  1.8993
  151DOPC   H3S18047   1.379   3.001   6.146  3.1385 -0.4264  1.2408
  151DOPC   C2418048   1.444   3.130   6.305  0.2413 -0.6799  0.3493
  151DOPC   H4R18049   1.541   3.078   6.323  0.5600  0.4024  1.8966
  151DOPC   H4S18050   1.401   3.159   6.403  1.6441  3.0824  0.0076
  151DOPC   C2518051   1.474   3.263   6.224 -1.0342 -0.3437  0.0157
  151DOPC   H5R18052   1.376   3.311   6.207 -0.9216 -0.3753 -0.7736
  151DOPC   H5S18053   1.510   3.226   6.126 -0.5330  0.1418  0.0089
  151DOPC   C2618054   1.571   3.361   6.280  0.2589 -0.1286  0.8777
  151DOPC   H6R18055   1.675   3.321   6.274  0.9802  1.8272 -1.4375
  151DOPC   H6S18056   1.541   3.374   6.386 -2.0528  1.7273  0.0717
  151DOPC   C2718057   1.575   3.502   6.217 -0.3356  0.0427 -0.4133
  151DOPC   H7R18058   1.640   3.569   6.277 -0.9229  1.2562 -1.0898
  151DOPC   H7S18059   1.467   3.526   6.224 -0.4203  0.1286 -1.6993
  151DOPC   C2818060   1.614   3.503   6.074 -0.1931  0.3845  0.2440
  151DOPC   H8R18061   1.559   3.428   6.013  1.5196 -0.8587  0.1490
  151DOPC   H8S18062   1.724   3.489   6.066 -0.2323 -0.6162  1.1884
  151DOPC   C2918063   1.585   3.635   6.007 -0.3086 -0.5890 -0.0164
  151DOPC   H9R18064   1.500   3.697   6.039  1.6748  2.1388  0.3162
  151DOPC  C21018065   1.651   3.673   5.900  0.1172  0.2404  0.4811
  151DOPC  H10R18066   1.618   3.762   5.846 -0.9616 -0.8726 -0.7394
  151DOPC  C21118067   1.765   3.593   5.833  0.6491  0.0904  0.3802
  151DOPC  H11R18068   1.765   3.483   5.851 -0.5419 -0.4506 -2.4101
  151DOPC  H11S18069   1.865   3.634   5.859 -0.0779  2.6691 -0.6305
  151DOPC  C21218070   1.753   3.601   5.682  0.4566  0.0891  0.1835
  151DOPC  H12R18071   1.661   3.558   5.636  0.3864 -1.2411  1.4953
  151DOPC  H12S18072   1.839   3.537   5.654 -0.8992 -1.2926 -1.0289
  151DOPC  C21318073   1.773   3.740   5.622 -0.5755  0.5679 -0.4584
  151DOPC  H13R18074   1.880   3.765   5.639 -0.7710  0.0256  1.9494
  151DOPC  H13S18075   1.703   3.813   5.669 -2.8268  0.2110 -3.0106
  151DOPC  C21418076   1.746   3.745   5.467  0.8282  0.7218 -0.1094
  151DOPC  H14R18077   1.762   3.851   5.435  1.7386  0.6928  0.2181
  151DOPC  H14S18078   1.639   3.720   5.449  0.9940  0.6878 -1.0712
  151DOPC  C21518079   1.822   3.655   5.374  0.3753 -0.3715  0.2538
  151DOPC  H15R18080   1.825   3.552   5.413  0.1204 -0.6539 -0.4524
  151DOPC  H15S18081   1.929   3.684   5.378  0.1896  0.1874  2.0267
  151DOPC  C21618082   1.774   3.664   5.225  0.1556 -0.0719 -0.0577
  151DOPC  H16R18083   1.765   3.774   5.214  0.2632  0.1155  1.4948
  151DOPC  H16S18084   1.674   3.616   5.211  0.4699 -0.5704 -0.6603
  151DOPC  C21718085   1.866   3.613   5.111  0.3484 -0.1702 -0.2385
  151DOPC  H17R18086   1.873   3.503   5.118 -1.1360 -0.2824 -0.1329
  151DOPC  H17S18087   1.971   3.648   5.125 -0.0358  0.8990  0.1135
  151DOPC  C21818088   1.821   3.662   4.978 -0.2695 -0.2136 -0.0393
  151DOPC  H18R18089   1.717   3.642   4.946 -0.2573 -0.0058 -0.2187
  151DOPC  H18S18090   1.886   3.627   4.895  0.6882 -0.2381  0.7101
  151DOPC  H18T18091   1.828   3.773   4.966  3.2405 -0.3888 -0.5858
  151DOPC   C3318092   1.634   2.599   5.981 -0.2685 -0.1579  0.0270
  151DOPC   H3X18093   1.610   2.585   5.874 -1.2119  2.1227 -0.1119
  151DOPC   H3Y18094   1.708   2.520   6.007  0.1513  0.9515  2.5386
  151DOPC   C3418095   1.690   2.742   5.990 -0.2268  0.4864 -0.5160
  151DOPC   H4X18096   1.681   2.771   6.097 -0.3999  2.8048 -1.1028
  151DOPC   H4Y18097   1.625   2.807   5.928  1.8177  1.6163 -1.5987
  151DOPC   C3518098   1.831   2.758   5.947  0.6107 -0.9132 -0.1095
  151DOPC   H5X18099   1.860   2.858   5.908 -1.5570  0.6198  1.9749
  151DOPC   H5Y18100   1.837   2.686   5.862 -0.8243 -1.4665  0.2301
  151DOPC   C3618101   1.935   2.716   6.048  0.8062 -0.4038 -0.5960
  151DOPC   H6X18102   1.933   2.800   6.121 -2.4092  0.4735 -1.5307
  151DOPC   H6Y18103   1.890   2.623   6.088 -1.2674  0.3569 -1.0120
  151DOPC   C3718104   2.093   2.704   6.007 -0.0109 -0.8595 -0.7072
  151DOPC   H7X18105   2.133   2.806   5.988 -1.5689 -0.5598 -2.7741
  151DOPC   H7Y18106   2.139   2.642   6.087 -1.6477 -1.8419 -0.4641
  151DOPC   C3818107   2.111   2.633   5.870 -0.7118 -0.1624  0.2447
  151DOPC   H8X18108   2.086   2.709   5.793  0.3395  0.2460  0.2825
  151DOPC   H8Y18109   2.053   2.539   5.864 -0.1676 -0.5625  1.0100
  151DOPC   C3918110   2.256   2.594   5.859  0.0849  0.0802  0.3500
  151DOPC   H9X18111   2.323   2.633   5.937  0.7687 -1.1732  0.4320
  151DOPC  C31018112   2.313   2.512   5.763 -0.1049 -0.4497  0.5242
  151DOPC  H10X18113   2.420   2.489   5.755 -0.0926 -0.5860  1.0759
  151DOPC  C31118114   2.232   2.450   5.648  0.2113 -0.3489  0.3507
  151DOPC  H11X18115   2.286   2.445   5.551  0.7103 -0.1897  0.6152
  151DOPC  H11Y18116   2.134   2.501   5.636  0.3304 -0.2134 -0.0740
  151DOPC  C31218117   2.174   2.308   5.669  0.6774  0.5374  0.3078
  151DOPC  H12X18118   2.120   2.275   5.578  0.0075  0.9850  0.5392
  151DOPC  H12Y18119   2.097   2.323   5.748  0.3849  0.4304  0.0439
  151DOPC  C31318120   2.282   2.203   5.706 -0.1576  0.2447 -0.1493
  151DOPC  H13X18121   2.371   2.208   5.639  0.5992 -0.8116  0.7438
  151DOPC  H13Y18122   2.304   2.214   5.815  0.9835 -0.0075 -0.3356
  151DOPC  C31418123   2.211   2.068   5.708 -0.1849  0.7901 -0.1885
  151DOPC  H14X18124   2.144   2.075   5.797 -0.3181 -0.9440 -0.1088
  151DOPC  H14Y18125   2.140   2.042   5.627 -0.3756 -3.0028  0.9760
  151DOPC  C31518126   2.305   1.949   5.734 -0.5885  0.0993  0.1104
  151DOPC  H15X18127   2.371   1.979   5.818 -1.0195 -0.7891  0.7902
  151DOPC  H15Y18128   2.372   1.949   5.646  1.0370 -0.6187  1.3095
  151DOPC  C31618129   2.241   1.814   5.768  0.4703  0.2290 -0.8110
  151DOPC  H16X18130   2.184   1.783   5.679 -2.7806 -1.0125  1.5056
  151DOPC  H16Y18131   2.327   1.746   5.789  1.6519  1.8894  0.0219
  151DOPC  C31718132   2.147   1.802   5.895  0.2712 -1.1685 -0.2945
  151DOPC  H17X18133   2.189   1.869   5.973  0.3501 -1.4063 -0.1300
  151DOPC  H17Y18134   2.048   1.848   5.877  0.6120  0.9625  2.6836
  151DOPC  C31818135   2.124   1.660   5.936 -0.0215  0.1142 -0.1780
  151DOPC  H18X18136   2.212   1.613   5.986  0.9670  0.9748 -1.0495
  151DOPC  H18Y18137   2.037   1.652   6.004  1.4508 -1.3329  1.6568
  151DOPC  H18Z18138   2.098   1.594   5.851 -1.3415 -0.1374  0.4016
  152DOPC     N18139   3.747   1.367   6.844 -0.4517 -0.7507  0.5204
  152DOPC   C1218140   3.676   1.411   6.714  0.2662 -0.4530  0.0954
  152DOPC  H12A18141   3.577   1.448   6.738 -1.1334 -1.6092 -3.3077
  152DOPC  H12B18142   3.663   1.326   6.648  0.3441  0.8960 -1.7413
  152DOPC   C1318143   3.663   1.257   6.905  0.4052 -0.0911  0.4341
  152DOPC  H13A18144   3.637   1.184   6.831 -1.2599  0.3741  0.5218
  152DOPC  H13B18145   3.704   1.198   6.986 -0.3310 -0.0738  0.8297
  152DOPC  H13C18146   3.571   1.301   6.941  1.3499  1.9222  0.5582
  152DOPC   C1418147   3.780   1.483   6.931 -0.2597 -0.1556  0.1631
  152DOPC  H14A18148   3.846   1.552   6.880 -0.8557 -0.9419 -1.7343
  152DOPC  H14B18149   3.689   1.528   6.967 -1.5803 -3.1618  0.8652
  152DOPC  H14C18150   3.831   1.455   7.022 -2.1272 -1.1271  0.9550
  152DOPC   C1518151   3.872   1.298   6.791 -0.4331  0.4703 -0.0032
  152DOPC  H15A18152   3.853   1.211   6.729  1.2682 -0.8163  1.1737
  152DOPC  H15B18153   3.930   1.256   6.872 -1.1036 -1.5601 -0.5058
  152DOPC  H15C18154   3.935   1.370   6.741  1.1617 -0.6645  0.2982
  152DOPC   C1118155   3.745   1.515   6.627  0.3264  0.2266 -0.6589
  152DOPC  H11A18156   3.847   1.479   6.600  0.2852 -0.1239 -0.3594
  152DOPC  H11B18157   3.690   1.533   6.532 -1.5757 -0.9396  0.1714
  152DOPC     P18158   3.644   1.736   6.703  0.0183 -0.4755  0.1692
  152DOPC   O1318159   3.627   1.770   6.845 -0.0174 -0.5677 -0.1725
  152DOPC   O1418160   3.530   1.662   6.646 -0.1581 -0.0014 -0.6776
  152DOPC   O1218161   3.766   1.647   6.686  0.2703 -0.2853 -0.5043
  152DOPC   O1118162   3.672   1.875   6.635  0.1050  0.1620  0.3167
  152DOPC    C118163   3.737   1.877   6.509 -0.9737  0.8326 -0.1875
  152DOPC    HA18164   3.814   1.798   6.492 -1.2431  1.1345 -3.2211
  152DOPC    HB18165   3.791   1.974   6.495  0.9632 -0.4097 -2.0036
  152DOPC    C218166   3.634   1.869   6.397 -0.1875 -0.1894  0.0670
  152DOPC    HS18167   3.603   1.764   6.385 -2.0699  0.3680 -0.1827
  152DOPC   O2118168   3.697   1.925   6.279  0.2117  0.7933  0.3860
  152DOPC   C2118169   3.642   1.893   6.165 -0.5577  0.3709 -0.3690
  152DOPC   O2218170   3.577   1.796   6.138 -0.3378  0.0904 -0.4304
  152DOPC   C2218171   3.695   1.989   6.061  0.0134 -0.2722 -0.5115
  152DOPC   H2R18172   3.804   1.970   6.061 -0.0177 -0.4624 -1.1224
  152DOPC   H2S18173   3.684   2.095   6.092  0.8982 -0.2167 -0.3579
  152DOPC    C318174   3.507   1.951   6.440  0.4136  0.6489 -0.0648
  152DOPC    HX18175   3.552   2.045   6.477  1.3629 -0.3590  1.4831
  152DOPC    HY18176   3.466   1.907   6.534 -1.1317 -0.1815 -1.0861
  152DOPC   O3118177   3.412   1.960   6.337  0.4107  0.3639  0.4669
  152DOPC   C3118178   3.341   1.844   6.319  0.1817 -0.5201 -0.7994
  152DOPC   O3218179   3.342   1.752   6.401 -0.0024 -0.1971 -0.3621
  152DOPC   C3218180   3.263   1.844   6.196  0.2270 -0.9850  1.2307
  152DOPC   H2X18181   3.209   1.941   6.193  1.7763 -0.0900  0.8000
  152DOPC   H2Y18182   3.333   1.833   6.110 -1.5706  0.3847 -0.5277
  152DOPC   C2318183   3.633   1.958   5.919 -0.3599 -0.2078 -0.3344
  152DOPC   H3R18184   3.522   1.964   5.922 -0.2655  2.9141  1.2637
  152DOPC   H3S18185   3.667   1.853   5.902  0.6353  0.0962 -0.2820
  152DOPC   C2418186   3.679   2.051   5.814  0.4101 -0.1257  0.5556
  152DOPC   H4R18187   3.790   2.044   5.819  0.3759 -0.6446  0.6502
  152DOPC   H4S18188   3.648   2.153   5.846 -1.0329 -0.6220  0.8397
  152DOPC   C2518189   3.635   2.019   5.673  0.0280 -0.1571  0.2309
  152DOPC   H5R18190   3.683   1.920   5.655 -0.2977 -0.5916  1.5804
  152DOPC   H5S18191   3.684   2.096   5.610 -0.4106  0.1485  0.2550
  152DOPC   C2618192   3.485   2.008   5.640 -0.5773 -0.6000 -0.1216
  152DOPC   H6R18193   3.441   2.104   5.677 -0.6690 -1.0012  0.8300
  152DOPC   H6S18194   3.438   1.920   5.688  0.2957 -0.9562  0.0873
  152DOPC   C2718195   3.472   2.000   5.485 -0.0296 -0.1334 -0.2951
  152DOPC   H7R18196   3.547   1.926   5.449 -0.2747 -2.1757  3.0049
  152DOPC   H7S18197   3.496   2.098   5.439  0.2882  0.6798  1.5348
  152DOPC   C2818198   3.337   1.952   5.435 -0.5396 -0.8637 -0.2466
  152DOPC   H8R18199   3.331   1.856   5.491  3.1300 -0.1988  1.5399
  152DOPC   H8S18200   3.349   1.938   5.325  0.9421  0.9765 -0.3558
  152DOPC   C2918201   3.222   2.037   5.477  0.6343  0.0535 -0.5420
  152DOPC   H9R18202   3.206   2.045   5.585  1.1881 -0.7828 -0.3888
  152DOPC  C21018203   3.130   2.092   5.391 -0.1495  0.1073  0.0109
  152DOPC  H10R18204   3.057   2.151   5.450  1.9450  2.7301  0.1987
  152DOPC  C21118205   3.125   2.094   5.247  0.4545  0.5517  0.0897
  152DOPC  H11R18206   3.025   2.059   5.214  0.6124  1.7019 -1.7582
  152DOPC  H11S18207   3.180   2.009   5.202  1.2374 -0.1333  2.2245
  152DOPC  C21218208   3.152   2.224   5.178 -0.2681  0.1462  0.0972
  152DOPC  H12R18209   3.178   2.220   5.070 -0.8532  1.9060 -0.1451
  152DOPC  H12S18210   3.245   2.263   5.224  0.0820 -0.3619 -0.1724
  152DOPC  C21318211   3.036   2.326   5.197 -0.4698  0.0381 -0.0857
  152DOPC  H13R18212   3.026   2.329   5.308 -1.3971 -0.9472 -0.1239
  152DOPC  H13S18213   2.953   2.276   5.142 -1.6533  1.0616  0.7020
  152DOPC  C21418214   3.057   2.470   5.141  0.1251 -0.2707 -0.2427
  152DOPC  H14R18215   3.129   2.464   5.056  1.2520 -2.0804  0.7789
  152DOPC  H14S18216   3.108   2.534   5.217 -1.3746  1.3047 -0.5102
  152DOPC  C21518217   2.935   2.550   5.104  0.6543  0.5457 -0.1146
  152DOPC  H15R18218   2.958   2.651   5.065 -1.1586  0.4745 -1.5520
  152DOPC  H15S18219   2.868   2.567   5.190 -1.4810 -1.2512 -1.3021
  152DOPC  C21618220   2.850   2.483   4.999 -0.0531 -0.3868 -0.1504
  152DOPC  H16R18221   2.806   2.390   5.041  3.1180 -2.3182 -0.7399
  152DOPC  H16S18222   2.908   2.438   4.916 -0.3204 -0.5703 -0.2391
  152DOPC  C21718223   2.748   2.573   4.941 -0.2383 -0.8552 -0.1981
  152DOPC  H17R18224   2.678   2.515   4.877 -3.1738  2.7944 -0.6790
  152DOPC  H17S18225   2.799   2.648   4.877 -0.4953 -1.0393 -0.6219
  152DOPC  C21818226   2.661   2.653   5.041 -0.3104  0.2906  0.3933
  152DOPC  H18R18227   2.719   2.726   5.102  0.6902 -1.0753  1.1324
  152DOPC  H18S18228   2.638   2.572   5.113 -0.8364 -0.6696 -0.8240
  152DOPC  H18T18229   2.574   2.693   4.984  0.1817  0.1431 -0.4726
  152DOPC   C3318230   3.159   1.737   6.172 -0.1896  0.0111  0.4452
  152DOPC   H3X18231   3.080   1.752   6.249 -1.8593 -1.9439 -0.7758
  152DOPC   H3Y18232   3.204   1.635   6.168  2.1427  1.0188 -0.7539
  152DOPC   C3418233   3.081   1.749   6.033  0.1257  0.3083  0.3669
  152DOPC   H4X18234   2.999   1.822   6.052  1.6179  1.7123  1.7747
  152DOPC   H4Y18235   3.048   1.643   6.024  1.6859 -0.0883 -0.9631
  152DOPC   C3518236   3.163   1.802   5.916  1.0677  0.3681  0.1320
  152DOPC   H5X18237   3.216   1.898   5.933  1.9659 -0.0977  0.0161
  152DOPC   H5Y18238   3.086   1.837   5.844  2.8665  1.2970 -1.4203
  152DOPC   C3618239   3.257   1.689   5.865 -0.4941  0.4602 -0.2072
  152DOPC   H6X18240   3.342   1.745   5.821 -0.2287  0.3797  0.2017
  152DOPC   H6Y18241   3.304   1.623   5.941 -0.2448 -1.4767 -1.9438
  152DOPC   C3718242   3.200   1.612   5.748  0.0163 -0.1031  0.2376
  152DOPC   H7X18243   3.120   1.545   5.785 -0.0256 -0.4866 -0.5359
  152DOPC   H7Y18244   3.162   1.677   5.667  0.0870 -0.9572 -0.4987
  152DOPC   C3818245   3.308   1.517   5.690  0.3393 -0.0358 -0.2389
  152DOPC   H8X18246   3.257   1.450   5.618 -1.8208  2.7115 -1.4731
  152DOPC   H8Y18247   3.355   1.459   5.773  0.2091 -1.5983 -1.2150
  152DOPC   C3918248   3.415   1.583   5.607 -0.8975  0.8718 -0.0780
  152DOPC   H9X18249   3.383   1.570   5.503 -0.9381 -1.3395  0.1701
  152DOPC  C31018250   3.547   1.599   5.637  0.3471  0.1828 -0.1896
  152DOPC  H10X18251   3.616   1.650   5.568  0.8901 -0.1050  0.1336
  152DOPC  C31118252   3.616   1.561   5.766  0.1400 -0.2214  0.2649
  152DOPC  H11X18253   3.552   1.494   5.826 -1.7738 -1.8079 -3.2382
  152DOPC  H11Y18254   3.632   1.659   5.816 -1.3042  1.2520 -1.9621
  152DOPC  C31218255   3.749   1.485   5.763  0.8273  0.2546 -0.0163
  152DOPC  H12X18256   3.819   1.550   5.706  1.9207  0.6916  1.7619
  152DOPC  H12Y18257   3.750   1.394   5.699  0.1676  1.0074 -1.1261
  152DOPC  C31318258   3.800   1.429   5.890  0.2816 -0.8391 -0.7485
  152DOPC  H13X18259   3.748   1.344   5.940  1.3568 -0.6639  0.7695
  152DOPC  H13Y18260   3.903   1.391   5.874  0.6973 -0.1995  0.2992
  152DOPC  C31418261   3.815   1.545   6.000  0.3267 -0.2352 -0.1748
  152DOPC  H14X18262   3.864   1.635   5.957  0.7486  0.2418  1.2420
  152DOPC  H14Y18263   3.711   1.569   6.031  0.1145 -0.8776 -0.3776
  152DOPC  C31518264   3.897   1.508   6.128 -0.0510 -0.5339 -0.0907
  152DOPC  H15X18265   3.996   1.468   6.097  0.0062 -0.9196  0.5695
  152DOPC  H15Y18266   3.843   1.425   6.178  1.0333 -1.6339 -0.6937
  152DOPC  C31618267   3.916   1.624   6.232 -0.0219  0.4747  0.9169
  152DOPC  H16X18268   3.970   1.709   6.184  2.3422 -1.0271  0.7302
  152DOPC  H16Y18269   3.812   1.652   6.258  0.3928  1.9330  1.1124
  152DOPC  C31718270   3.974   1.580   6.364  0.7541 -0.0469  0.2052
  152DOPC  H17X18271   3.945   1.649   6.446  2.2619 -0.5290  1.1794
  152DOPC  H17Y18272   3.924   1.482   6.381  0.2452 -0.1708 -1.7465
  152DOPC  C31818273   4.123   1.585   6.369 -0.7728  0.0829  0.1713
  152DOPC  H18X18274   4.156   1.691   6.379 -1.2511  0.2692 -0.1876
  152DOPC  H18Y18275   4.168   1.525   6.451  0.4032 -0.8276 -1.0736
  152DOPC  H18Z18276   4.167   1.537   6.278 -0.9751 -1.6252  0.9439
  153DOPC     N18277   4.273   6.998   7.242  0.2768 -0.1459 -0.2204
  153DOPC   C1218278   4.199   6.972   7.112 -0.5811 -0.4023  0.7467
  153DOPC  H12A18279   4.225   7.048   7.040  1.2513 -0.8674  0.8690
  153DOPC  H12B18280   4.093   6.993   7.119 -0.6309  0.5806 -1.9946
  153DOPC   C1318281   4.423   6.957   7.234  0.8168 -0.3012 -0.6260
  153DOPC  H13A18282   4.471   6.976   7.329 -1.7109 -1.2982  0.9497
  153DOPC  H13B18283   4.437   6.856   7.200  0.0163 -0.8817  0.6727
  153DOPC  H13C18284   4.472   7.026   7.167 -1.7390 -0.2107 -2.5800
  153DOPC   C1418285   4.221   6.920   7.358 -0.2834 -0.1004 -0.0549
  153DOPC  H14A18286   4.233   6.814   7.339  1.1145  0.6021 -4.0870
  153DOPC  H14B18287   4.273   6.945   7.448  0.2411 -5.5989  1.5208
  153DOPC  H14C18288   4.115   6.943   7.359 -0.2423  0.2716 -1.6798
  153DOPC   C1518289   4.263   7.138   7.280  0.0228  0.1171 -0.0397
  153DOPC  H15A18290   4.161   7.172   7.272  0.2664  0.5473 -2.0216
  153DOPC  H15B18291   4.315   7.215   7.224 -1.4858  0.3822 -1.1529
  153DOPC  H15C18292   4.281   7.161   7.384  0.4152  0.4983 -0.1838
  153DOPC   C1118293   4.223   6.833   7.050 -0.2935  0.3953  0.5176
  153DOPC  H11A18294   4.331   6.827   7.027 -0.3552 -0.5804  0.4119
  153DOPC  H11B18295   4.191   6.756   7.124 -1.9726 -0.6428 -1.2112
  153DOPC     P18296   4.172   6.879   6.800  0.4157 -0.0477  0.5138
  153DOPC   O1318297   4.133   7.020   6.800  0.0119  0.3838 -0.7081
  153DOPC   O1418298   4.102   6.796   6.698  0.2586  0.3260  0.2668
  153DOPC   O1218299   4.142   6.810   6.937  0.1354 -0.5450  0.8395
  153DOPC   O1118300   4.325   6.873   6.788 -0.1747 -0.3689 -0.9641
  153DOPC    C118301   4.397   6.787   6.709 -0.0600  0.5343 -0.0201
  153DOPC    HA18302   4.346   6.690   6.688  0.5012  0.0709  0.6761
  153DOPC    HB18303   4.496   6.764   6.753  0.1255  0.3865 -0.5076
  153DOPC    C218304   4.439   6.851   6.568 -0.0217 -0.1090  0.4465
  153DOPC    HS18305   4.548   6.838   6.552 -0.1420 -0.5589 -0.0443
  153DOPC   O2118306   4.407   6.993   6.559 -0.0057 -0.7345  0.3416
  153DOPC   C2118307   4.491   7.078   6.617 -0.0805  0.5013 -0.0726
  153DOPC   O2218308   4.593   7.047   6.682 -0.1160  0.2140 -0.3078
  153DOPC   C2218309   4.434   7.218   6.604 -0.4083  0.4082  0.2056
  153DOPC   H2R18310   4.457   7.268   6.701 -1.7904  0.0092  0.7612
  153DOPC   H2S18311   4.325   7.207   6.588 -0.1927  1.6456 -2.6727
  153DOPC    C318312   4.357   6.780   6.460  0.0521 -0.2562 -0.0808
  153DOPC    HX18313   4.247   6.783   6.472 -0.4133 -2.4006 -2.9457
  153DOPC    HY18314   4.375   6.671   6.468  2.1732 -0.0367 -1.1678
  153DOPC   O3118315   4.412   6.810   6.326 -0.1361  0.0774 -0.1195
  153DOPC   C3118316   4.357   6.897   6.247 -0.1555 -0.0250  0.7431
  153DOPC   O3218317   4.252   6.958   6.270  0.6102 -0.2926 -0.1391
  153DOPC   C3218318   4.425   6.892   6.114 -0.1653  0.6132  0.5410
  153DOPC   H2X18319   4.528   6.932   6.121  0.5653 -1.4335  2.5787
  153DOPC   H2Y18320   4.422   6.787   6.076  0.7907  1.7303 -2.9497
  153DOPC   C2318321   4.497   7.301   6.494 -0.3308  0.3298 -0.0619
  153DOPC   H3R18322   4.428   7.387   6.487 -1.4761 -0.5538  0.1058
  153DOPC   H3S18323   4.486   7.240   6.402  0.1422 -0.3671  0.3338
  153DOPC   C2418324   4.641   7.348   6.518 -0.1879 -0.6522 -0.7031
  153DOPC   H4R18325   4.711   7.262   6.521  0.6060 -0.0218  2.9688
  153DOPC   H4S18326   4.646   7.399   6.616 -1.0571  1.2729 -1.6166
  153DOPC   C2518327   4.694   7.450   6.408 -0.3575  0.2889 -0.0070
  153DOPC   H5R18328   4.790   7.496   6.440 -1.0132  2.1725 -0.5799
  153DOPC   H5S18329   4.624   7.535   6.392 -1.3297 -0.1221  1.8016
  153DOPC   C2618330   4.725   7.371   6.278 -0.0119 -0.5955 -0.1034
  153DOPC   H6R18331   4.630   7.361   6.220  1.0671  1.5826 -2.4299
  153DOPC   H6S18332   4.771   7.271   6.294  0.1292 -0.2008  2.2024
  153DOPC   C2718333   4.825   7.446   6.193 -0.2538  0.1949  0.1270
  153DOPC   H7R18334   4.928   7.437   6.233  0.4360  1.2515 -1.3222
  153DOPC   H7S18335   4.795   7.553   6.185 -2.8437 -0.5003 -0.6230
  153DOPC   C2818336   4.827   7.387   6.046  0.4122 -0.0568 -0.7042
  153DOPC   H8R18337   4.861   7.282   6.045 -2.3991 -1.0400 -0.8913
  153DOPC   H8S18338   4.903   7.442   5.985 -0.6752 -0.5682 -2.6020
  153DOPC   C2918339   4.707   7.402   5.963  0.6984  0.0470 -0.3732
  153DOPC   H9R18340   4.649   7.491   5.993 -1.5307 -1.6093  0.5701
  153DOPC  C21018341   4.662   7.322   5.862 -0.2951 -0.6590 -0.4319
  153DOPC  H10R18342   4.571   7.348   5.805 -0.9637 -1.8684  0.0324
  153DOPC  C21118343   4.726   7.194   5.807 -0.1916  0.1511  0.3871
  153DOPC  H11R18344   4.662   7.113   5.848 -1.4525  1.5629  1.3545
  153DOPC  H11S18345   4.828   7.173   5.844  0.3700 -1.1706 -1.7575
  153DOPC  C21218346   4.728   7.189   5.648 -0.8778 -0.7832 -0.5019
  153DOPC  H12R18347   4.770   7.287   5.614  0.4531 -1.0243  0.3606
  153DOPC  H12S18348   4.627   7.174   5.606  0.0417  0.9086 -3.6446
  153DOPC  C21318349   4.836   7.081   5.599  0.3722  0.1999 -0.2702
  153DOPC  H13R18350   4.796   6.981   5.627 -1.9696  0.8535 -1.0163
  153DOPC  H13S18351   4.927   7.101   5.660  0.4378  0.2700 -0.3915
  153DOPC  C21418352   4.858   7.097   5.444  0.0648 -0.6302 -0.2546
  153DOPC  H14R18353   4.898   7.198   5.422 -1.3181  0.4642  1.9461
  153DOPC  H14S18354   4.764   7.086   5.387  0.4787  1.7415 -1.5241
  153DOPC  C21518355   4.964   7.007   5.384 -0.6140 -0.0901  0.3316
  153DOPC  H15R18356   4.939   6.900   5.401  1.0189 -0.2190  2.3567
  153DOPC  H15S18357   5.062   7.022   5.433  0.2334 -2.0455 -0.6842
  153DOPC  C21618358   4.978   7.035   5.230 -0.4759 -0.0679 -0.4899
  153DOPC  H16R18359   4.997   7.142   5.207 -0.3123 -0.4038 -1.9920
  153DOPC  H16S18360   4.888   7.001   5.176  0.0471 -0.2084 -1.2944
  153DOPC  C21718361   5.092   6.966   5.160  0.1189  0.4410 -0.2725
  153DOPC  H17R18362   5.091   6.995   5.053  3.0886  0.6966 -0.3185
  153DOPC  H17S18363   5.070   6.857   5.170 -3.9110  1.1754  0.7060
  153DOPC  C21818364   5.227   6.990   5.222  0.0170  0.0660  0.4247
  153DOPC  H18R18365   5.257   6.950   5.321  0.6853 -1.3156 -0.3052
  153DOPC  H18S18366   5.236   7.101   5.224 -0.3716  0.1511 -1.1907
  153DOPC  H18T18367   5.303   6.944   5.155  2.0752 -0.6716  3.0773
  153DOPC   C3318368   4.344   6.970   6.008  0.0854 -0.2058 -0.2834
  153DOPC   H3X18369   4.336   7.072   6.052 -0.5038  0.5431 -2.0287
  153DOPC   H3Y18370   4.239   6.935   6.006  0.0591 -0.4535  2.0630
  153DOPC   C3418371   4.390   6.960   5.864 -0.0004  0.6083 -0.6609
  153DOPC   H4X18372   4.374   6.857   5.825 -2.1798  1.6612 -2.8611
  153DOPC   H4Y18373   4.494   6.997   5.852 -0.6583  2.1071 -2.1711
  153DOPC   C3518374   4.298   7.035   5.768  0.3520 -0.1001  0.6861
  153DOPC   H5X18375   4.356   7.050   5.675  0.2786  1.7676  0.9123
  153DOPC   H5Y18376   4.269   7.136   5.803 -3.3119  0.1838 -2.5996
  153DOPC   C3618377   4.172   6.952   5.730  0.5535 -0.0128  0.4460
  153DOPC   H6X18378   4.207   6.869   5.665 -0.8202  0.4058 -0.8898
  153DOPC   H6Y18379   4.132   6.917   5.827  0.8013 -3.3537 -0.5462
  153DOPC   C3718380   4.072   7.034   5.646  0.5016 -0.8209 -0.1741
  153DOPC   H7X18381   3.980   6.972   5.642  0.6280 -1.5404  3.8789
  153DOPC   H7Y18382   4.038   7.126   5.699  0.2721 -0.9273 -0.1360
  153DOPC   C3818383   4.117   7.071   5.504  0.8846 -0.5574  0.7800
  153DOPC   H8X18384   4.123   6.972   5.455  0.6942 -0.6750  0.9948
  153DOPC   H8Y18385   4.218   7.117   5.494  1.0107 -1.3226 -3.4949
  153DOPC   C3918386   4.017   7.160   5.433  0.4152 -0.0650  0.1276
  153DOPC   H9X18387   4.010   7.264   5.467  1.4261  0.0335  0.0587
  153DOPC  C31018388   3.928   7.128   5.332  0.1453  0.2247 -0.0724
  153DOPC  H10X18389   3.851   7.198   5.299 -1.3179 -1.5520 -0.6114
  153DOPC  C31118390   3.914   6.990   5.271 -0.0599  0.0618  0.3833
  153DOPC  H11X18391   4.006   6.927   5.272  0.1285  0.3073 -0.4221
  153DOPC  H11Y18392   3.904   7.007   5.162  2.0145  0.1828  0.1607
  153DOPC  C31218393   3.786   6.910   5.310 -0.8450 -0.1989 -0.1174
  153DOPC  H12X18394   3.691   6.968   5.321 -1.0357 -0.9731  4.1583
  153DOPC  H12Y18395   3.805   6.882   5.416 -0.5962 -1.0885 -0.3881
  153DOPC  C31318396   3.767   6.781   5.235 -0.6119  0.2912 -0.2300
  153DOPC  H13X18397   3.760   6.793   5.125 -2.7942 -0.4104 -0.2111
  153DOPC  H13Y18398   3.856   6.717   5.250 -0.6442  0.1529 -0.6260
  153DOPC  C31418399   3.641   6.702   5.274  0.3776 -0.0733  0.6868
  153DOPC  H14X18400   3.642   6.697   5.385 -0.2010 -1.5611  0.6478
  153DOPC  H14Y18401   3.557   6.766   5.241  1.6962  1.3204 -0.0632
  153DOPC  C31518402   3.623   6.568   5.212 -0.6845  0.3038  0.2672
  153DOPC  H15X18403   3.715   6.513   5.242 -1.2297 -0.7815  0.0234
  153DOPC  H15Y18404   3.625   6.565   5.100 -0.5350  1.0249  0.2443
  153DOPC  C31618405   3.497   6.500   5.264  0.7401  0.0774 -0.8196
  153DOPC  H16X18406   3.504   6.468   5.370  0.1655  0.8472 -0.5424
  153DOPC  H16Y18407   3.414   6.573   5.280 -0.2129 -1.0981 -0.2476
  153DOPC  C31718408   3.467   6.373   5.184  0.4051  0.7245  0.3906
  153DOPC  H17X18409   3.376   6.319   5.218  0.4941 -2.5860 -3.7508
  153DOPC  H17Y18410   3.454   6.401   5.077  2.6460  0.3259 -0.0224
  153DOPC  C31818411   3.581   6.267   5.196  0.4548 -0.5130 -0.0673
  153DOPC  H18X18412   3.551   6.173   5.146  0.5464 -0.0267 -1.0583
  153DOPC  H18Y18413   3.674   6.312   5.156 -1.1466  1.6310 -1.6233
  153DOPC  H18Z18414   3.600   6.240   5.302  1.4502 -1.0488 -0.3644
  154DOPC     N18415   5.579   3.484   7.500  0.2362  0.7884  0.5455
  154DOPC   C1218416   5.605   3.518   7.349  0.0945 -0.0242 -0.1300
  154DOPC  H12A18417   5.525   3.573   7.303 -0.1096 -0.7373 -0.6543
  154DOPC  H12B18418   5.612   3.421   7.301  1.3768 -0.1763  0.3206
  154DOPC   C1318419   5.497   3.594   7.565 -0.1130  0.9789  0.1078
  154DOPC  H13A18420   5.464   3.558   7.661  1.5297 -0.8578  0.0418
  154DOPC  H13B18421   5.548   3.688   7.583 -0.2292  1.1567 -0.4602
  154DOPC  H13C18422   5.410   3.616   7.504 -0.7053 -2.5697 -0.5124
  154DOPC   C1418423   5.704   3.474   7.568 -0.4221 -0.8885  0.2409
  154DOPC  H14A18424   5.778   3.417   7.514 -0.0875  1.1945 -1.6868
  154DOPC  H14B18425   5.758   3.568   7.566 -0.0329 -1.1225 -0.2596
  154DOPC  H14C18426   5.707   3.470   7.676  2.6215  1.2097  0.3616
  154DOPC   C1518427   5.502   3.353   7.497 -0.5329  0.0790 -0.0561
  154DOPC  H15A18428   5.494   3.316   7.598 -1.6761  0.8843  0.1780
  154DOPC  H15B18429   5.559   3.286   7.435 -0.6729 -0.1138  0.0219
  154DOPC  H15C18430   5.401   3.367   7.459 -1.0196  0.9860  1.4691
  154DOPC   C1118431   5.733   3.604   7.311  0.2335 -0.2804 -0.6362
  154DOPC  H11A18432   5.815   3.549   7.361 -0.6617  0.9456  2.3464
  154DOPC  H11B18433   5.749   3.606   7.201 -1.9922 -1.1393 -1.0321
  154DOPC     P18434   5.839   3.842   7.366  0.2482 -0.0306  0.1649
  154DOPC   O1318435   5.963   3.792   7.427 -0.1733 -0.2220 -0.5643
  154DOPC   O1418436   5.788   3.977   7.399  0.4351  0.7095 -0.0523
  154DOPC   O1218437   5.727   3.733   7.368 -0.1691  0.0695  0.1966
  154DOPC   O1118438   5.874   3.842   7.210 -0.3102 -0.3416 -0.3846
  154DOPC    C118439   5.756   3.881   7.127 -0.8322 -0.5577 -0.3836
  154DOPC    HA18440   5.719   3.981   7.157 -0.8728 -1.0902  1.4434
  154DOPC    HB18441   5.671   3.810   7.129 -1.5740  0.3144  2.1005
  154DOPC    C218442   5.801   3.892   6.974  0.4915 -0.3448 -0.0157
  154DOPC    HS18443   5.714   3.920   6.911  0.0486  0.0297  0.7419
  154DOPC   O2118444   5.859   3.771   6.933  0.0180  1.0804  0.1871
  154DOPC   C2118445   5.782   3.660   6.919  0.4698 -0.0815  0.1119
  154DOPC   O2218446   5.663   3.650   6.932 -0.0124  0.3328 -0.3531
  154DOPC   C2218447   5.865   3.536   6.885  0.3453 -0.2292 -0.2715
  154DOPC   H2R18448   5.970   3.560   6.914 -0.4590  1.0862  1.7816
  154DOPC   H2S18449   5.856   3.538   6.774  1.6991 -0.4366 -0.4085
  154DOPC    C318450   5.908   4.000   6.944 -0.5732  0.1110 -0.0909
  154DOPC    HX18451   6.003   3.968   6.993 -1.0993  0.4168  1.1771
  154DOPC    HY18452   5.886   4.093   7.002 -2.2264 -0.2405 -0.1043
  154DOPC   O3118453   5.918   4.036   6.806 -0.1327  0.4919  0.2549
  154DOPC   C3118454   6.033   4.002   6.744 -0.2762  0.0496  0.5263
  154DOPC   O3218455   6.128   3.940   6.785  0.2958  0.2167  0.0355
  154DOPC   C3218456   6.014   4.049   6.607 -0.0579 -0.7333  0.5247
  154DOPC   H2X18457   5.929   3.990   6.568  1.1246 -2.2207  0.0668
  154DOPC   H2Y18458   5.993   4.157   6.613 -1.0687 -0.9337  0.7861
  154DOPC   C2318459   5.830   3.406   6.957  0.2027 -0.1188 -0.2586
  154DOPC   H3R18460   5.723   3.390   6.929 -0.0904  1.9362 -0.4479
  154DOPC   H3S18461   5.838   3.417   7.068 -1.2655 -0.3874 -0.1043
  154DOPC   C2418462   5.924   3.278   6.932 -0.0198  0.0601 -0.5117
  154DOPC   H4R18463   5.892   3.194   6.997 -1.3475  1.0310  0.1321
  154DOPC   H4S18464   6.022   3.313   6.970 -0.3403 -0.2390  0.6145
  154DOPC   C2518465   5.927   3.252   6.786  0.1753  0.6693 -0.2112
  154DOPC   H5R18466   6.007   3.176   6.775 -0.8199 -0.1957 -1.9356
  154DOPC   H5S18467   5.954   3.338   6.721  1.1168 -0.2055 -1.0215
  154DOPC   C2618468   5.798   3.191   6.732  1.0251  0.3557  0.1502
  154DOPC   H6R18469   5.736   3.181   6.824  0.7100  1.0828  0.0235
  154DOPC   H6S18470   5.810   3.088   6.693 -0.0181  0.5332 -0.6985
  154DOPC   C2718471   5.718   3.282   6.637  0.3099  0.2661 -0.2750
  154DOPC   H7R18472   5.764   3.279   6.535 -2.8027  0.0518 -1.7963
  154DOPC   H7S18473   5.733   3.389   6.665  1.9240 -0.3920  1.5520
  154DOPC   C2818474   5.565   3.257   6.630 -0.4334  0.6775  0.1765
  154DOPC   H8R18475   5.520   3.292   6.725  0.7209  1.4536  0.4525
  154DOPC   H8S18476   5.546   3.148   6.625  0.2140  0.3096  3.5566
  154DOPC   C2918477   5.491   3.330   6.517  0.7886  0.1508  0.1793
  154DOPC   H9R18478   5.439   3.423   6.544  0.5832  0.0385  0.1721
  154DOPC  C21018479   5.479   3.284   6.386 -0.6900 -0.0597 -0.2443
  154DOPC  H10R18480   5.417   3.340   6.313 -0.7853 -1.9554 -1.6841
  154DOPC  C21118481   5.531   3.163   6.313  0.3904 -0.8392 -1.3733
  154DOPC  H11R18482   5.447   3.090   6.309 -1.2339  0.9780 -2.0491
  154DOPC  H11S18483   5.611   3.116   6.373 -0.0007 -0.1144 -0.2528
  154DOPC  C21218484   5.588   3.200   6.171  0.5303  0.2636  0.1903
  154DOPC  H12R18485   5.661   3.126   6.131 -0.0675  0.4008 -1.2229
  154DOPC  H12S18486   5.653   3.290   6.181  3.0805 -1.4508 -0.0313
  154DOPC  C21318487   5.480   3.220   6.065  0.3678  0.3493  0.1319
  154DOPC  H13R18488   5.417   3.307   6.092  0.2363  0.3861 -0.2983
  154DOPC  H13S18489   5.419   3.128   6.073  0.8676 -0.1309 -1.2453
  154DOPC  C21418490   5.532   3.230   5.923  0.5461  0.1671 -0.0456
  154DOPC  H14R18491   5.610   3.151   5.916  0.2169 -0.3892  1.9460
  154DOPC  H14S18492   5.579   3.329   5.912 -2.6760  1.8036 -0.3400
  154DOPC  C21518493   5.420   3.211   5.813  0.6708  0.0510 -0.1469
  154DOPC  H15R18494   5.372   3.310   5.797  1.3265  0.2160 -1.1993
  154DOPC  H15S18495   5.352   3.131   5.849  0.0374  1.1003  1.0930
  154DOPC  C21618496   5.473   3.163   5.671 -0.2756  0.5634  0.3869
  154DOPC  H16R18497   5.509   3.058   5.671  0.7876  0.9119 -0.2830
  154DOPC  H16S18498   5.562   3.226   5.651  0.2484 -0.0042  0.8962
  154DOPC  C21718499   5.380   3.200   5.552 -0.2663 -0.6676 -0.2171
  154DOPC  H17R18500   5.343   3.305   5.546 -0.0973 -0.6932 -2.3505
  154DOPC  H17S18501   5.283   3.146   5.562 -2.2896  2.7439  0.2577
  154DOPC  C21818502   5.438   3.179   5.405 -0.5430  0.1428  0.0889
  154DOPC  H18R18503   5.357   3.198   5.331 -0.3259 -1.1995 -0.5369
  154DOPC  H18S18504   5.469   3.072   5.403  0.9756  0.4930  2.1068
  154DOPC  H18T18505   5.523   3.250   5.399 -0.5462  0.2541  1.1989
  154DOPC   C3318506   6.129   4.039   6.501 -0.1038 -0.2584  0.1783
  154DOPC   H3X18507   6.136   3.931   6.477 -4.5204 -0.2043 -2.5452
  154DOPC   H3Y18508   6.224   4.083   6.537  0.4444  0.1490 -1.6766
  154DOPC   C3418509   6.112   4.124   6.379  0.2136  0.3297 -0.0426
  154DOPC   H4X18510   6.206   4.115   6.320  0.2955 -1.3657  0.3191
  154DOPC   H4Y18511   6.110   4.230   6.413  1.1002  0.0888  0.7750
  154DOPC   C3518512   5.996   4.067   6.291  0.2513  0.2357 -0.5557
  154DOPC   H5X18513   5.898   4.060   6.342  0.7669  0.9689  0.5734
  154DOPC   H5Y18514   6.026   3.964   6.262  1.3053  0.4372 -0.2453
  154DOPC   C3618515   5.976   4.134   6.151 -0.1019 -0.3911 -0.4897
  154DOPC   H6X18516   5.987   4.240   6.184  0.3020 -0.3546 -0.7473
  154DOPC   H6Y18517   6.052   4.100   6.078  1.4702 -2.2134  1.8616
  154DOPC   C3718518   5.830   4.111   6.096 -0.5513  0.0078  0.2327
  154DOPC   H7X18519   5.810   4.002   6.088 -2.9983  0.4905 -1.2140
  154DOPC   H7Y18520   5.758   4.149   6.173 -0.3389  0.7023  0.0970
  154DOPC   C3818521   5.797   4.186   5.966 -0.5427  0.5369 -0.8226
  154DOPC   H8X18522   5.792   4.289   6.007 -0.5884  0.2009  0.0449
  154DOPC   H8Y18523   5.698   4.141   5.941  0.5651 -2.5077 -0.1629
  154DOPC   C3918524   5.894   4.170   5.849  0.5708  0.1771 -0.3618
  154DOPC   H9X18525   5.977   4.241   5.842  0.0466  1.0968  1.9561
  154DOPC  C31018526   5.888   4.075   5.754 -0.3803  0.0314  0.1206
  154DOPC  H10X18527   5.968   4.072   5.679  0.8618 -1.2020  1.4319
  154DOPC  C31118528   5.788   3.969   5.754  0.1604 -1.1931  0.2763
  154DOPC  H11X18529   5.701   4.024   5.710  0.7720 -1.0328 -0.7598
  154DOPC  H11Y18530   5.763   3.935   5.856  0.9821 -0.8934  0.5811
  154DOPC  C31218531   5.832   3.856   5.654  0.4834 -0.7377 -1.1008
  154DOPC  H12X18532   5.932   3.811   5.672  0.0697 -1.4807 -0.6087
  154DOPC  H12Y18533   5.842   3.911   5.558  1.2952 -1.2801 -1.3339
  154DOPC  C31318534   5.712   3.751   5.630 -0.5990 -0.0946  0.3585
  154DOPC  H13X18535   5.692   3.721   5.735  1.2166  0.0650  0.7859
  154DOPC  H13Y18536   5.622   3.809   5.602  1.3540  2.0938 -1.9274
  154DOPC  C31418537   5.751   3.635   5.537 -0.2383 -0.4974  0.3770
  154DOPC  H14X18538   5.787   3.668   5.437  0.3452 -1.2896  0.3196
  154DOPC  H14Y18539   5.839   3.584   5.582  0.5377  0.4466 -0.0134
  154DOPC  C31518540   5.643   3.524   5.523  0.7895 -0.0381  0.7630
  154DOPC  H15X18541   5.646   3.465   5.616  0.2678 -2.3201 -0.5914
  154DOPC  H15Y18542   5.682   3.460   5.441 -0.4934  0.5104 -0.3162
  154DOPC  C31618543   5.499   3.571   5.476 -0.2721 -0.3411 -0.7403
  154DOPC  H16X18544   5.433   3.485   5.502  0.0250 -0.8828 -1.7158
  154DOPC  H16Y18545   5.462   3.655   5.538  1.7641  0.1428 -0.1151
  154DOPC  C31718546   5.491   3.635   5.335  0.1925 -0.7875 -0.1261
  154DOPC  H17X18547   5.560   3.721   5.337 -0.6611 -0.0952  1.6164
  154DOPC  H17Y18548   5.529   3.563   5.258  0.6121  0.1598 -0.8229
  154DOPC  C31818549   5.350   3.677   5.293  0.0088  0.2970  0.0353
  154DOPC  H18X18550   5.321   3.764   5.356 -0.0811 -0.3757  0.9339
  154DOPC  H18Y18551   5.356   3.710   5.187  2.5198  1.1317  0.3897
  154DOPC  H18Z18552   5.283   3.588   5.303  1.6370 -0.8442  1.2160
  155DOPC     N18553   1.737   2.424   7.222 -0.5540 -0.5573 -0.3231
  155DOPC   C1218554   1.671   2.367   7.092  0.8454  0.5878 -0.6482
  155DOPC  H12A18555   1.596   2.435   7.054  2.3673  2.7625  0.0019
  155DOPC  H12B18556   1.622   2.275   7.120  0.8564  0.2867 -1.6044
  155DOPC   C1318557   1.634   2.483   7.313  0.2613  0.1903  0.4270
  155DOPC  H13A18558   1.584   2.563   7.261  1.4324 -0.3551 -1.6558
  155DOPC  H13B18559   1.562   2.409   7.344  0.7810 -2.4058 -3.8163
  155DOPC  H13C18560   1.683   2.533   7.396 -1.7181  1.9271  0.6429
  155DOPC   C1418561   1.820   2.546   7.175  1.0695  0.2176 -0.0560
  155DOPC  H14A18562   1.871   2.518   7.085  2.3151  1.9687  0.0493
  155DOPC  H14B18563   1.744   2.620   7.151 -2.5663 -3.2444 -0.3193
  155DOPC  H14C18564   1.890   2.578   7.251  1.5888 -0.6673 -0.1501
  155DOPC   C1518565   1.824   2.329   7.298  0.4083  0.3414 -0.0890
  155DOPC  H15A18566   1.881   2.381   7.373 -0.2328 -1.4455  1.7449
  155DOPC  H15B18567   1.887   2.274   7.229 -1.3626 -1.4701 -0.3764
  155DOPC  H15C18568   1.759   2.262   7.353 -0.2877  0.4229 -0.8038
  155DOPC   C1118569   1.757   2.333   6.970  1.3545 -0.7091 -0.0750
  155DOPC  H11A18570   1.698   2.307   6.880  0.1829  1.7347 -0.0897
  155DOPC  H11B18571   1.809   2.425   6.939  1.0562 -0.9101 -1.2115
  155DOPC     P18572   1.800   2.078   7.001 -0.0918  0.2023  0.1818
  155DOPC   O1318573   1.664   2.062   7.057  0.4980  0.5634  0.0117
  155DOPC   O1418574   1.900   1.991   7.056 -0.0064  0.0000  0.1953
  155DOPC   O1218575   1.845   2.233   7.010  0.2055  0.3876  0.0546
  155DOPC   O1118576   1.792   2.058   6.848  0.0772  0.3702  0.5652
  155DOPC    C118577   1.914   2.087   6.772  0.7334  0.5115 -0.2530
  155DOPC    HA18578   2.010   2.085   6.827 -0.2756 -2.0051  1.5884
  155DOPC    HB18579   1.904   2.186   6.723  0.3132  0.1243 -0.9670
  155DOPC    C218580   1.931   1.968   6.665  0.7903 -0.0237  0.6608
  155DOPC    HS18581   2.016   1.982   6.596  1.2843  0.5588  1.3686
  155DOPC   O2118582   1.802   1.957   6.603 -0.4064 -0.9154 -0.0127
  155DOPC   C2118583   1.780   2.052   6.512 -0.1299  0.4978 -0.5349
  155DOPC   O2218584   1.863   2.132   6.469  0.4668 -0.2646 -0.8732
  155DOPC   C2218585   1.640   2.036   6.450  0.0157  1.0777  0.0266
  155DOPC   H2R18586   1.557   2.040   6.523 -0.5192  1.0690 -0.5690
  155DOPC   H2S18587   1.633   1.933   6.409 -2.4389  0.4784  1.7908
  155DOPC    C318588   1.960   1.828   6.726 -0.0909 -0.2332  0.4179
  155DOPC    HX18589   1.870   1.801   6.784 -0.3219  0.4367  0.3704
  155DOPC    HY18590   2.045   1.847   6.795  0.8226 -0.7697 -0.5160
  155DOPC   O3118591   1.994   1.745   6.606 -0.4692 -0.6254 -0.0060
  155DOPC   C3118592   1.933   1.628   6.599  0.2456 -0.1945 -0.1352
  155DOPC   O3218593   1.872   1.581   6.693  0.3374 -0.3419 -0.7477
  155DOPC   C3218594   1.949   1.561   6.469 -0.6838  0.4824  0.2008
  155DOPC   H2X18595   2.056   1.549   6.441 -0.5291 -1.3772  1.4173
  155DOPC   H2Y18596   1.904   1.461   6.485  0.3003 -0.4030 -2.1053
  155DOPC   C2318597   1.600   2.131   6.340  0.1949 -0.3599  0.4302
  155DOPC   H3R18598   1.684   2.139   6.268 -0.0680  0.3803  0.1937
  155DOPC   H3S18599   1.593   2.229   6.391  1.2057 -0.2010  0.2763
  155DOPC   C2418600   1.461   2.097   6.283 -0.1402 -0.8626  0.2176
  155DOPC   H4R18601   1.381   2.084   6.359  2.2428 -0.3515  3.0207
  155DOPC   H4S18602   1.460   1.995   6.240  1.1283 -0.7805 -0.0503
  155DOPC   C2518603   1.418   2.193   6.171  0.0041 -0.6372  0.3423
  155DOPC   H5R18604   1.501   2.231   6.108 -0.6063  0.0635 -0.0498
  155DOPC   H5S18605   1.376   2.282   6.222 -1.0933 -0.8102 -0.2145
  155DOPC   C2618606   1.307   2.131   6.088  0.0710 -1.1418  0.2478
  155DOPC   H6R18607   1.220   2.101   6.150  0.8594 -0.2404  1.8646
  155DOPC   H6S18608   1.350   2.037   6.049  0.5204 -1.1362  0.7192
  155DOPC   C2718609   1.245   2.216   5.971 -0.1749  0.2099  1.0264
  155DOPC   H7R18610   1.215   2.315   6.010 -1.1694  0.1889  0.3533
  155DOPC   H7S18611   1.155   2.160   5.938 -0.2422  0.6293  0.4861
  155DOPC   C2818612   1.339   2.228   5.846 -0.2648 -0.4475 -0.2159
  155DOPC   H8R18613   1.368   2.123   5.824 -0.1847 -0.0930 -1.9488
  155DOPC   H8S18614   1.431   2.285   5.873 -0.5076 -0.9748  1.8438
  155DOPC   C2918615   1.266   2.280   5.724  0.4392 -0.5612 -0.1427
  155DOPC   H9R18616   1.176   2.225   5.693 -0.7834  1.6458 -0.7486
  155DOPC  C21018617   1.308   2.389   5.658 -0.1879  0.0994  0.6326
  155DOPC  H10R18618   1.265   2.411   5.559  0.2788 -1.4323  0.0500
  155DOPC  C21118619   1.424   2.477   5.687 -0.1703 -0.2781  0.1743
  155DOPC  H11R18620   1.475   2.447   5.781 -1.7126 -2.1287  0.4774
  155DOPC  H11S18621   1.389   2.582   5.694  1.1564  0.1976  0.0167
  155DOPC  C21218622   1.511   2.484   5.563 -0.1607  0.2975  0.0583
  155DOPC  H12R18623   1.452   2.541   5.488 -0.7436  0.8437  0.9103
  155DOPC  H12S18624   1.525   2.381   5.525 -0.0841  0.2952  0.0920
  155DOPC  C21318625   1.647   2.556   5.597  0.1633  0.1179  0.2985
  155DOPC  H13R18626   1.677   2.508   5.693  0.2282  2.4050  1.4710
  155DOPC  H13S18627   1.632   2.665   5.607  2.4987  0.6635 -1.3957
  155DOPC  C21418628   1.748   2.535   5.490  0.2310  0.0547 -0.0579
  155DOPC  H14R18629   1.693   2.541   5.393  2.2558  0.2470 -1.2615
  155DOPC  H14S18630   1.796   2.435   5.493  0.2444  0.0620 -0.0312
  155DOPC  C21518631   1.861   2.640   5.481 -0.4137 -0.2428  0.0981
  155DOPC  H15R18632   1.896   2.651   5.586  2.2736 -0.8520 -0.6623
  155DOPC  H15S18633   1.820   2.735   5.441 -0.4549  0.4497  1.7230
  155DOPC  C21618634   1.971   2.576   5.399  0.3321  0.0694 -0.3244
  155DOPC  H16R18635   1.908   2.524   5.324 -0.3589 -0.0692  0.3375
  155DOPC  H16S18636   2.032   2.497   5.449 -2.0966 -1.6700  0.1039
  155DOPC  C21718637   2.060   2.670   5.311 -0.0574 -0.1882 -0.1705
  155DOPC  H17R18638   2.138   2.603   5.270 -0.9632 -0.7458 -1.0107
  155DOPC  H17S18639   2.123   2.745   5.364  0.3810  0.1454 -1.1350
  155DOPC  C21818640   1.979   2.739   5.202  0.2405  0.2792 -0.6842
  155DOPC  H18R18641   1.878   2.773   5.234  0.6215  1.1779 -0.4091
  155DOPC  H18S18642   1.975   2.679   5.108 -0.7993  0.5521 -0.8287
  155DOPC  H18T18643   2.045   2.821   5.166  3.3650 -1.3336  0.8831
  155DOPC   C3318644   1.863   1.623   6.355 -0.6831  0.3176 -0.4042
  155DOPC   H3X18645   1.892   1.729   6.343 -1.0837  0.5595  0.6231
  155DOPC   H3Y18646   1.757   1.616   6.388 -0.2830 -0.8613  0.7551
  155DOPC   C3418647   1.889   1.558   6.212 -0.5283  0.2059 -0.1309
  155DOPC   H4X18648   1.866   1.450   6.230  0.8215 -0.3036 -1.2756
  155DOPC   H4Y18649   1.995   1.566   6.182  0.5296  0.3312  3.3000
  155DOPC   C3518650   1.790   1.612   6.106  0.1116 -0.0063  0.0974
  155DOPC   H5X18651   1.838   1.711   6.084 -0.4254  0.1917 -0.2028
  155DOPC   H5Y18652   1.686   1.626   6.143  0.5914 -0.2218  1.5662
  155DOPC   C3618653   1.788   1.534   5.978 -0.7119 -0.0271  0.1307
  155DOPC   H6X18654   1.890   1.503   5.946  0.6493  2.1036  2.0723
  155DOPC   H6Y18655   1.726   1.445   6.001  0.1076 -0.2190  1.7544
  155DOPC   C3718656   1.717   1.615   5.870  0.3700 -0.6279  0.5320
  155DOPC   H7X18657   1.623   1.656   5.911  1.0436  0.2440  1.2385
  155DOPC   H7Y18658   1.783   1.701   5.843 -0.0020 -0.8105 -1.0513
  155DOPC   C3818659   1.686   1.529   5.748  0.0295 -0.7911 -0.4439
  155DOPC   H8X18660   1.640   1.597   5.673  1.7971  1.0438  0.0232
  155DOPC   H8Y18661   1.610   1.451   5.769 -0.2825 -0.2438  0.5085
  155DOPC   C3918662   1.803   1.459   5.679 -0.0760  0.1077  0.2350
  155DOPC   H9X18663   1.890   1.523   5.653  0.6326 -0.7067  0.5620
  155DOPC  C31018664   1.811   1.328   5.655 -0.1803 -0.1997  0.4060
  155DOPC  H10X18665   1.910   1.291   5.626 -0.6226 -0.6430 -0.6096
  155DOPC  C31118666   1.711   1.221   5.686  0.2751  0.3524 -0.0320
  155DOPC  H11X18667   1.665   1.170   5.599  1.2310 -0.6170  0.0094
  155DOPC  H11Y18668   1.639   1.262   5.759  1.9944  1.6779  1.0133
  155DOPC  C31218669   1.767   1.106   5.774 -0.1573 -0.7497 -0.3693
  155DOPC  H12X18670   1.851   1.059   5.719  0.0827  1.4946 -2.0506
  155DOPC  H12Y18671   1.691   1.027   5.796  1.0553 -1.6177  0.8812
  155DOPC  C31318672   1.804   1.152   5.918  0.6292 -0.6883 -0.1348
  155DOPC  H13X18673   1.878   1.234   5.910 -0.6631  0.3667 -2.0748
  155DOPC  H13Y18674   1.711   1.201   5.953  0.7086 -0.0845 -0.7472
  155DOPC  C31418675   1.855   1.048   6.021 -0.2948 -0.2193 -0.2408
  155DOPC  H14X18676   1.777   0.970   6.030 -0.0997 -0.4434 -0.4769
  155DOPC  H14Y18677   1.941   0.995   5.974 -1.1060 -0.3179 -1.6554
  155DOPC  C31518678   1.895   1.108   6.157 -0.2000  0.1250  0.3353
  155DOPC  H15X18679   1.818   1.180   6.194 -1.5968 -0.6712 -0.8953
  155DOPC  H15Y18680   1.986   1.172   6.152 -0.6013  0.6468 -0.7791
  155DOPC  C31618681   1.940   0.996   6.254  0.3039  0.1847  0.0912
  155DOPC  H16X18682   1.869   0.911   6.253  0.3900  0.1004 -1.5892
  155DOPC  H16Y18683   2.044   0.961   6.236  0.9463  1.8549  0.2977
  155DOPC  C31718684   1.949   1.037   6.400  0.0014  0.1512 -0.4442
  155DOPC  H17X18685   2.031   1.108   6.420 -0.8521  1.1250 -0.3167
  155DOPC  H17Y18686   1.856   1.087   6.435  1.2380  2.4785 -0.3153
  155DOPC  C31818687   1.972   0.909   6.482  0.2384 -0.2152 -0.0491
  155DOPC  H18X18688   2.069   0.860   6.459  0.1516 -1.2673  1.6806
  155DOPC  H18Y18689   1.968   0.937   6.589  0.1895 -1.4741  0.2893
  155DOPC  H18Z18690   1.889   0.837   6.468 -0.3733  0.4361  0.1635
  156DOPC     N18691   5.766   5.617   7.128  0.2824 -0.1694 -0.3994
  156DOPC   C1218692   5.898   5.691   7.121 -0.1514 -0.4517  0.0560
  156DOPC  H12A18693   5.979   5.621   7.130  0.9247  0.7835  0.4036
  156DOPC  H12B18694   5.910   5.764   7.201 -2.8369  1.8286 -1.4468
  156DOPC   C1318695   5.761   5.557   7.265 -0.1840  0.5250 -0.1178
  156DOPC  H13A18696   5.673   5.495   7.281  0.5061 -0.1523  1.2314
  156DOPC  H13B18697   5.849   5.498   7.285 -0.5477 -0.6233 -1.6552
  156DOPC  H13C18698   5.753   5.633   7.341  0.7282 -0.5644  1.1203
  156DOPC   C1418699   5.749   5.519   7.022 -0.1185  0.6942 -0.2495
  156DOPC  H14A18700   5.716   5.567   6.931 -0.2348  2.5251  0.7106
  156DOPC  H14B18701   5.842   5.464   7.010 -0.9861 -0.9024  0.0728
  156DOPC  H14C18702   5.666   5.454   7.043  0.7172 -0.4342 -0.2965
  156DOPC   C1518703   5.648   5.716   7.116 -0.4582 -0.0270  0.8274
  156DOPC  H15A18704   5.557   5.657   7.115  0.5901 -1.7298 -0.3747
  156DOPC  H15B18705   5.661   5.778   7.029 -1.7334 -0.1047  0.5659
  156DOPC  H15C18706   5.642   5.786   7.197  4.3637  0.9169  0.6663
  156DOPC   C1118707   5.923   5.786   6.999  0.2808 -0.1480  0.1979
  156DOPC  H11A18708   6.030   5.816   6.993  0.7366 -1.8862 -0.9329
  156DOPC  H11B18709   5.919   5.732   6.902  1.2244 -0.0103  0.0646
  156DOPC     P18710   5.846   6.013   7.100  0.0480  0.0337  0.6825
  156DOPC   O1318711   5.975   6.001   7.169 -0.0029  0.0934  0.2116
  156DOPC   O1418712   5.726   6.011   7.187  0.1631  0.2511  0.3440
  156DOPC   O1218713   5.830   5.898   6.989 -0.4749  0.3038 -0.3952
  156DOPC   O1118714   5.845   6.154   7.027  0.4402  0.6745 -0.5621
  156DOPC    C118715   5.925   6.176   6.916  0.5506  0.4113  0.8696
  156DOPC    HA18716   5.960   6.084   6.864  0.1535  0.8325 -0.1765
  156DOPC    HB18717   6.016   6.228   6.953  2.5117 -0.6762 -2.0630
  156DOPC    C218718   5.857   6.268   6.811 -0.5210  0.1265 -0.0804
  156DOPC    HS18719   5.789   6.335   6.868  0.0684 -0.2161  1.0452
  156DOPC   O2118720   5.794   6.191   6.705 -0.0856 -0.7030  0.2594
  156DOPC   C2118721   5.686   6.248   6.655 -0.5955  0.2240  0.5280
  156DOPC   O2218722   5.625   6.341   6.705  0.0428  0.4568 -0.3989
  156DOPC   C2218723   5.645   6.185   6.515 -0.5972  0.4164 -0.4249
  156DOPC   H2R18724   5.563   6.110   6.528 -0.6649  0.8482  2.1170
  156DOPC   H2S18725   5.723   6.115   6.478 -2.1373 -1.5391 -0.1514
  156DOPC    C318726   5.974   6.356   6.748 -0.3359 -0.1944  0.3963
  156DOPC    HX18727   6.026   6.397   6.837  1.7739  0.9217 -1.2653
  156DOPC    HY18728   5.928   6.436   6.686  0.7491  0.9809  1.0651
  156DOPC   O3118729   6.068   6.274   6.669  0.7030 -0.2955  0.3690
  156DOPC   C3118730   6.168   6.338   6.603 -0.5528 -0.0450 -0.0601
  156DOPC   O3218731   6.175   6.459   6.582  0.1111 -0.3411 -0.2312
  156DOPC   C3218732   6.268   6.232   6.554 -0.8825 -0.1856 -0.3728
  156DOPC   H2X18733   6.341   6.292   6.494 -1.9217 -0.3054 -1.8053
  156DOPC   H2Y18734   6.329   6.184   6.634  1.4862 -0.3839 -2.1828
  156DOPC   C2318735   5.617   6.282   6.401  0.3932 -0.4565 -0.5064
  156DOPC   H3R18736   5.515   6.323   6.420 -0.0376 -1.3725 -0.7690
  156DOPC   H3S18737   5.607   6.219   6.310 -0.0797  0.7083 -1.2876
  156DOPC   C2418738   5.724   6.395   6.376  0.4963  0.4036  0.1202
  156DOPC   H4R18739   5.728   6.475   6.452 -2.4607  0.1554  0.6506
  156DOPC   H4S18740   5.699   6.425   6.272 -0.2777 -2.7081 -0.7155
  156DOPC   C2518741   5.870   6.344   6.358 -0.2776 -0.0417  0.1214
  156DOPC   H5R18742   5.859   6.285   6.265 -1.3805 -0.4568  0.5021
  156DOPC   H5S18743   5.901   6.274   6.439  1.7489 -0.4629 -0.9330
  156DOPC   C2618744   5.972   6.459   6.322  0.3329  0.4023  0.3678
  156DOPC   H6R18745   6.073   6.418   6.303  0.2984  0.5059 -0.0590
  156DOPC   H6S18746   5.978   6.525   6.412 -2.1491 -0.5741  1.3369
  156DOPC   C2718747   5.929   6.543   6.189 -0.5109 -0.0263 -0.1918
  156DOPC   H7R18748   5.831   6.590   6.213 -0.2056  1.3102 -1.3843
  156DOPC   H7S18749   5.909   6.476   6.102  0.5679 -0.4896 -0.0996
  156DOPC   C2818750   6.037   6.649   6.154 -0.7847  0.7112 -0.6188
  156DOPC   H8R18751   6.059   6.725   6.232 -2.8805 -0.4853  1.2759
  156DOPC   H8S18752   5.993   6.709   6.072  0.4038  0.8635 -1.1554
  156DOPC   C2918753   6.170   6.594   6.111 -0.4049  0.2478  0.0552
  156DOPC   H9R18754   6.248   6.577   6.187  2.4039  0.9672 -2.4685
  156DOPC  C21018755   6.211   6.583   5.978 -0.1866  0.2392  0.2247
  156DOPC  H10R18756   6.319   6.564   5.963 -0.0477  1.5370 -0.6791
  156DOPC  C21118757   6.128   6.617   5.863 -0.4661  0.6179 -0.0026
  156DOPC  H11R18758   6.132   6.724   5.832 -1.3847  0.0172 -2.4059
  156DOPC  H11S18759   6.023   6.587   5.885 -0.2620 -1.3412 -1.4316
  156DOPC  C21218760   6.147   6.523   5.744 -0.1906 -0.3750 -0.6188
  156DOPC  H12R18761   6.249   6.531   5.700 -0.8569 -0.4762 -2.2769
  156DOPC  H12S18762   6.077   6.533   5.658  0.9779  0.6919 -1.4917
  156DOPC  C21318763   6.138   6.374   5.786  0.0285  0.7954  0.2704
  156DOPC  H13R18764   6.046   6.363   5.848 -0.4913  0.6864 -0.5023
  156DOPC  H13S18765   6.230   6.348   5.842 -0.4885 -1.2216  0.2543
  156DOPC  C21418766   6.121   6.264   5.672  0.1603 -0.8294 -0.7784
  156DOPC  H14R18767   6.209   6.265   5.605 -0.9873 -0.0141 -2.3475
  156DOPC  H14S18768   6.034   6.309   5.620 -1.8484 -0.2388  2.7409
  156DOPC  C21518769   6.085   6.122   5.712  0.0616 -0.3610  0.2862
  156DOPC  H15R18770   6.058   6.075   5.615  0.5907 -0.6684  0.2783
  156DOPC  H15S18771   6.001   6.110   5.783  1.0778 -0.9301  1.4299
  156DOPC  C21618772   6.204   6.034   5.766 -0.2023 -0.3043 -0.5238
  156DOPC  H16R18773   6.249   6.086   5.853  0.2163  0.9987 -1.4932
  156DOPC  H16S18774   6.283   6.042   5.689  2.1169 -0.0005  1.7736
  156DOPC  C21718775   6.167   5.892   5.790  0.6013  0.0572 -0.2241
  156DOPC  H17R18776   6.165   5.829   5.699  0.5257  1.7108 -1.3957
  156DOPC  H17S18777   6.062   5.889   5.828  0.3709  1.1611 -0.7511
  156DOPC  C21818778   6.260   5.829   5.893  0.0025 -0.3024  0.4002
  156DOPC  H18R18779   6.366   5.835   5.860 -0.4250  1.6819 -0.7723
  156DOPC  H18S18780   6.219   5.727   5.908 -0.8031 -0.3526 -1.7922
  156DOPC  H18T18781   6.261   5.888   5.988  3.3414 -0.1869  0.4436
  156DOPC   C3318782   6.203   6.137   6.450 -0.1894 -0.2137 -0.4747
  156DOPC   H3X18783   6.122   6.191   6.397 -0.9028  0.3616  1.1319
  156DOPC   H3Y18784   6.153   6.055   6.505 -1.1738 -0.7982 -2.1716
  156DOPC   C3418785   6.303   6.085   6.350  0.1158  0.1652  0.1221
  156DOPC   H4X18786   6.253   6.007   6.289 -0.6129 -0.4437  1.4616
  156DOPC   H4Y18787   6.386   6.038   6.405  1.0087  0.2628 -1.0909
  156DOPC   C3518788   6.379   6.181   6.264 -0.7057 -0.4350 -0.1744
  156DOPC   H5X18789   6.479   6.191   6.311 -1.2350 -2.2165  1.4551
  156DOPC   H5Y18790   6.338   6.284   6.264  0.2825 -0.0150 -1.1530
  156DOPC   C3618791   6.412   6.122   6.122  0.4056  0.7329 -0.2436
  156DOPC   H6X18792   6.459   6.023   6.140 -1.4976 -0.0348  0.8082
  156DOPC   H6Y18793   6.323   6.105   6.058  0.5531 -0.2365 -0.1994
  156DOPC   C3718794   6.514   6.199   6.039  0.0028  0.5815  0.4350
  156DOPC   H7X18795   6.477   6.296   5.998 -0.3709  0.8045  1.2640
  156DOPC   H7Y18796   6.586   6.236   6.115 -1.0690  0.5044  1.5313
  156DOPC   C3818797   6.563   6.114   5.921 -0.2575  0.7534  0.4717
  156DOPC   H8X18798   6.480   6.095   5.850  2.1490  0.9298 -2.5991
  156DOPC   H8Y18799   6.583   6.006   5.939  0.2437  0.2712 -2.4485
  156DOPC   C3918800   6.686   6.174   5.861  1.0620  0.3525 -0.0009
  156DOPC   H9X18801   6.773   6.175   5.929  0.9343  1.3463  0.1673
  156DOPC  C31018802   6.684   6.231   5.740 -0.5038 -0.4165  1.1044
  156DOPC  H10X18803   6.771   6.269   5.686 -1.6659  0.6339 -0.0968
  156DOPC  C31118804   6.565   6.245   5.645  0.0851 -0.6328 -0.7219
  156DOPC  H11X18805   6.580   6.337   5.585 -1.2989 -0.3881 -0.7106
  156DOPC  H11Y18806   6.468   6.247   5.699 -0.0103 -2.1308 -0.7778
  156DOPC  C31218807   6.557   6.128   5.544 -0.2893  0.0447  0.0734
  156DOPC  H12X18808   6.525   6.031   5.585 -0.2943 -0.4786 -1.1358
  156DOPC  H12Y18809   6.649   6.120   5.481  0.2068 -1.2751  0.9163
  156DOPC  C31318810   6.447   6.157   5.439  0.0079 -0.4694  0.6265
  156DOPC  H13X18811   6.352   6.133   5.491 -0.6628 -0.0598 -0.3694
  156DOPC  H13Y18812   6.449   6.264   5.409 -0.1142 -0.5335  0.3854
  156DOPC  C31418813   6.459   6.085   5.301  0.3263  0.3313 -0.2934
  156DOPC  H14X18814   6.549   6.128   5.252 -0.5410 -0.6334 -2.9191
  156DOPC  H14Y18815   6.490   5.980   5.320 -0.4430  0.3723  1.3931
  156DOPC  C31518816   6.336   6.075   5.206  0.2779 -0.2642  0.1166
  156DOPC  H15X18817   6.368   6.017   5.118 -2.5526 -1.7491 -0.0358
  156DOPC  H15Y18818   6.297   6.174   5.172  0.9790 -0.0359 -0.0477
  156DOPC  C31618819   6.227   5.980   5.265 -0.9175 -0.7507  0.0712
  156DOPC  H16X18820   6.280   5.889   5.299  1.2755  0.3574 -0.1949
  156DOPC  H16Y18821   6.193   6.034   5.356 -1.3310 -1.2827  0.2359
  156DOPC  C31718822   6.103   5.959   5.183  0.7597 -0.5208  0.2565
  156DOPC  H17X18823   6.127   5.895   5.096  2.8408  1.4081 -0.6775
  156DOPC  H17Y18824   6.037   5.893   5.244  2.4683  0.0593  2.9461
  156DOPC  C31818825   6.026   6.087   5.143 -0.3477 -0.5569  0.6527
  156DOPC  H18X18826   5.921   6.059   5.122 -0.3306  0.2078 -0.4923
  156DOPC  H18Y18827   6.039   6.165   5.221  0.2438  0.1321 -0.1219
  156DOPC  H18Z18828   6.065   6.132   5.050 -0.2204  2.8625  2.2162
  157DOPC     N18829   5.609   2.380   7.266  0.6044 -0.5047 -0.3520
  157DOPC   C1218830   5.763   2.372   7.280  0.2999  0.1798  0.3066
  157DOPC  H12A18831   5.790   2.383   7.384 -0.0650 -0.0565  0.4291
  157DOPC  H12B18832   5.799   2.464   7.236 -1.0539 -0.1460 -1.5744
  157DOPC   C1318833   5.563   2.265   7.346  0.8346  0.4629  0.0575
  157DOPC  H13A18834   5.606   2.174   7.308 -2.2484 -1.3452  0.5397
  157DOPC  H13B18835   5.590   2.270   7.451  1.1619 -2.1821  0.1645
  157DOPC  H13C18836   5.457   2.253   7.328  1.1944 -0.1304 -1.8376
  157DOPC   C1418837   5.570   2.355   7.129 -1.2522 -0.2562 -0.8303
  157DOPC  H14A18838   5.626   2.269   7.097 -0.8997 -0.7502  1.0089
  157DOPC  H14B18839   5.467   2.323   7.129 -1.7357  1.2023 -0.5282
  157DOPC  H14C18840   5.589   2.430   7.054 -0.7416 -1.3898 -1.8571
  157DOPC   C1518841   5.562   2.516   7.315 -0.3063 -0.0658 -0.1820
  157DOPC  H15A18842   5.460   2.530   7.280 -1.8153 -3.0217  2.5353
  157DOPC  H15B18843   5.622   2.601   7.287  2.0678 -0.0632  4.1601
  157DOPC  H15C18844   5.552   2.522   7.422  1.6120  1.2284 -0.0381
  157DOPC   C1118845   5.837   2.251   7.226 -0.2517  0.0143 -0.4988
  157DOPC  H11A18846   5.943   2.278   7.246 -0.1203 -0.5288 -0.4425
  157DOPC  H11B18847   5.816   2.159   7.286  1.1832 -1.5988 -2.3423
  157DOPC     P18848   5.894   2.312   6.982  0.0551  0.1206  0.2987
  157DOPC   O1318849   6.039   2.281   6.985  0.0601  0.0800  0.1792
  157DOPC   O1418850   5.862   2.453   6.998  0.5603  0.0047 -0.8922
  157DOPC   O1218851   5.815   2.230   7.086 -0.3694 -0.3639  0.2921
  157DOPC   O1118852   5.834   2.242   6.853 -0.5138  0.7297 -0.6425
  157DOPC    C118853   5.699   2.258   6.821 -0.0160  0.4922  0.1460
  157DOPC    HA18854   5.665   2.363   6.812  1.2382  1.0129  1.1362
  157DOPC    HB18855   5.633   2.212   6.898  2.8457  1.3012  3.3503
  157DOPC    C218856   5.668   2.184   6.690 -0.7891 -0.1420 -0.5958
  157DOPC    HS18857   5.715   2.083   6.696 -0.2505  0.1411  0.1404
  157DOPC   O2118858   5.725   2.263   6.586 -0.5330  0.5059 -0.3928
  157DOPC   C2118859   5.856   2.245   6.564  0.4850 -0.6552 -0.3249
  157DOPC   O2218860   5.930   2.157   6.597  0.6688  0.4237  0.1792
  157DOPC   C2218861   5.897   2.380   6.499 -0.5333 -0.2745 -0.3383
  157DOPC   H2R18862   5.910   2.455   6.580 -3.7175  1.3539 -1.1676
  157DOPC   H2S18863   5.814   2.413   6.433  0.4065 -0.1120 -1.4708
  157DOPC    C318864   5.517   2.171   6.663  0.3281 -0.1143 -0.0406
  157DOPC    HX18865   5.470   2.267   6.693 -2.6925 -0.9193 -1.7879
  157DOPC    HY18866   5.471   2.109   6.742 -1.2225  0.9441 -0.0847
  157DOPC   O3118867   5.487   2.135   6.529  0.0092 -0.3614  0.4855
  157DOPC   C3118868   5.515   2.010   6.495 -0.2300  0.1677  0.2364
  157DOPC   O3218869   5.548   1.918   6.570  0.2935  0.0271  0.0058
  157DOPC   C3218870   5.489   1.986   6.344  0.8276 -0.3386 -0.2874
  157DOPC   H2X18871   5.435   2.078   6.310 -0.1083 -0.3008  1.1883
  157DOPC   H2Y18872   5.585   1.968   6.293  0.4548 -0.8606 -0.8134
  157DOPC   C2318873   6.028   2.365   6.408  0.8895  0.0212 -1.1257
  157DOPC   H3R18874   6.111   2.327   6.470 -0.3346  0.2592  0.7456
  157DOPC   H3S18875   6.059   2.466   6.372 -0.8669  0.1261 -2.5067
  157DOPC   C2418876   6.000   2.273   6.288  0.3458 -0.5499 -0.3719
  157DOPC   H4R18877   5.942   2.187   6.328  0.7509 -0.7072 -0.1100
  157DOPC   H4S18878   6.095   2.234   6.246  1.8029  2.2793  0.0064
  157DOPC   C2518879   5.911   2.342   6.181 -0.6457 -0.0013 -0.5440
  157DOPC   H5R18880   5.956   2.429   6.128  0.2018 -1.3570 -2.1621
  157DOPC   H5S18881   5.818   2.372   6.233  0.2921  2.4377 -0.1277
  157DOPC   C2618882   5.890   2.259   6.057 -0.0993 -0.1778  1.2519
  157DOPC   H6R18883   5.988   2.219   6.024 -0.3240  0.0645  0.2682
  157DOPC   H6S18884   5.842   2.318   5.976 -1.4133 -0.5671  1.7208
  157DOPC   C2718885   5.798   2.132   6.073 -0.7707 -0.0195 -0.3018
  157DOPC   H7R18886   5.706   2.161   6.128  1.3627  1.0433  3.0239
  157DOPC   H7S18887   5.841   2.050   6.134 -0.0848  1.4276  1.2298
  157DOPC   C2818888   5.742   2.088   5.941  0.5307 -0.1534  0.4028
  157DOPC   H8R18889   5.678   2.173   5.908  0.9405  0.2492  0.6320
  157DOPC   H8S18890   5.673   2.000   5.946 -0.2063  0.2052 -2.1284
  157DOPC   C2918891   5.846   2.067   5.833 -0.4954  0.6394 -0.3418
  157DOPC   H9R18892   5.945   2.034   5.869 -1.1176 -2.2958 -1.0088
  157DOPC  C21018893   5.825   2.079   5.700 -0.1477  0.7063  0.0894
  157DOPC  H10R18894   5.909   2.060   5.631  0.0523 -1.2807  0.8043
  157DOPC  C21118895   5.696   2.118   5.636 -0.1928 -0.8131 -1.0417
  157DOPC  H11R18896   5.701   2.229   5.626  3.6605 -0.5577  1.5792
  157DOPC  H11S18897   5.602   2.104   5.695  0.7654  0.0044  0.7637
  157DOPC  C21218898   5.669   2.030   5.513  0.1118  0.1229  0.6896
  157DOPC  H12R18899   5.678   1.920   5.521 -1.5796 -0.0298  0.8023
  157DOPC  H12S18900   5.733   2.079   5.436  0.0132  0.8784  1.0727
  157DOPC  C21318901   5.522   2.031   5.470 -0.7746 -0.9490 -0.8129
  157DOPC  H13R18902   5.486   2.133   5.496  2.6146  0.5053 -1.2093
  157DOPC  H13S18903   5.465   1.962   5.536  0.0946 -0.5016  0.4582
  157DOPC  C21418904   5.501   1.980   5.334  0.4255  0.3562 -0.3847
  157DOPC  H14R18905   5.535   1.875   5.325 -1.1733 -0.4056  1.6110
  157DOPC  H14S18906   5.556   2.048   5.266 -0.2906  2.1266  0.7418
  157DOPC  C21518907   5.358   1.991   5.283  0.3714  0.0539 -0.5125
  157DOPC  H15R18908   5.320   2.094   5.300  1.5992  0.3110  0.8220
  157DOPC  H15S18909   5.291   1.924   5.340  2.3560  0.3193  2.3215
  157DOPC  C21618910   5.361   1.960   5.136  0.3626 -0.1767  0.0268
  157DOPC  H16R18911   5.385   1.853   5.122 -1.3136 -0.3217 -2.1472
  157DOPC  H16S18912   5.442   2.015   5.083 -0.7163 -0.3860 -1.9064
  157DOPC  C21718913   5.222   1.963   5.064 -0.0918 -0.0080  0.1653
  157DOPC  H17R18914   5.192   2.070   5.064 -0.0310  0.0393 -1.6918
  157DOPC  H17S18915   5.153   1.893   5.115  0.2461 -0.9506 -0.6438
  157DOPC  C21818916   5.232   1.924   4.915  0.0113 -0.3755  0.0058
  157DOPC  H18R18917   5.135   1.899   4.867  0.3160 -2.0625  0.1979
  157DOPC  H18S18918   5.303   1.840   4.899  2.6669  1.4446  1.5064
  157DOPC  H18T18919   5.267   2.014   4.860 -0.0556  0.1935  0.8725
  157DOPC   C3318920   5.401   1.860   6.340 -0.2977 -1.3080 -0.5736
  157DOPC   H3X18921   5.323   1.888   6.414  0.6173  2.2352 -0.7727
  157DOPC   H3Y18922   5.447   1.768   6.382 -1.5745 -1.7133 -0.0076
  157DOPC   C3418923   5.331   1.832   6.203 -0.3913  0.0737 -0.8219
  157DOPC   H4X18924   5.251   1.904   6.178 -0.1792  0.0346 -1.6252
  157DOPC   H4Y18925   5.277   1.735   6.209 -1.5309  0.7709  2.2608
  157DOPC   C3518926   5.430   1.816   6.081 -0.1712  0.4460 -0.3253
  157DOPC   H5X18927   5.517   1.749   6.100 -0.3639 -0.1867 -1.5193
  157DOPC   H5Y18928   5.481   1.913   6.061  1.4601  0.4306  3.0499
  157DOPC   C3618929   5.378   1.766   5.951 -0.0790  0.4790  1.0879
  157DOPC   H6X18930   5.327   1.670   5.976 -1.0715  1.1089  1.5779
  157DOPC   H6Y18931   5.303   1.838   5.912 -0.3428  0.5727  1.7463
  157DOPC   C3718932   5.475   1.732   5.831 -0.2940 -0.2927  0.5274
  157DOPC   H7X18933   5.511   1.831   5.795 -1.2160 -0.0215  0.3255
  157DOPC   H7Y18934   5.564   1.674   5.862 -0.3643 -0.9345 -0.4207
  157DOPC   C3818935   5.392   1.663   5.721 -0.5697  0.2236 -0.0746
  157DOPC   H8X18936   5.305   1.724   5.688  0.7268  2.0011 -0.3019
  157DOPC   H8Y18937   5.354   1.562   5.750 -2.6550  1.1434  0.6140
  157DOPC   C3918938   5.477   1.660   5.593 -0.4995 -0.1550 -0.3286
  157DOPC   H9X18939   5.552   1.740   5.587 -2.3355  1.5285 -2.1813
  157DOPC  C31018940   5.473   1.571   5.494  0.0993  0.0007  0.7171
  157DOPC  H10X18941   5.536   1.598   5.408  0.5091  1.0662  1.3327
  157DOPC  C31118942   5.378   1.456   5.466 -0.7400  0.5740  0.1469
  157DOPC  H11X18943   5.334   1.434   5.566 -1.0285  0.8421  0.0813
  157DOPC  H11Y18944   5.429   1.360   5.444 -0.8083  0.6756 -0.4739
  157DOPC  C31218945   5.257   1.487   5.385  0.0083 -0.5195  0.4973
  157DOPC  H12X18946   5.214   1.588   5.404 -0.5246 -1.3177  4.1163
  157DOPC  H12Y18947   5.176   1.414   5.402 -1.6176  0.6466 -1.6390
  157DOPC  C31318948   5.303   1.488   5.232  0.2140 -0.4812 -0.0324
  157DOPC  H13X18949   5.370   1.574   5.213  0.5007 -0.2710  1.7950
  157DOPC  H13Y18950   5.356   1.395   5.205  0.1972 -0.6060  0.3649
  157DOPC  C31418951   5.188   1.507   5.126 -0.9153 -0.4577  0.1956
  157DOPC  H14X18952   5.103   1.451   5.171 -0.2671 -0.6845  1.1605
  157DOPC  H14Y18953   5.165   1.615   5.118  1.9577  0.3134  1.1372
  157DOPC  C31518954   5.225   1.441   4.987 -0.0556  0.7085 -0.2306
  157DOPC  H15X18955   5.132   1.440   4.926 -0.4524 -2.3887  0.2685
  157DOPC  H15Y18956   5.266   1.340   5.007  1.6659  1.2797 -0.6267
  157DOPC  C31618957   5.341   1.515   4.911  0.2210  0.3798  0.4464
  157DOPC  H16X18958   5.308   1.621   4.903 -2.4695 -0.4314 -0.3916
  157DOPC  H16Y18959   5.437   1.519   4.966 -0.8723 -0.0019  2.4572
  157DOPC  C31718960   5.370   1.447   4.770 -1.1318  0.3910 -0.0414
  157DOPC  H17X18961   5.382   1.338   4.783 -1.5986  0.0268 -2.3370
  157DOPC  H17Y18962   5.274   1.446   4.714 -0.4948 -2.1536 -1.1905
  157DOPC  C31818963   5.498   1.511   4.702 -0.2643  0.8079 -0.4834
  157DOPC  H18X18964   5.584   1.520   4.771  0.6528  0.3319 -1.5289
  157DOPC  H18Y18965   5.536   1.445   4.621  0.2801 -0.6735  0.9275
  157DOPC  H18Z18966   5.474   1.614   4.667  0.2644  0.5314 -1.7094
  158DOPC     N18967   3.158   0.008   6.903  0.1220  0.4403 -0.3445
  158DOPC   C1218968   3.273  -0.081   6.934 -0.1339 -0.0270  0.4413
  158DOPC  H12A18969   3.260  -0.186   6.914  2.9775 -0.1160 -1.8644
  158DOPC  H12B18970   3.304  -0.076   7.037  4.3676 -0.7583 -0.6892
  158DOPC   C1318971   3.180   0.151   6.923  0.4284 -0.1625  0.2819
  158DOPC  H13A18972   3.239   0.165   7.013 -0.4432 -2.4079  1.2827
  158DOPC  H13B18973   3.230   0.199   6.840  0.9651  1.0218  1.2490
  158DOPC  H13C18974   3.086   0.204   6.927  0.6861  0.3324 -0.0913
  158DOPC   C1418975   3.039  -0.037   6.978 -0.0665 -0.8102 -0.3636
  158DOPC  H14A18976   3.073  -0.052   7.080  2.5119 -0.1213 -1.0527
  158DOPC  H14B18977   2.961   0.037   6.972 -0.8155 -1.5836 -0.2656
  158DOPC  H14C18978   3.010  -0.134   6.943 -2.0199 -0.3240 -0.1956
  158DOPC   C1518979   3.113  -0.013   6.758 -0.0801 -0.3096  0.5907
  158DOPC  H15A18980   3.060  -0.107   6.755 -0.7541 -0.0561  2.6944
  158DOPC  H15B18981   3.202  -0.022   6.697 -0.1224  0.8420  0.3377
  158DOPC  H15C18982   3.056   0.068   6.716  3.9791  2.2320 -0.6221
  158DOPC   C1118983   3.407  -0.038   6.868  0.4277  0.1839  0.3274
  158DOPC  H11A18984   3.435   0.065   6.898  0.5105 -0.2070  1.6530
  158DOPC  H11B18985   3.494  -0.097   6.906 -0.4076 -0.7702  0.8204
  158DOPC     P18986   3.418  -0.178   6.641 -0.0460 -0.1222 -0.3127
  158DOPC   O1318987   3.372  -0.299   6.712 -0.2402  0.2050 -0.0023
  158DOPC   O1418988   3.545  -0.178   6.577 -0.4111 -0.1780 -0.5208
  158DOPC   O1218989   3.403  -0.044   6.726 -0.3094 -0.7095  0.0440
  158DOPC   O1118990   3.308  -0.157   6.535 -0.0167 -0.5463 -0.4578
  158DOPC    C118991   3.318  -0.212   6.397  0.3247  0.1223 -0.3419
  158DOPC    HA18992   3.225  -0.245   6.345 -0.9496  1.5572  0.9427
  158DOPC    HB18993   3.373  -0.309   6.397 -1.0846 -0.7985 -3.2214
  158DOPC    C218994   3.387  -0.108   6.316 -0.4142  0.2661  0.0092
  158DOPC    HS18995   3.454  -0.045   6.378 -1.5113 -0.2280  1.7776
  158DOPC   O2118996   3.295  -0.024   6.242 -0.2345 -0.0076 -0.0030
  158DOPC   C2118997   3.352   0.099   6.220 -0.2856 -0.1057  0.1747
  158DOPC   O2218998   3.464   0.137   6.252 -0.2803  0.2304  0.2318
  158DOPC   C2218999   3.256   0.183   6.134 -0.6492  0.0224  0.0149
  158DOPC   H2R19000   3.196   0.233   6.214  2.0460  0.7553  1.7089
  158DOPC   H2S19001   3.184   0.113   6.085  0.7744 -2.1850  0.9259
  158DOPC    C319002   3.480  -0.179   6.213  0.1624  0.2549  0.4436
  158DOPC    HX19003   3.528  -0.103   6.147 -0.7032  1.5174  1.2183
  158DOPC    HY19004   3.412  -0.223   6.137  0.5254 -0.0713  0.3028
  158DOPC   O3119005   3.574  -0.279   6.259  0.5148 -0.3410  0.3070
  158DOPC   C3119006   3.678  -0.228   6.325  0.2912  0.4208 -0.0462
  158DOPC   O3219007   3.702  -0.107   6.340  0.5021  0.4477  0.3418
  158DOPC   C3219008   3.744  -0.334   6.406  0.1911 -0.0785 -0.0380
  158DOPC   H2X19009   3.820  -0.291   6.476  1.6743 -0.5464 -1.2985
  158DOPC   H2Y19010   3.657  -0.375   6.462 -0.7619  1.9302  0.0346
  158DOPC   C2319011   3.333   0.279   6.039 -1.0188 -0.0584 -0.1248
  158DOPC   H3R19012   3.395   0.348   6.101 -0.2836  0.6316 -1.5648
  158DOPC   H3S19013   3.261   0.340   5.980 -2.2028  2.6985  3.7976
  158DOPC   C2419014   3.430   0.204   5.945 -0.0277  0.1950 -0.4350
  158DOPC   H4R19015   3.509   0.149   6.000  1.7760  3.9899  1.1469
  158DOPC   H4S19016   3.478   0.290   5.893 -0.3440  0.1591 -0.7921
  158DOPC   C2519017   3.363   0.104   5.845  0.1976 -0.2832  0.3459
  158DOPC   H5R19018   3.262   0.140   5.813  0.4248  0.3365  0.3101
  158DOPC   H5S19019   3.338   0.006   5.890 -0.6455  0.1803  0.9183
  158DOPC   C2619020   3.443   0.093   5.720  0.1369 -0.5772 -0.6246
  158DOPC   H6R19021   3.526   0.022   5.742 -1.1209 -1.7908  0.3450
  158DOPC   H6S19022   3.486   0.190   5.687  0.1752 -0.0181  0.9916
  158DOPC   C2719023   3.369   0.036   5.602  0.1993 -0.3552  0.0062
  158DOPC   H7R19024   3.286   0.105   5.575  0.4593 -0.7976 -2.1211
  158DOPC   H7S19025   3.322  -0.058   5.638 -0.5555 -0.1363 -0.3706
  158DOPC   C2819026   3.450   0.007   5.472 -0.3793 -1.0183 -0.3478
  158DOPC   H8R19027   3.520   0.092   5.460  0.8085 -2.0000 -0.5867
  158DOPC   H8S19028   3.368   0.015   5.397 -2.3321  1.1182  1.8372
  158DOPC   C2919029   3.529  -0.122   5.488 -0.8849  0.3888  0.2327
  158DOPC   H9R19030   3.609  -0.121   5.564  1.2450  1.1188 -1.8919
  158DOPC  C21019031   3.509  -0.236   5.421  0.3767 -0.0782 -0.3550
  158DOPC  H10R19032   3.584  -0.313   5.444  1.0984  1.2732  2.1614
  158DOPC  C21119033   3.406  -0.271   5.318  0.7368  0.3045 -0.2602
  158DOPC  H11R19034   3.389  -0.181   5.255 -1.2033 -1.5109 -2.5101
  158DOPC  H11S19035   3.313  -0.302   5.369  2.1625  1.0046  3.0362
  158DOPC  C21219036   3.450  -0.389   5.229  0.1880  0.0867 -0.4015
  158DOPC  H12R19037   3.363  -0.423   5.168 -1.2919  1.4923  0.8318
  158DOPC  H12S19038   3.471  -0.482   5.286 -0.2251  0.4697  0.3846
  158DOPC  C21319039   3.558  -0.355   5.127 -0.3386  0.8525  0.1351
  158DOPC  H13R19040   3.651  -0.327   5.181  1.1959 -3.1056 -0.0899
  158DOPC  H13S19041   3.523  -0.271   5.063 -2.8739  1.9446  2.7621
  158DOPC  C21419042   3.592  -0.477   5.038  0.2688  0.0706  0.3364
  158DOPC  H14R19043   3.508  -0.504   4.971  1.2129 -0.8624 -0.4991
  158DOPC  H14S19044   3.622  -0.560   5.105  1.9624  1.2523  1.1308
  158DOPC  C21519045   3.714  -0.454   4.938  0.6350  0.1023 -0.6853
  158DOPC  H15R19046   3.805  -0.435   4.999  1.1478 -1.4364 -0.9044
  158DOPC  H15S19047   3.708  -0.371   4.865  2.6811  0.0279 -1.0170
  158DOPC  C21619048   3.740  -0.574   4.842 -0.3965 -0.1679  0.0740
  158DOPC  H16R19049   3.741  -0.668   4.900 -2.5379 -0.0590  0.3696
  158DOPC  H16S19050   3.829  -0.543   4.782 -2.3946  0.0507 -3.0048
  158DOPC  C21719051   3.622  -0.587   4.744  0.5434 -0.0068  0.0988
  158DOPC  H17R19052   3.604  -0.485   4.703 -1.9251 -0.8713 -1.1375
  158DOPC  H17S19053   3.533  -0.615   4.804  1.1673  1.6861  1.9431
  158DOPC  C21819054   3.635  -0.688   4.629 -0.7502  0.0413  0.5477
  158DOPC  H18R19055   3.628  -0.795   4.660 -2.4589  0.2234  0.8884
  158DOPC  H18S19056   3.731  -0.663   4.580 -0.2499  0.0511  1.5122
  158DOPC  H18T19057   3.563  -0.684   4.544  0.2463 -0.9774 -0.3709
  158DOPC   C3319058   3.822  -0.431   6.318  0.7032  0.1577  0.2115
  158DOPC   H3X19059   3.879  -0.493   6.390  0.7182 -0.4514 -0.3150
  158DOPC   H3Y19060   3.889  -0.374   6.250 -0.8465  0.4176 -1.1542
  158DOPC   C3419061   3.738  -0.533   6.230 -0.1802 -0.1239  0.9171
  158DOPC   H4X19062   3.682  -0.477   6.152 -0.6696 -0.6924  0.8453
  158DOPC   H4Y19063   3.671  -0.597   6.291 -0.2767 -0.4112  0.5144
  158DOPC   C3519064   3.819  -0.632   6.144 -0.0572 -0.0467  0.0169
  158DOPC   H5X19065   3.869  -0.707   6.210  0.3881 -0.6214 -0.9499
  158DOPC   H5Y19066   3.893  -0.576   6.084 -0.7111  1.3349  0.4743
  158DOPC   C3619067   3.716  -0.710   6.062  0.9001  0.1510 -0.0925
  158DOPC   H6X19068   3.660  -0.771   6.136 -0.2377  1.0681 -0.1580
  158DOPC   H6Y19069   3.643  -0.647   6.006  0.1228 -2.3937 -2.0831
  158DOPC   C3719070   3.792  -0.804   5.971 -0.1276  0.5245 -0.7310
  158DOPC   H7X19071   3.857  -0.737   5.910  1.1989  1.7027  1.7972
  158DOPC   H7Y19072   3.850  -0.882   6.025 -1.0137  0.1676 -0.2892
  158DOPC   C3819073   3.689  -0.870   5.879  0.1909  0.3424  0.2130
  158DOPC   H8X19074   3.751  -0.916   5.799 -2.0819 -1.4532 -0.6307
  158DOPC   H8Y19075   3.631  -0.783   5.840 -0.5440 -0.5848 -0.8450
  158DOPC   C3919076   3.607  -0.975   5.957 -0.5622  0.5046  0.1170
  158DOPC   H9X19077   3.664  -1.022   6.038  1.7599 -0.5242 -1.9672
  158DOPC  C31019078   3.481  -1.008   5.942 -0.3413  0.3230  1.3098
  158DOPC  H10X19079   3.433  -1.083   6.008 -0.2851 -2.0715 -1.1843
  158DOPC  C31119080   3.389  -0.944   5.841 -0.2059  0.6776 -0.2822
  158DOPC  H11X19081   3.437  -0.860   5.786  1.0819  0.0766 -0.0948
  158DOPC  H11Y19082   3.299  -0.905   5.894 -0.6574  1.3855 -1.5133
  158DOPC  C31219083   3.332  -1.049   5.741 -0.1353  0.4794  0.1525
  158DOPC  H12X19084   3.269  -1.124   5.793 -0.6000  0.4967 -0.3796
  158DOPC  H12Y19085   3.420  -1.104   5.703  0.0223  1.3433 -0.7808
  158DOPC  C31319086   3.257  -0.989   5.630 -0.5363 -0.0453  0.2575
  158DOPC  H13X19087   3.184  -0.910   5.658  0.2622  0.1153  2.0589
  158DOPC  H13Y19088   3.329  -0.942   5.560 -1.1258 -1.3281 -1.2604
  158DOPC  C31419089   3.196  -1.091   5.535  0.8962  0.0485 -0.1100
  158DOPC  H14X19090   3.271  -1.159   5.488  0.1798 -0.4095 -0.6150
  158DOPC  H14Y19091   3.120  -1.149   5.593  0.8631  0.2907  0.0893
  158DOPC  C31519092   3.111  -1.032   5.415  0.1323 -0.3594  0.1755
  158DOPC  H15X19093   3.184  -1.011   5.335  1.9586 -0.0039  1.8524
  158DOPC  H15Y19094   3.058  -0.937   5.441 -2.1713 -1.4187 -0.3929
  158DOPC  C31619095   3.012  -1.136   5.363 -0.3830 -0.0629  0.7861
  158DOPC  H16X19096   2.942  -1.169   5.443  0.3320 -1.6014  0.8013
  158DOPC  H16Y19097   2.966  -1.089   5.274  0.3199 -0.9801 -0.0863
  158DOPC  C31719098   3.083  -1.263   5.303 -0.1272 -0.7067 -0.7565
  158DOPC  H17X19099   3.155  -1.230   5.225 -1.8644 -2.1432 -3.0771
  158DOPC  H17Y19100   3.153  -1.309   5.377  0.3998  0.3354 -0.5815
  158DOPC  C31819101   2.998  -1.370   5.239 -0.4443  0.1565 -0.4281
  158DOPC  H18X19102   2.925  -1.314   5.178  1.0779  1.4618 -1.1379
  158DOPC  H18Y19103   3.056  -1.447   5.184  0.3383  0.6248 -0.2861
  158DOPC  H18Z19104   2.940  -1.431   5.312  0.1165 -1.0193 -0.9378
  159DOPC     N19105   7.378   2.450   7.298  0.6519 -0.2810 -0.7163
  159DOPC   C1219106   7.408   2.560   7.192 -0.3955  0.6019  0.0071
  159DOPC  H12A19107   7.513   2.559   7.166 -0.6801  1.4288 -1.2518
  159DOPC  H12B19108   7.380   2.661   7.219  2.0359  1.1972  0.4947
  159DOPC   C1319109   7.230   2.438   7.333 -0.5937  0.1705  0.9918
  159DOPC  H13A19110   7.187   2.527   7.377 -1.8787 -0.9103  1.9997
  159DOPC  H13B19111   7.183   2.420   7.237 -0.1071  0.7745  0.6292
  159DOPC  H13C19112   7.210   2.351   7.392 -2.4156  0.2806  0.6039
  159DOPC   C1419113   7.461   2.482   7.416 -0.1509  0.4490 -0.2749
  159DOPC  H14A19114   7.564   2.464   7.390  0.0887 -0.0980  0.9508
  159DOPC  H14B19115   7.443   2.578   7.462  0.4887  0.1147  0.7259
  159DOPC  H14C19116   7.441   2.401   7.485  0.3886  0.8792  0.3938
  159DOPC   C1519117   7.422   2.322   7.244  0.2042 -0.4480  0.0954
  159DOPC  H15A19118   7.529   2.309   7.253  0.0962 -1.2193  0.3886
  159DOPC  H15B19119   7.397   2.316   7.139  0.3849 -0.5453  0.0554
  159DOPC  H15C19120   7.379   2.235   7.291 -2.7545  1.5592  1.3602
  159DOPC   C1119121   7.339   2.535   7.046  0.6105 -0.1294 -0.3277
  159DOPC  H11A19122   7.384   2.606   6.973  2.2758  1.7903  2.3710
  159DOPC  H11B19123   7.359   2.431   7.012 -3.1951 -0.7782 -1.0159
  159DOPC     P19124   7.127   2.694   7.068 -0.3913 -0.5375  0.0057
  159DOPC   O1319125   7.199   2.785   7.161 -0.0343  0.1075  0.1268
  159DOPC   O1419126   6.988   2.658   7.099  0.7198 -0.3492  0.4892
  159DOPC   O1219127   7.200   2.554   7.051  0.0981  0.0562  0.3078
  159DOPC   O1119128   7.112   2.758   6.924 -0.2153 -0.4093  0.3772
  159DOPC    C119129   7.150   2.687   6.807 -0.0027 -0.5380 -0.1962
  159DOPC    HA19130   7.143   2.577   6.825  0.8964 -0.4739  0.6696
  159DOPC    HB19131   7.259   2.696   6.784  0.1874 -0.6821  0.6073
  159DOPC    C219132   7.077   2.730   6.676  0.2253 -0.4656 -0.1864
  159DOPC    HS19133   7.085   2.659   6.591  0.1448  2.0696 -2.4521
  159DOPC   O2119134   7.124   2.856   6.624  0.1030 -0.5864  0.2666
  159DOPC   C2119135   7.219   2.844   6.536  0.5594 -0.1691  0.0439
  159DOPC   O2219136   7.263   2.734   6.497 -0.2856  0.1041  0.2219
  159DOPC   C2219137   7.285   2.971   6.491 -1.1144 -0.2136 -0.1803
  159DOPC   H2R19138   7.388   2.959   6.532 -1.2651 -0.4643  0.1240
  159DOPC   H2S19139   7.226   3.056   6.532 -0.9170  0.7736 -1.8688
  159DOPC    C319140   6.928   2.736   6.709  0.8262  0.4798 -0.2825
  159DOPC    HX19141   6.925   2.815   6.787 -1.2818  2.9083 -2.6093
  159DOPC    HY19142   6.881   2.639   6.734 -3.0175  2.1706 -0.1956
  159DOPC   O3119143   6.857   2.785   6.593 -0.5646 -0.0394  0.3745
  159DOPC   C3119144   6.744   2.843   6.630 -0.2700 -0.1955 -0.7953
  159DOPC   O3219145   6.707   2.866   6.745 -0.2418  0.0246 -0.1313
  159DOPC   C3219146   6.681   2.887   6.502 -0.3355 -0.3805  0.2475
  159DOPC   H2X19147   6.753   2.938   6.434 -0.0452 -1.9519 -0.6658
  159DOPC   H2Y19148   6.658   2.795   6.444  0.4827  0.8292 -2.1006
  159DOPC   C2319149   7.283   2.987   6.338 -0.7496  0.6250 -1.0511
  159DOPC   H3R19150   7.190   2.949   6.291  1.1733 -1.7388 -3.2197
  159DOPC   H3S19151   7.362   2.926   6.289  0.3783 -0.2253  1.6411
  159DOPC   C2419152   7.309   3.133   6.299  0.0576  0.3385  0.4721
  159DOPC   H4R19153   7.406   3.167   6.342  0.0636  1.1832 -0.1880
  159DOPC   H4S19154   7.228   3.202   6.331 -2.1861 -1.1348 -1.6848
  159DOPC   C2519155   7.314   3.154   6.144  0.1910  0.0677 -0.1115
  159DOPC   H5R19156   7.211   3.168   6.107  0.2197 -0.8469 -0.5660
  159DOPC   H5S19157   7.350   3.068   6.082  0.4165  0.0612  0.0249
  159DOPC   C2619158   7.405   3.272   6.104  0.3999  0.3338 -0.1593
  159DOPC   H6R19159   7.509   3.243   6.130  0.2064 -0.3699 -0.1552
  159DOPC   H6S19160   7.379   3.359   6.169 -0.4272 -0.2724  0.3513
  159DOPC   C2719161   7.383   3.333   5.970 -0.1045  0.0085  0.2381
  159DOPC   H7R19162   7.276   3.359   5.949 -0.9887 -2.2711  1.5975
  159DOPC   H7S19163   7.397   3.258   5.889  2.7312 -0.2787  0.9200
  159DOPC   C2819164   7.482   3.454   5.937 -0.1197 -0.4043 -0.0950
  159DOPC   H8R19165   7.584   3.420   5.910  0.2535  1.4465 -1.1835
  159DOPC   H8S19166   7.496   3.518   6.027  1.0559  1.4960 -1.5484
  159DOPC   C2919167   7.439   3.530   5.814  0.3249  0.8094  0.6455
  159DOPC   H9R19168   7.493   3.504   5.721 -3.0354  0.1464 -1.2559
  159DOPC  C21019169   7.325   3.597   5.800  0.6262  0.5856  0.4651
  159DOPC  H10R19170   7.299   3.660   5.714 -2.2963  2.7162  2.7165
  159DOPC  C21119171   7.221   3.606   5.909  0.1266 -0.0387 -0.0407
  159DOPC  H11R19172   7.264   3.560   6.001 -1.0882 -0.8453  0.1556
  159DOPC  H11S19173   7.132   3.550   5.873  0.7512 -1.6897  0.8481
  159DOPC  C21219174   7.187   3.758   5.926  0.0958  0.0016  1.0327
  159DOPC  H12R19175   7.114   3.768   6.009  0.1975 -0.3255  1.1676
  159DOPC  H12S19176   7.145   3.789   5.828 -0.8859 -0.5949  1.2495
  159DOPC  C21319177   7.307   3.850   5.952 -0.6168  0.0737 -0.0030
  159DOPC  H13R19178   7.371   3.863   5.862 -1.7092  1.4038 -0.6399
  159DOPC  H13S19179   7.372   3.803   6.029 -0.4865  1.4570  0.7641
  159DOPC  C21419180   7.268   3.988   6.002 -0.6293  0.3466  0.5379
  159DOPC  H14R19181   7.364   4.040   6.024  0.2343 -1.0267  0.1469
  159DOPC  H14S19182   7.212   3.964   6.095 -1.6292 -1.2911 -0.4513
  159DOPC  C21519183   7.172   4.065   5.910  0.4476 -0.8754  0.6065
  159DOPC  H15R19184   7.149   4.168   5.945  1.0693 -0.7325  0.5956
  159DOPC  H15S19185   7.073   4.013   5.905  1.0036 -1.8342 -1.0390
  159DOPC  C21619186   7.234   4.083   5.768  0.4731  0.7509 -0.2373
  159DOPC  H16R19187   7.278   3.988   5.731 -0.0872  0.3030  0.2240
  159DOPC  H16S19188   7.312   4.162   5.772  0.0716  1.1745 -0.5195
  159DOPC  C21719189   7.133   4.127   5.666  0.5720 -0.7299  0.6085
  159DOPC  H17R19190   7.194   4.152   5.576  1.0837  0.0383  1.1601
  159DOPC  H17S19191   7.075   4.217   5.693 -1.0100 -0.9314 -1.8243
  159DOPC  C21819192   7.029   4.030   5.621 -0.0085  0.2004 -0.2238
  159DOPC  H18R19193   6.956   4.009   5.702  2.4606  0.9705  2.3583
  159DOPC  H18S19194   7.082   3.934   5.605  1.6558  0.8745  0.9733
  159DOPC  H18T19195   6.979   4.057   5.526 -0.3096 -1.3352 -0.5299
  159DOPC   C3319196   6.558   2.976   6.529  0.1131  0.2858 -0.0620
  159DOPC   H3X19197   6.583   3.066   6.589 -0.8393  1.0785 -0.8244
  159DOPC   H3Y19198   6.488   2.918   6.593 -0.5282  0.3523 -0.6917
  159DOPC   C3419199   6.476   3.005   6.403 -0.1994 -0.6892 -0.0094
  159DOPC   H4X19200   6.385   3.062   6.431  1.6954  1.1627  3.0925
  159DOPC   H4Y19201   6.456   2.908   6.353  0.9671  0.1420 -2.2682
  159DOPC   C3519202   6.545   3.094   6.294  0.6417 -0.0759  1.0152
  159DOPC   H5X19203   6.642   3.050   6.264  0.7139 -0.4904  1.8471
  159DOPC   H5Y19204   6.575   3.191   6.338 -0.1813  0.8057 -0.2679
  159DOPC   C3619205   6.462   3.115   6.164  0.3755 -0.2023 -0.0521
  159DOPC   H6X19206   6.357   3.104   6.196  0.9259 -0.1432  1.9157
  159DOPC   H6Y19207   6.486   3.213   6.119  2.9881 -1.0137 -0.6483
  159DOPC   C3719208   6.473   3.001   6.063  0.1939 -0.1359 -0.0934
  159DOPC   H7X19209   6.582   3.003   6.044  0.1766  1.5409 -0.1909
  159DOPC   H7Y19210   6.461   2.894   6.093  2.0331 -0.0326  1.1537
  159DOPC   C3819211   6.388   3.028   5.943  0.2610 -0.0401 -0.0957
  159DOPC   H8X19212   6.384   3.137   5.923  5.3084  0.6626  1.3171
  159DOPC   H8Y19213   6.283   3.000   5.966 -0.2028  2.0435  0.5305
  159DOPC   C3919214   6.434   2.952   5.821 -0.1706  0.5779  0.4241
  159DOPC   H9X19215   6.437   2.843   5.836 -1.6309  0.5675  0.7231
  159DOPC  C31019216   6.471   3.008   5.696  0.9807  0.0896 -0.9513
  159DOPC  H10X19217   6.510   2.944   5.616 -0.0012 -0.8050 -0.7488
  159DOPC  C31119218   6.464   3.159   5.670 -0.1122 -0.2855  0.5978
  159DOPC  H11X19219   6.509   3.224   5.749  0.7764  1.7112 -1.4182
  159DOPC  H11Y19220   6.363   3.198   5.647  0.4742  1.1119  0.2170
  159DOPC  C31219221   6.556   3.195   5.543 -0.1647  0.0311 -0.5770
  159DOPC  H12X19222   6.657   3.153   5.560  1.3496  2.7294 -2.1466
  159DOPC  H12Y19223   6.564   3.306   5.541  2.6354 -0.0443  1.0394
  159DOPC  C31319224   6.503   3.146   5.411  0.0156 -0.5908  0.0683
  159DOPC  H13X19225   6.585   3.133   5.337 -0.1429  2.6118 -0.8149
  159DOPC  H13Y19226   6.444   3.052   5.420 -0.7510 -0.1395 -0.1990
  159DOPC  C31419227   6.410   3.247   5.348 -0.6361 -1.0449 -0.4256
  159DOPC  H14X19228   6.317   3.265   5.406  0.7746  0.0340  1.6009
  159DOPC  H14Y19229   6.456   3.347   5.339 -0.2277 -1.3219 -1.6668
  159DOPC  C31519230   6.356   3.207   5.205  0.9976  0.7719  0.0106
  159DOPC  H15X19231   6.447   3.164   5.158  1.5656 -1.8677  3.1369
  159DOPC  H15Y19232   6.316   3.296   5.152 -1.2934  1.2854  2.4192
  159DOPC  C31619233   6.249   3.090   5.211  0.1044  0.5259  0.9295
  159DOPC  H16X19234   6.301   2.992   5.215  1.3794  0.8698 -2.8073
  159DOPC  H16Y19235   6.181   3.088   5.299  1.4552  0.9522  2.0108
  159DOPC  C31719236   6.167   3.091   5.080 -0.0955 -0.9805  0.3141
  159DOPC  H17X19237   6.142   3.197   5.058 -0.8693 -1.1031  0.5646
  159DOPC  H17Y19238   6.243   3.064   5.004  1.0131 -1.3094  1.5029
  159DOPC  C31819239   6.046   3.006   5.063  0.6500 -0.1713  0.5785
  159DOPC  H18X19240   6.007   3.029   4.962  1.4691 -0.6730  0.1385
  159DOPC  H18Y19241   6.073   2.898   5.065  2.5713  0.2028 -1.2508
  159DOPC  H18Z19242   5.965   3.018   5.139 -0.6117  1.1225 -0.8948
  160DOPC     N19243   2.077   5.779   6.896 -0.1846  0.1479  0.0545
  160DOPC   C1219244   1.954   5.824   6.820 -0.8305  0.2191  1.0692
  160DOPC  H12A19245   1.992   5.898   6.752 -0.9872  0.5092  1.2937
  160DOPC  H12B19246   1.891   5.874   6.892  0.0785  0.3345  1.7944
  160DOPC   C1319247   2.153   5.891   6.969 -0.4626 -0.1907  0.4788
  160DOPC  H13A19248   2.185   5.969   6.902  1.9923 -0.9902  0.6421
  160DOPC  H13B19249   2.099   5.937   7.050 -0.8054  0.6072 -0.1911
  160DOPC  H13C19250   2.244   5.850   7.010  1.0747  2.0326 -0.5524
  160DOPC   C1419251   2.171   5.697   6.805 -0.6442 -0.4407  0.8282
  160DOPC  H14A19252   2.263   5.665   6.851  0.8048 -0.6516 -1.9859
  160DOPC  H14B19253   2.113   5.613   6.770 -0.3653 -0.7676  1.1534
  160DOPC  H14C19254   2.211   5.757   6.725 -1.2546 -0.0159  0.8278
  160DOPC   C1519255   2.034   5.685   7.004 -0.4363  0.6817 -0.0215
  160DOPC  H15A19256   1.988   5.597   6.961 -2.4724  0.6251  2.0835
  160DOPC  H15B19257   1.964   5.727   7.075 -1.5057 -0.6706 -0.2188
  160DOPC  H15C19258   2.119   5.642   7.056 -0.3371  1.0235  0.1031
  160DOPC   C1119259   1.867   5.723   6.744 -0.7088  0.0619  0.1953
  160DOPC  H11A19260   1.790   5.768   6.678  0.3813  1.0189 -0.4675
  160DOPC  H11B19261   1.939   5.675   6.674  0.3656  0.6806  0.8341
  160DOPC     P19262   1.675   5.645   6.905  0.4894  0.3403 -0.1644
  160DOPC   O1319263   1.692   5.761   6.993  0.6439 -0.2790  0.4917
  160DOPC   O1419264   1.638   5.516   6.961  0.0394 -0.0189 -0.2301
  160DOPC   O1219265   1.812   5.622   6.827  0.8932  0.0265 -0.0683
  160DOPC   O1119266   1.572   5.678   6.789 -0.1922 -0.2901  0.3588
  160DOPC    C119267   1.540   5.577   6.684  0.0678 -0.2733 -1.0196
  160DOPC    HA19268   1.430   5.560   6.689  0.3550 -2.3253 -0.4544
  160DOPC    HB19269   1.588   5.479   6.704 -0.3806 -0.2779  0.0760
  160DOPC    C219270   1.576   5.621   6.544  0.0164 -0.2905 -0.5319
  160DOPC    HS19271   1.687   5.619   6.537  0.0754  1.3960 -0.3407
  160DOPC   O2119272   1.529   5.752   6.512  0.0335  0.1127  0.1219
  160DOPC   C2119273   1.603   5.827   6.439 -0.6905  0.0324  0.0088
  160DOPC   O2219274   1.720   5.796   6.400  0.1139  0.5622 -0.0277
  160DOPC   C2219275   1.535   5.962   6.398  0.2244  0.0532 -0.1871
  160DOPC   H2R19276   1.612   6.028   6.354  0.9232 -2.0904 -2.3732
  160DOPC   H2S19277   1.495   6.014   6.488  3.3352  3.0442 -0.3112
  160DOPC    C319278   1.522   5.513   6.438  0.1914 -0.1371  0.0399
  160DOPC    HX19279   1.412   5.530   6.435  0.2335  0.2361  0.4842
  160DOPC    HY19280   1.540   5.412   6.480  0.3231 -0.0250  0.2496
  160DOPC   O3119281   1.584   5.526   6.306  0.3046 -0.1546  0.4909
  160DOPC   C3119282   1.680   5.439   6.273 -1.0226  0.5005 -0.3526
  160DOPC   O3219283   1.710   5.335   6.333  0.3793 -0.2616 -0.1722
  160DOPC   C3219284   1.734   5.477   6.144  0.1992  0.0380 -0.9974
  160DOPC   H2X19285   1.649   5.509   6.080  0.0587  0.2263 -0.7170
  160DOPC   H2Y19286   1.806   5.561   6.151 -1.4397  1.4254  0.0105
  160DOPC   C2319287   1.432   5.949   6.283  0.2114 -0.1834 -0.2671
  160DOPC   H3R19288   1.466   5.874   6.208  0.8729 -0.8445  0.6653
  160DOPC   H3S19289   1.430   6.055   6.249 -2.2646 -0.0103  0.2408
  160DOPC   C2419290   1.293   5.918   6.328 -0.3960  0.4440 -0.6068
  160DOPC   H4R19291   1.250   5.988   6.403 -2.5294 -1.8025  0.3854
  160DOPC   H4S19292   1.276   5.824   6.384 -0.3666  1.0548  0.4480
  160DOPC   C2519293   1.194   5.929   6.207  0.1902 -0.8716  0.7565
  160DOPC   H5R19294   1.210   6.031   6.166 -0.5672 -0.9322  0.2850
  160DOPC   H5S19295   1.090   5.917   6.243  0.1782  0.5311  1.2513
  160DOPC   C2619296   1.220   5.818   6.098  0.3002 -0.0554 -1.0198
  160DOPC   H6R19297   1.319   5.837   6.052  0.4208 -1.7129 -1.4928
  160DOPC   H6S19298   1.145   5.843   6.020 -0.1567 -0.7837 -0.8187
  160DOPC   C2719299   1.214   5.678   6.151  0.0229 -0.6158 -0.6928
  160DOPC   H7R19300   1.120   5.662   6.207  0.2227  0.9395  0.1642
  160DOPC   H7S19301   1.297   5.663   6.223 -0.2050  0.3496 -0.2115
  160DOPC   C2819302   1.237   5.573   6.042  0.0845 -0.1696 -0.6796
  160DOPC   H8R19303   1.161   5.572   5.961  0.2644 -2.9100 -0.9226
  160DOPC   H8S19304   1.205   5.475   6.083  0.9780  0.0348  0.5721
  160DOPC   C2919305   1.371   5.557   5.973  0.2091  0.1493  0.4678
  160DOPC   H9R19306   1.443   5.496   6.030  0.5138 -0.0724 -0.1358
  160DOPC  C21019307   1.409   5.612   5.854 -0.1237  0.2419  0.5403
  160DOPC  H10R19308   1.517   5.605   5.834 -0.4083  1.2864 -1.5716
  160DOPC  C21119309   1.340   5.703   5.760  0.5641  0.1172  0.8108
  160DOPC  H11R19310   1.395   5.799   5.771  3.0110 -1.2502  1.2817
  160DOPC  H11S19311   1.234   5.708   5.792 -0.3382 -0.6066 -1.8555
  160DOPC  C21219312   1.356   5.662   5.621 -0.4214  0.1474  0.4835
  160DOPC  H12R19313   1.321   5.557   5.613  0.5433 -0.0719 -1.3873
  160DOPC  H12S19314   1.464   5.654   5.598 -0.3135  1.0800  0.6163
  160DOPC  C21319315   1.281   5.742   5.512 -0.4635  0.2438 -0.6209
  160DOPC  H13R19316   1.318   5.847   5.507  1.7186 -0.4402  0.0450
  160DOPC  H13S19317   1.175   5.759   5.542 -0.4081  1.9142 -1.2696
  160DOPC  C21419318   1.286   5.683   5.373 -0.2780  0.4307 -0.5520
  160DOPC  H14R19319   1.197   5.728   5.323 -1.6021 -0.0879  1.2254
  160DOPC  H14S19320   1.273   5.573   5.363 -0.2230  0.4298 -0.6168
  160DOPC  C21519321   1.418   5.715   5.301  0.5747  0.2797 -0.7297
  160DOPC  H15R19322   1.505   5.683   5.363 -0.7727 -1.2731  0.4729
  160DOPC  H15S19323   1.413   5.823   5.278 -0.9069 -0.1071 -2.4985
  160DOPC  C21619324   1.416   5.641   5.166 -0.7838 -0.6768  0.3034
  160DOPC  H16R19325   1.316   5.664   5.124 -0.6079 -0.5011 -0.0252
  160DOPC  H16S19326   1.422   5.532   5.184  3.5377 -0.6094  0.3540
  160DOPC  C21719327   1.531   5.683   5.078  0.2560  0.2431  0.8146
  160DOPC  H17R19328   1.625   5.682   5.136  1.9161 -2.2019 -1.6781
  160DOPC  H17S19329   1.510   5.791   5.061  0.4263 -0.0184 -1.2619
  160DOPC  C21819330   1.546   5.620   4.944 -0.8429  1.1230  0.0932
  160DOPC  H18R19331   1.635   5.664   4.895  0.6068 -1.0818  0.6129
  160DOPC  H18S19332   1.462   5.640   4.873  1.7500  2.1145 -2.9391
  160DOPC  H18T19333   1.572   5.513   4.960 -1.2809  0.9781 -0.1502
  160DOPC   C3319334   1.799   5.361   6.068 -0.6717 -0.0539 -0.5195
  160DOPC   H3X19335   1.757   5.264   6.103  0.4968 -0.1778  0.5914
  160DOPC   H3Y19336   1.907   5.365   6.093 -1.0530  0.1628  1.2065
  160DOPC   C3419337   1.790   5.377   5.913 -0.2501 -0.2283  0.1078
  160DOPC   H4X19338   1.866   5.319   5.857 -0.6708  0.7096 -1.4831
  160DOPC   H4Y19339   1.800   5.480   5.872  2.8402  0.0089  1.1745
  160DOPC   C3519340   1.662   5.319   5.858 -0.5688  0.6478 -0.3928
  160DOPC   H5X19341   1.584   5.347   5.932 -1.3927  0.4595 -1.1652
  160DOPC   H5Y19342   1.663   5.208   5.858 -2.4451  0.5962  0.5101
  160DOPC   C3619343   1.634   5.362   5.710  0.6152  0.4606 -0.3118
  160DOPC   H6X19344   1.525   5.342   5.700  1.1120 -1.5775 -2.2983
  160DOPC   H6Y19345   1.659   5.468   5.690  1.3766  0.1618 -0.9699
  160DOPC   C3719346   1.699   5.264   5.610  0.1629  0.1649 -0.3066
  160DOPC   H7X19347   1.807   5.254   5.635  0.1185 -1.4491 -0.6332
  160DOPC   H7Y19348   1.659   5.162   5.628  0.0090  0.2380 -0.2349
  160DOPC   C3819349   1.701   5.317   5.466 -0.2042  0.2676 -0.9533
  160DOPC   H8X19350   1.766   5.252   5.403 -0.0291  0.4969 -1.0112
  160DOPC   H8Y19351   1.752   5.415   5.463  0.0990  0.0898 -2.1519
  160DOPC   C3919352   1.559   5.319   5.405 -0.0167 -0.5502  0.4567
  160DOPC   H9X19353   1.484   5.371   5.467  0.5109  0.5742  0.1733
  160DOPC  C31019354   1.527   5.263   5.280  0.7333  0.4525 -0.4744
  160DOPC  H10X19355   1.424   5.275   5.245  0.6465  1.3888  0.0684
  160DOPC  C31119356   1.609   5.198   5.173 -0.2111 -0.5594  0.2339
  160DOPC  H11X19357   1.707   5.177   5.220 -0.1747 -1.6935 -0.3222
  160DOPC  H11Y19358   1.629   5.277   5.098  2.1672 -2.2640 -1.0494
  160DOPC  C31219359   1.536   5.086   5.104  0.5172  0.0997 -0.5165
  160DOPC  H12X19360   1.458   5.123   5.034  1.6742  0.1049 -1.8417
  160DOPC  H12Y19361   1.488   5.027   5.185  1.6206  2.1307  1.7473
  160DOPC  C31319362   1.626   4.983   5.032 -0.5234 -0.7203  0.4579
  160DOPC  H13X19363   1.676   5.032   4.946  2.2854 -2.5622  0.9271
  160DOPC  H13Y19364   1.700   4.950   5.107  0.2625 -1.3912 -0.5943
  160DOPC  C31419365   1.557   4.855   4.978  0.1323  0.7334 -0.0356
  160DOPC  H14X19366   1.510   4.800   5.062 -0.7453  0.9129 -0.3977
  160DOPC  H14Y19367   1.478   4.895   4.910 -0.2363  1.6140  0.8812
  160DOPC  C31519368   1.653   4.758   4.911  0.3319  0.5348 -0.1829
  160DOPC  H15X19369   1.718   4.702   4.982  0.1001 -0.9076 -1.0676
  160DOPC  H15Y19370   1.725   4.822   4.855  0.8654 -1.0531 -1.3723
  160DOPC  C31619371   1.584   4.657   4.821  0.1011  0.1899  0.2739
  160DOPC  H16X19372   1.520   4.587   4.878  0.8014  0.3135  1.2438
  160DOPC  H16Y19373   1.514   4.716   4.758  0.1954  2.7314  2.3488
  160DOPC  C31719374   1.676   4.573   4.733  0.3634 -0.1065 -0.5805
  160DOPC  H17X19375   1.745   4.643   4.681  0.5299 -0.8185 -1.3246
  160DOPC  H17Y19376   1.740   4.518   4.805 -0.7005  0.0477  0.5251
  160DOPC  C31819377   1.600   4.498   4.628 -1.2394  0.1590 -0.9690
  160DOPC  H18X19378   1.675   4.468   4.552 -1.3044 -0.0868 -0.9362
  160DOPC  H18Y19379   1.548   4.410   4.671 -0.5462  0.0191 -0.4036
  160DOPC  H18Z19380   1.526   4.563   4.575 -0.4006  0.4837 -1.7583
  161DOPC     N19381   4.161   0.728   7.208 -0.2020  0.1190  0.2705
  161DOPC   C1219382   4.260   0.674   7.105  0.0672 -0.7704 -0.0539
  161DOPC  H12A19383   4.341   0.615   7.146  2.1115  0.8607 -1.4816
  161DOPC  H12B19384   4.309   0.756   7.055  0.5416 -0.7555  0.4145
  161DOPC   C1319385   4.080   0.620   7.267  0.7264 -0.3725 -0.0856
  161DOPC  H13A19386   4.021   0.573   7.189 -0.7346  3.6906 -1.7027
  161DOPC  H13B19387   4.144   0.545   7.310  1.4778  0.5845  0.5065
  161DOPC  H13C19388   4.027   0.665   7.350 -0.4151 -3.4076  0.9845
  161DOPC   C1419389   4.066   0.829   7.152  0.1857 -0.2234  0.4378
  161DOPC  H14A19390   4.023   0.889   7.231  0.4504  0.4640  0.0686
  161DOPC  H14B19391   4.112   0.888   7.073 -0.4048 -1.8130 -1.1525
  161DOPC  H14C19392   3.976   0.785   7.113 -0.3467 -1.1873  2.6359
  161DOPC   C1519393   4.231   0.793   7.318 -0.5279  0.1083  0.0331
  161DOPC  H15A19394   4.308   0.727   7.355 -0.7400 -1.0353 -1.4299
  161DOPC  H15B19395   4.162   0.808   7.399 -0.8212  1.2841 -0.4130
  161DOPC  H15C19396   4.278   0.886   7.289 -3.2890  0.9533 -2.1762
  161DOPC   C1119397   4.207   0.591   6.988  1.0111 -0.4694  0.6583
  161DOPC  H11A19398   4.291   0.566   6.920 -0.3795  1.0747 -1.7285
  161DOPC  H11B19399   4.168   0.494   7.028 -1.4877  0.6622  1.1294
  161DOPC     P19400   3.969   0.609   6.875  0.0940 -0.5012 -0.3858
  161DOPC   O1319401   3.887   0.725   6.831 -0.6055 -0.3045  0.2165
  161DOPC   O1419402   3.907   0.535   6.986  0.2120 -0.5372  0.3799
  161DOPC   O1219403   4.110   0.659   6.913  0.0553  0.0597 -0.1523
  161DOPC   O1119404   3.984   0.505   6.753 -0.3361 -0.3565  0.1389
  161DOPC    C119405   4.110   0.444   6.722  0.0422 -0.1394 -0.2188
  161DOPC    HA19406   4.142   0.385   6.811 -1.1564  1.2966  1.2328
  161DOPC    HB19407   4.193   0.513   6.696  1.9401 -1.6977  1.3196
  161DOPC    C219408   4.094   0.331   6.612  0.0360 -0.1911 -0.4205
  161DOPC    HS19409   4.184   0.267   6.612  0.7160  0.7407 -0.4171
  161DOPC   O2119410   4.056   0.389   6.484 -0.3046  0.1961  0.0161
  161DOPC   C2119411   4.142   0.458   6.423 -0.2065 -0.4417 -0.3570
  161DOPC   O2219412   4.252   0.493   6.464 -0.7540  0.5294  0.6769
  161DOPC   C2219413   4.084   0.485   6.290  0.0737 -0.1874  0.3422
  161DOPC   H2R19414   4.008   0.566   6.295  0.0338 -0.1737 -0.3596
  161DOPC   H2S19415   4.029   0.394   6.260  1.6109 -0.5160 -1.7231
  161DOPC    C319416   3.978   0.229   6.656  0.2913  0.6371  0.6766
  161DOPC    HX19417   3.899   0.305   6.674 -0.9747 -0.5267  0.2459
  161DOPC    HY19418   4.010   0.190   6.755  0.4722  0.3298  0.4985
  161DOPC   O3119419   3.953   0.136   6.543  0.4456  0.2754  0.1830
  161DOPC   C3119420   4.042   0.033   6.536  0.3693 -0.1916  0.0342
  161DOPC   O3219421   4.125   0.003   6.619  0.0327 -0.1436 -0.1442
  161DOPC   C3219422   4.021  -0.030   6.407  0.8438  0.8068 -0.2250
  161DOPC   H2X19423   3.941  -0.107   6.419  0.4391  1.2688  0.0630
  161DOPC   H2Y19424   3.969   0.042   6.340 -1.8160  0.2283  1.0653
  161DOPC   C2319425   4.196   0.543   6.187  0.3785  0.7700 -0.3830
  161DOPC   H3R19426   4.291   0.501   6.225 -0.8019  0.0558  1.9860
  161DOPC   H3S19427   4.195   0.654   6.199  0.1445  0.6271  1.2124
  161DOPC   C2419428   4.168   0.508   6.045  0.0834  0.0309 -0.0049
  161DOPC   H4R19429   4.081   0.560   5.999  0.7377 -0.3414 -1.7285
  161DOPC   H4S19430   4.158   0.399   6.028  1.0429  0.0617 -0.8367
  161DOPC   C2519431   4.285   0.553   5.949 -0.1218  0.2442 -0.7728
  161DOPC   H5R19432   4.377   0.515   5.999 -1.0042 -0.2552  0.5154
  161DOPC   H5S19433   4.283   0.664   5.955  1.4198  0.2146  2.4745
  161DOPC   C2619434   4.269   0.503   5.810 -0.0911  0.4616  0.4102
  161DOPC   H6R19435   4.167   0.535   5.781  0.3020  0.4451 -1.0608
  161DOPC   H6S19436   4.265   0.392   5.811 -1.2766  0.4826 -0.6756
  161DOPC   C2719437   4.375   0.559   5.704  0.5846 -0.4438 -0.0349
  161DOPC   H7R19438   4.476   0.538   5.745  0.7592  0.8098  0.2327
  161DOPC   H7S19439   4.353   0.665   5.678  0.4503 -0.8884 -1.8655
  161DOPC   C2819440   4.377   0.470   5.576  0.5939 -0.2139  0.1796
  161DOPC   H8R19441   4.273   0.475   5.539  0.3117 -1.7944  0.6888
  161DOPC   H8S19442   4.403   0.366   5.605 -0.0107  0.1935  2.3407
  161DOPC   C2919443   4.478   0.530   5.474  0.5877 -0.2939  0.6862
  161DOPC   H9R19444   4.579   0.488   5.485  0.6126 -0.3055  0.4002
  161DOPC  C21019445   4.452   0.617   5.378  0.4499 -0.0723  0.5632
  161DOPC  H10R19446   4.528   0.637   5.301 -0.3557 -2.1775 -0.8896
  161DOPC  C21119447   4.319   0.683   5.345  1.1805  0.1153  0.3200
  161DOPC  H11R19448   4.334   0.793   5.339 -0.3227  0.3927  1.0588
  161DOPC  H11S19449   4.242   0.662   5.422  0.5842  0.1946 -0.2477
  161DOPC  C21219450   4.273   0.630   5.207  0.5359 -0.6649  0.1626
  161DOPC  H12R19451   4.361   0.633   5.140 -0.9436 -0.7512 -1.8849
  161DOPC  H12S19452   4.196   0.694   5.157  1.4903 -0.7967 -1.5539
  161DOPC  C21319453   4.203   0.490   5.217 -0.8620  0.7611 -0.0562
  161DOPC  H13R19454   4.139   0.486   5.308 -0.5730 -1.5639  0.1142
  161DOPC  H13S19455   4.282   0.415   5.237 -1.7152  0.2351  1.5724
  161DOPC  C21419456   4.123   0.461   5.091 -0.4522  0.9778 -0.6108
  161DOPC  H14R19457   4.111   0.350   5.086 -1.9561  1.0656  0.3809
  161DOPC  H14S19458   4.186   0.484   5.003 -0.5608 -0.9453 -1.2338
  161DOPC  C21519459   3.988   0.531   5.091 -0.0839  0.8234  0.5481
  161DOPC  H15R19460   4.016   0.634   5.122  1.3694  0.8006 -0.5707
  161DOPC  H15S19461   3.913   0.482   5.157  1.3320 -0.5802  1.1981
  161DOPC  C21619462   3.927   0.531   4.949  0.1683 -0.2619  0.1826
  161DOPC  H16R19463   4.010   0.547   4.878 -0.9547 -2.3490 -1.7426
  161DOPC  H16S19464   3.854   0.615   4.947 -0.9324 -1.1367  1.4720
  161DOPC  C21719465   3.872   0.401   4.898 -0.3599  0.2809 -0.0755
  161DOPC  H17R19466   3.764   0.390   4.924  0.2596 -4.6155  1.4231
  161DOPC  H17S19467   3.917   0.310   4.944  2.4319  1.2694 -0.6934
  161DOPC  C21819468   3.882   0.388   4.746  0.6885  0.3884 -0.9974
  161DOPC  H18R19469   3.986   0.392   4.708  1.3028 -3.2279 -0.1082
  161DOPC  H18S19470   3.829   0.477   4.705 -1.9179 -0.7482 -0.2882
  161DOPC  H18T19471   3.834   0.294   4.712  0.1178  0.4337 -0.3472
  161DOPC   C3319472   4.154  -0.095   6.347  0.5085  0.1097 -0.4658
  161DOPC   H3X19473   4.188  -0.186   6.401  1.0328  0.8734  0.5189
  161DOPC   H3Y19474   4.229  -0.017   6.371 -1.0684  1.2271  1.1482
  161DOPC   C3419475   4.145  -0.117   6.200 -1.0472 -0.4402  0.3369
  161DOPC   H4X19476   4.139  -0.019   6.147 -0.3703 -1.4542 -1.7097
  161DOPC   H4Y19477   4.060  -0.188   6.187 -2.2905  0.9076  0.7886
  161DOPC   C3519478   4.279  -0.175   6.160  0.1653  0.1588  0.3054
  161DOPC   H5X19479   4.286  -0.266   6.224 -2.0069 -1.1449 -1.1691
  161DOPC   H5Y19480   4.359  -0.111   6.204  1.6802 -1.4972  0.1067
  161DOPC   C3619481   4.294  -0.211   6.010  0.5629 -0.8187  0.0293
  161DOPC   H6X19482   4.391  -0.252   5.976 -1.0045 -2.6436 -2.6094
  161DOPC   H6Y19483   4.218  -0.287   5.979 -0.3218  0.7142 -1.7525
  161DOPC   C3719484   4.268  -0.087   5.915  0.2441 -0.2466 -0.3341
  161DOPC   H7X19485   4.165  -0.051   5.936  0.6059 -0.0204  1.2313
  161DOPC   H7Y19486   4.344  -0.010   5.944  0.6712 -0.0456 -1.9040
  161DOPC   C3819487   4.280  -0.111   5.771  0.3907  0.5562  0.6777
  161DOPC   H8X19488   4.200  -0.180   5.736 -0.2725  1.6535 -0.0475
  161DOPC   H8Y19489   4.375  -0.160   5.740 -0.0429  0.4137 -0.4779
  161DOPC   C3919490   4.269   0.023   5.712  0.6360 -0.9977 -0.5028
  161DOPC   H9X19491   4.365   0.072   5.689  0.3194  1.4127  2.6023
  161DOPC  C31019492   4.157   0.080   5.676  0.3571 -0.5176  0.2052
  161DOPC  H10X19493   4.154   0.181   5.632  1.1583  1.4309  4.1941
  161DOPC  C31119494   4.017   0.031   5.693 -0.0044  0.5569 -0.1044
  161DOPC  H11X19495   3.945   0.100   5.740 -0.2383 -0.5954  1.3068
  161DOPC  H11Y19496   4.028  -0.051   5.767  0.9367  1.7844  1.1755
  161DOPC  C31219497   3.958  -0.045   5.574 -0.3540 -0.0583  0.7273
  161DOPC  H12X19498   3.873  -0.110   5.602 -2.8262  3.2023  1.3019
  161DOPC  H12Y19499   4.040  -0.107   5.530 -0.1627  1.0225 -0.4930
  161DOPC  C31319500   3.917   0.057   5.462 -0.2954 -0.0277  0.0093
  161DOPC  H13X19501   3.832   0.122   5.494 -0.0048  1.8332 -2.6417
  161DOPC  H13Y19502   3.999   0.125   5.433 -0.5223  0.0098 -0.5706
  161DOPC  C31419503   3.878  -0.021   5.337 -0.3032 -0.3804  0.4132
  161DOPC  H14X19504   3.963  -0.074   5.289 -1.8161  0.2493 -3.3528
  161DOPC  H14Y19505   3.814  -0.103   5.376  0.4154 -2.0140 -1.6104
  161DOPC  C31519506   3.805   0.066   5.230 -0.0815  0.8210 -0.2925
  161DOPC  H15X19507   3.877   0.144   5.196  1.2131  0.4717  1.5378
  161DOPC  H15Y19508   3.724   0.111   5.292 -0.3380 -0.4208  0.2967
  161DOPC  C31619509   3.751  -0.023   5.114 -0.0580 -0.0204  0.3161
  161DOPC  H16X19510   3.838  -0.061   5.057  0.8209  0.7368  1.0940
  161DOPC  H16Y19511   3.699  -0.108   5.163 -0.0517 -0.1109  0.1668
  161DOPC  C31719512   3.651   0.054   5.032  0.1689  0.5854  0.3418
  161DOPC  H17X19513   3.680   0.159   5.009  0.0573  0.3697 -0.8140
  161DOPC  H17Y19514   3.655   0.004   4.933  3.0013  1.9063 -0.3093
  161DOPC  C31819515   3.512   0.077   5.088  0.1854 -0.6796  0.5121
  161DOPC  H18X19516   3.480  -0.022   5.128 -0.3421  0.9747  4.7061
  161DOPC  H18Y19517   3.522   0.135   5.182  2.1202 -2.0411  1.2076
  161DOPC  H18Z19518   3.429   0.111   5.022 -0.5396 -1.2083  1.1265
  162DOPC     N19519   7.067   7.085   7.208 -0.0024  0.0067  0.6465
  162DOPC   C1219520   7.218   7.062   7.186  0.8411  0.1127  0.3527
  162DOPC  H12A19521   7.232   6.955   7.186 -1.6751 -0.2835 -1.1626
  162DOPC  H12B19522   7.272   7.103   7.271 -1.5300  2.6567  0.7624
  162DOPC   C1319523   7.027   7.227   7.190  0.3845  0.1862 -0.2834
  162DOPC  H13A19524   7.068   7.267   7.099 -1.5394  4.8419  0.6337
  162DOPC  H13B19525   6.921   7.243   7.185  0.5109  2.2521  1.8312
  162DOPC  H13C19526   7.059   7.296   7.267 -1.3510  0.2294  0.4532
  162DOPC   C1419527   7.029   7.036   7.344 -0.2528 -0.4508  0.1430
  162DOPC  H14A19528   6.923   7.034   7.365 -0.2916 -0.0830 -0.0216
  162DOPC  H14B19529   7.061   6.935   7.366 -0.0041 -0.3205  0.3773
  162DOPC  H14C19530   7.070   7.103   7.418 -1.2900  0.4269 -0.0492
  162DOPC   C1519531   6.984   7.007   7.101 -0.5364  0.0117 -0.1175
  162DOPC  H15A19532   6.999   7.041   7.000 -0.3785  1.1003  0.2613
  162DOPC  H15B19533   6.879   7.008   7.126 -0.5074  2.2512  0.0636
  162DOPC  H15C19534   7.019   6.905   7.098 -1.1264 -0.1820 -0.6928
  162DOPC   C1119535   7.276   7.095   7.050  0.0224 -1.0059 -0.2099
  162DOPC  H11A19536   7.252   7.200   7.021  1.5181 -0.7537 -0.5943
  162DOPC  H11B19537   7.386   7.099   7.064  0.2257 -1.7904 -1.3975
  162DOPC     P19538   7.312   6.855   6.969  0.2096  0.2349  0.2146
  162DOPC   O1319539   7.211   6.755   6.935 -0.0383 -0.2178 -0.0395
  162DOPC   O1419540   7.390   6.834   7.093 -0.1882 -0.0985  0.1238
  162DOPC   O1219541   7.239   6.996   6.957 -0.0809 -0.4675  0.2826
  162DOPC   O1119542   7.416   6.871   6.851  0.2341  0.0430  0.4579
  162DOPC    C119543   7.364   6.870   6.708 -0.0078  0.4834  0.4494
  162DOPC    HA19544   7.446   6.923   6.655 -0.0005 -0.6463 -0.7064
  162DOPC    HB19545   7.272   6.927   6.686 -0.6032 -1.6180 -3.2702
  162DOPC    C219546   7.351   6.725   6.644  0.6066  0.1965  0.1941
  162DOPC    HS19547   7.247   6.692   6.667  1.0026 -0.8111  0.5934
  162DOPC   O2119548   7.453   6.634   6.696  0.1044  0.5319 -0.1146
  162DOPC   C2119549   7.407   6.513   6.706 -0.4939  0.2087 -0.6555
  162DOPC   O2219550   7.299   6.471   6.673 -0.0318  0.0871  0.1441
  162DOPC   C2219551   7.528   6.420   6.747  0.3143 -0.0976 -0.1892
  162DOPC   H2R19552   7.591   6.471   6.823 -0.7084  0.9639 -0.0361
  162DOPC   H2S19553   7.584   6.416   6.651 -1.1749 -0.2947 -1.0732
  162DOPC    C319554   7.363   6.744   6.496 -0.0901 -0.2902  0.4121
  162DOPC    HX19555   7.466   6.785   6.486 -0.3060 -0.2153 -1.8743
  162DOPC    HY19556   7.291   6.821   6.461  0.7396  0.8381  1.1124
  162DOPC   O3119557   7.352   6.615   6.432 -0.4909  0.3136  0.3761
  162DOPC   C3119558   7.232   6.571   6.392 -0.4438 -0.1285 -0.1780
  162DOPC   O3219559   7.131   6.634   6.397 -0.0401 -0.5019 -0.5601
  162DOPC   C3219560   7.240   6.437   6.313  0.1874 -0.4278  0.0345
  162DOPC   H2X19561   7.325   6.470   6.249  0.9043  1.1482  1.7330
  162DOPC   H2Y19562   7.269   6.355   6.382 -2.5185 -0.1426  1.6523
  162DOPC   C2319563   7.487   6.278   6.808 -0.1238 -0.4704  1.2486
  162DOPC   H3R19564   7.414   6.276   6.891 -1.6020  2.0507  0.1209
  162DOPC   H3S19565   7.586   6.236   6.835  0.2523 -0.6067 -0.2212
  162DOPC   C2419566   7.421   6.187   6.702  0.1028  0.2191  0.1473
  162DOPC   H4R19567   7.329   6.238   6.667 -0.3589  0.2352  1.3239
  162DOPC   H4S19568   7.384   6.100   6.761  0.4984 -0.6273 -0.8314
  162DOPC   C2519569   7.509   6.116   6.593 -0.0744 -0.2019 -0.1836
  162DOPC   H5R19570   7.553   6.178   6.512  1.8010 -0.4859  0.5652
  162DOPC   H5S19571   7.432   6.051   6.547  0.1341 -0.3600 -0.3083
  162DOPC   C2619572   7.615   6.012   6.656  0.6477 -0.3292 -0.1752
  162DOPC   H6R19573   7.567   5.981   6.752  1.2410 -0.5075  0.0687
  162DOPC   H6S19574   7.713   6.063   6.672  2.4310 -2.4874 -3.2104
  162DOPC   C2719575   7.631   5.876   6.589  0.0320 -0.7283 -0.3271
  162DOPC   H7R19576   7.643   5.883   6.478  2.0942  0.2134 -0.1038
  162DOPC   H7S19577   7.536   5.826   6.618  0.2538 -0.0154  1.7698
  162DOPC   C2819578   7.752   5.792   6.641  0.7543  0.6341  0.2285
  162DOPC   H8R19579   7.742   5.799   6.752 -2.3764 -0.4818  0.1131
  162DOPC   H8S19580   7.844   5.847   6.612  0.5353  0.5743 -0.5781
  162DOPC   C2919581   7.747   5.652   6.594 -0.5316 -0.2573  0.0483
  162DOPC   H9R19582   7.706   5.579   6.665 -1.5497  1.9267  1.8202
  162DOPC  C21019583   7.789   5.604   6.475  0.5814 -0.1892 -0.0391
  162DOPC  H10R19584   7.790   5.495   6.462 -0.4256 -0.2288  0.1119
  162DOPC  C21119585   7.844   5.688   6.360  0.2854 -0.0345  0.8568
  162DOPC  H11R19586   7.955   5.689   6.353  0.2684 -0.2157  0.5455
  162DOPC  H11S19587   7.819   5.795   6.378 -2.5132 -0.1922 -1.3243
  162DOPC  C21219588   7.788   5.640   6.225 -0.0702  0.4212 -0.2733
  162DOPC  H12R19589   7.687   5.684   6.230  0.3055  1.4934 -1.5540
  162DOPC  H12S19590   7.782   5.529   6.216 -2.0428  0.4098  0.6829
  162DOPC  C21319591   7.853   5.712   6.108 -0.2130  0.5397 -0.4607
  162DOPC  H13R19592   7.961   5.685   6.114 -0.1384  0.5704 -1.4934
  162DOPC  H13S19593   7.852   5.820   6.134  2.7018  0.2999  1.1744
  162DOPC  C21419594   7.798   5.689   5.969  0.6382  0.1476  0.1552
  162DOPC  H14R19595   7.820   5.780   5.908 -0.2386  0.8064  0.7959
  162DOPC  H14S19596   7.688   5.694   5.983  0.3974  0.2633 -1.4914
  162DOPC  C21519597   7.857   5.564   5.903  0.8418  0.6044 -0.2179
  162DOPC  H15R19598   7.830   5.470   5.956  1.0732 -0.0216 -1.1907
  162DOPC  H15S19599   7.967   5.571   5.899  0.8580  0.3381 -0.2461
  162DOPC  C21619600   7.812   5.549   5.754 -0.4092  0.2671 -0.0076
  162DOPC  H16R19601   7.869   5.476   5.693 -2.7948 -1.8910  0.1760
  162DOPC  H16S19602   7.824   5.638   5.688  2.2778 -1.6824 -2.3702
  162DOPC  C21719603   7.670   5.495   5.739 -0.5690  0.6342  1.0645
  162DOPC  H17R19604   7.604   5.553   5.807 -0.1980 -0.0079  1.9972
  162DOPC  H17S19605   7.656   5.388   5.765 -1.9149 -0.3730 -3.0070
  162DOPC  C21819606   7.628   5.506   5.585 -0.2888 -0.0926 -0.1138
  162DOPC  H18R19607   7.580   5.606   5.589  2.5264  1.3283  0.2883
  162DOPC  H18S19608   7.548   5.431   5.566 -0.1483 -0.3988  0.4831
  162DOPC  H18T19609   7.718   5.500   5.520  0.0098 -2.2043  0.4330
  162DOPC   C3319610   7.114   6.391   6.230  0.5293 -0.0337 -0.6417
  162DOPC   H3X19611   7.043   6.476   6.222 -0.4726 -0.8281 -0.2424
  162DOPC   H3Y19612   7.068   6.305   6.282 -0.5146  1.5479  1.1774
  162DOPC   C3419613   7.171   6.359   6.088 -0.4565  0.1082  0.0813
  162DOPC   H4X19614   7.252   6.285   6.104  0.4500 -0.0759 -4.2044
  162DOPC   H4Y19615   7.229   6.449   6.059  1.1720 -0.6299  0.9321
  162DOPC   C3519616   7.070   6.314   5.985  0.2664 -0.4453 -0.6161
  162DOPC   H5X19617   7.005   6.391   5.938 -1.9335 -0.9115  1.4772
  162DOPC   H5Y19618   7.011   6.239   6.041 -0.0566 -0.2842 -0.7356
  162DOPC   C3619619   7.143   6.232   5.879  0.4765  0.4061  0.1508
  162DOPC   H6X19620   7.227   6.167   5.912  1.8487 -0.0222 -3.7413
  162DOPC   H6Y19621   7.061   6.166   5.842 -0.3146  0.5541  1.5538
  162DOPC   C3719622   7.200   6.321   5.774  1.0507 -0.0801 -0.2470
  162DOPC   H7X19623   7.120   6.385   5.732  1.5451  1.4134  1.0078
  162DOPC   H7Y19624   7.281   6.385   5.815  0.1646  0.8538  0.0757
  162DOPC   C3819625   7.268   6.245   5.659  0.8404  0.7196  0.2176
  162DOPC   H8X19626   7.284   6.316   5.576 -2.9602  0.8104 -0.5941
  162DOPC   H8Y19627   7.193   6.172   5.623 -0.4449  1.7386  0.7614
  162DOPC   C3919628   7.395   6.182   5.700 -0.9186  0.5587  0.5142
  162DOPC   H9X19629   7.421   6.167   5.806 -0.0782  1.6493  0.4766
  162DOPC  C31019630   7.484   6.131   5.612 -0.2447  0.4732  0.0640
  162DOPC  H10X19631   7.570   6.072   5.648 -0.4715 -0.2817 -0.6180
  162DOPC  C31119632   7.464   6.128   5.467 -0.8268  1.1014  0.3720
  162DOPC  H11X19633   7.552   6.158   5.408 -1.1622 -0.4085 -0.9718
  162DOPC  H11Y19634   7.393   6.200   5.422  1.2209  2.4605 -0.8274
  162DOPC  C31219635   7.434   5.984   5.420  0.3725 -0.1339  1.1937
  162DOPC  H12X19636   7.324   5.978   5.436  0.1356  2.0938  0.7141
  162DOPC  H12Y19637   7.488   5.903   5.473 -1.2712 -0.4113  2.5025
  162DOPC  C31319638   7.469   5.964   5.272 -0.0453  0.1872  0.1258
  162DOPC  H13X19639   7.579   5.974   5.263  0.1525  0.8268  2.5733
  162DOPC  H13Y19640   7.449   5.856   5.256  0.7182 -0.1215  1.1968
  162DOPC  C31419641   7.400   6.047   5.162 -0.1725 -0.1567  0.2910
  162DOPC  H14X19642   7.392   6.155   5.186 -0.8958  0.1445 -1.2058
  162DOPC  H14Y19643   7.461   6.026   5.072  0.5508 -2.1798  1.1775
  162DOPC  C31519644   7.254   5.993   5.141 -0.5610 -0.9165  0.8909
  162DOPC  H15X19645   7.253   5.885   5.167 -2.4704 -2.1120 -3.3406
  162DOPC  H15Y19646   7.228   5.984   5.033  3.0250 -0.1003 -0.1868
  162DOPC  C31619647   7.140   6.080   5.204 -0.0551  0.4670 -0.1385
  162DOPC  H16X19648   7.162   6.097   5.311 -0.6536  1.8447 -0.2046
  162DOPC  H16Y19649   7.128   6.179   5.155 -0.9826  0.2993 -0.2709
  162DOPC  C31719650   7.002   6.014   5.207 -0.2278  0.1926  0.0270
  162DOPC  H17X19651   7.006   5.915   5.258 -1.4671  0.6458  1.0528
  162DOPC  H17Y19652   6.937   6.073   5.275 -0.7379 -0.1975 -0.1133
  162DOPC  C31819653   6.932   5.987   5.070 -0.6698  0.1371  0.0141
  162DOPC  H18X19654   6.917   6.081   5.013  1.5002  0.7377  0.3241
  162DOPC  H18Y19655   7.003   5.930   5.006  0.6712  2.1501 -0.3637
  162DOPC  H18Z19656   6.836   5.932   5.074 -0.0947 -0.8407  0.9709
  163DOPC     N19657   7.539   4.179   6.992  0.1408  0.3729  0.1400
  163DOPC   C1219658   7.405   4.218   6.918 -0.3783  0.1603 -0.0683
  163DOPC  H12A19659   7.432   4.259   6.821  0.2733 -1.3771 -0.5570
  163DOPC  H12B19660   7.359   4.297   6.976  0.1839 -0.1708  0.8483
  163DOPC   C1319661   7.634   4.295   6.982  0.5555 -1.0068  0.0823
  163DOPC  H13A19662   7.677   4.305   6.883  0.4620 -1.8573 -0.0514
  163DOPC  H13B19663   7.592   4.387   7.016  4.3184  0.4136  1.4335
  163DOPC  H13C19664   7.717   4.278   7.049 -0.8552  0.1715  2.2078
  163DOPC   C1419665   7.596   4.056   6.936  0.2792  0.4510  0.9296
  163DOPC  H14A19666   7.646   4.079   6.843 -0.9931  0.2000  0.1638
  163DOPC  H14B19667   7.673   4.016   7.001  1.9452  0.9428 -0.6382
  163DOPC  H14C19668   7.519   3.984   6.914 -1.2859  2.8625 -2.2188
  163DOPC   C1519669   7.513   4.151   7.136 -0.2883  0.0374 -0.0290
  163DOPC  H15A19670   7.489   4.242   7.189  1.4390  0.6477 -0.1961
  163DOPC  H15B19671   7.596   4.096   7.178  1.0335  1.6885 -0.3463
  163DOPC  H15C19672   7.426   4.088   7.143  0.1870 -0.7286 -0.7010
  163DOPC   C1119673   7.310   4.109   6.877 -0.0606  0.0762  0.6137
  163DOPC  H11A19674   7.214   4.155   6.847 -0.6663 -1.8227 -0.5443
  163DOPC  H11B19675   7.346   4.064   6.782 -1.0659 -1.5913  0.9745
  163DOPC     P19676   7.174   3.986   7.045 -0.2912  0.4476 -0.2829
  163DOPC   O1319677   7.140   4.114   7.109 -0.2260 -0.9710 -0.2271
  163DOPC   O1419678   7.184   3.862   7.122  0.6478  0.3947  0.1939
  163DOPC   O1219679   7.306   3.998   6.967  0.0563  0.6997  0.2958
  163DOPC   O1119680   7.062   3.965   6.929  0.3445 -0.2018  0.4399
  163DOPC    C119681   7.082   3.855   6.840  0.0116  0.1901 -0.2970
  163DOPC    HA19682   7.063   3.760   6.895  1.0298 -0.7242 -1.4746
  163DOPC    HB19683   7.187   3.847   6.804  0.0652 -0.4634 -0.0146
  163DOPC    C219684   6.982   3.856   6.722 -0.0897 -0.2279  0.0197
  163DOPC    HS19685   6.997   3.776   6.647  0.8881 -0.5992  0.5997
  163DOPC   O2119686   6.983   3.988   6.658 -0.1045  0.3636  0.5570
  163DOPC   C2119687   7.092   4.023   6.604  0.8650 -0.9051  0.4321
  163DOPC   O2219688   7.198   3.960   6.597 -0.5767  0.1507  0.1421
  163DOPC   C2219689   7.072   4.170   6.570  0.0718  0.6852  0.5106
  163DOPC   H2R19690   7.083   4.226   6.665  0.0694 -0.0662  0.9684
  163DOPC   H2S19691   6.968   4.180   6.534 -0.5263 -0.8797  1.6882
  163DOPC    C319692   6.833   3.828   6.773 -0.2119  0.0394 -0.1859
  163DOPC    HX19693   6.799   3.908   6.842  0.4860 -0.4897  0.7921
  163DOPC    HY19694   6.835   3.744   6.845 -1.4039  1.6311  1.8033
  163DOPC   O3119695   6.744   3.809   6.662  0.7816 -0.2509  0.8391
  163DOPC   C3119696   6.678   3.911   6.604  0.2345 -0.1074 -0.5420
  163DOPC   O3219697   6.685   4.029   6.628 -0.3153  0.2323  0.0209
  163DOPC   C3219698   6.583   3.848   6.506 -0.4483 -0.4572 -0.2979
  163DOPC   H2X19699   6.635   3.777   6.439 -0.3375  0.4548 -1.2088
  163DOPC   H2Y19700   6.510   3.803   6.576 -1.1578  3.1441  1.5503
  163DOPC   C2319701   7.164   4.213   6.458  0.0338 -0.5787 -0.8620
  163DOPC   H3R19702   7.263   4.162   6.459  0.1752 -0.3016 -0.4635
  163DOPC   H3S19703   7.183   4.322   6.466  0.0860 -0.6003 -0.6870
  163DOPC   C2419704   7.122   4.176   6.315  0.0632 -0.3226 -0.2222
  163DOPC   H4R19705   7.125   4.065   6.311  1.4627 -0.2950 -0.4256
  163DOPC   H4S19706   7.189   4.228   6.244  1.2387 -2.3852 -0.7296
  163DOPC   C2519707   6.984   4.225   6.285  0.9441 -0.1583  0.2226
  163DOPC   H5R19708   6.966   4.333   6.306 -0.2227 -0.2932 -0.0201
  163DOPC   H5S19709   6.918   4.156   6.341  1.6079 -0.3667  0.7597
  163DOPC   C2619710   6.949   4.197   6.134 -0.0877 -0.4775  0.7875
  163DOPC   H6R19711   6.971   4.092   6.104  0.7569 -0.6188  1.8452
  163DOPC   H6S19712   7.010   4.262   6.069 -0.5924 -2.1657 -1.4971
  163DOPC   C2719713   6.807   4.219   6.100  0.1197 -0.0304  0.7608
  163DOPC   H7R19714   6.745   4.180   6.184  0.6620 -1.9714  0.3164
  163DOPC   H7S19715   6.770   4.179   6.003 -2.2227  0.0716  1.5505
  163DOPC   C2819716   6.785   4.373   6.091 -0.2252 -0.8510 -0.6544
  163DOPC   H8R19717   6.851   4.415   6.012  2.9903 -0.3607  2.0865
  163DOPC   H8S19718   6.817   4.411   6.190  0.3607 -1.1039 -0.7424
  163DOPC   C2919719   6.645   4.407   6.079  0.1572 -0.3102  0.0720
  163DOPC   H9R19720   6.597   4.444   6.171 -0.6491  2.3239 -1.3122
  163DOPC  C21019721   6.578   4.412   5.963 -0.7045 -0.1670  0.1354
  163DOPC  H10R19722   6.469   4.423   5.958 -0.5353  1.1641 -1.6779
  163DOPC  C21119723   6.639   4.376   5.829  0.2132 -0.6089  0.0751
  163DOPC  H11R19724   6.750   4.375   5.825  0.2743 -1.6752  1.2710
  163DOPC  H11S19725   6.612   4.458   5.759  2.3385 -0.4688 -0.6410
  163DOPC  C21219726   6.572   4.247   5.758 -0.1963 -0.1062 -0.5229
  163DOPC  H12R19727   6.461   4.260   5.759 -0.2505 -0.5251  0.3479
  163DOPC  H12S19728   6.608   4.163   5.821 -0.3992 -0.6196 -1.0905
  163DOPC  C21319729   6.619   4.235   5.617 -0.3236  0.4701 -0.7521
  163DOPC  H13R19730   6.730   4.231   5.617 -0.3516 -0.8003 -0.0419
  163DOPC  H13S19731   6.583   4.319   5.554  0.1437 -1.2978 -3.5568
  163DOPC  C21419732   6.567   4.106   5.561 -0.2371 -0.8530 -0.3043
  163DOPC  H14R19733   6.463   4.102   5.601 -0.5433  0.6444 -0.9064
  163DOPC  H14S19734   6.629   4.020   5.594  1.8009  0.1723 -1.2886
  163DOPC  C21519735   6.576   4.092   5.406  0.5659 -0.2344  0.1863
  163DOPC  H15R19736   6.684   4.082   5.380 -0.1531 -3.8969 -2.1224
  163DOPC  H15S19737   6.536   4.189   5.368  1.3972  0.7671  1.7299
  163DOPC  C21619738   6.505   3.973   5.352  0.4918 -0.2529  0.4378
  163DOPC  H16R19739   6.398   4.000   5.358  1.0552  2.6377 -0.7466
  163DOPC  H16S19740   6.541   3.884   5.408  1.2905  0.6718  1.4275
  163DOPC  C21719741   6.526   3.949   5.199  0.0681  0.5045  0.7249
  163DOPC  H17R19742   6.636   3.943   5.191 -0.0715  0.1298 -1.6949
  163DOPC  H17S19743   6.492   4.040   5.144 -0.8509  0.0884  0.5773
  163DOPC  C21819744   6.459   3.820   5.139  0.7122 -0.1198 -0.4959
  163DOPC  H18R19745   6.357   3.836   5.098 -0.3842 -2.0738  1.2188
  163DOPC  H18S19746   6.450   3.744   5.220  3.1955 -1.6729 -1.5296
  163DOPC  H18T19747   6.526   3.769   5.066  1.0486 -1.0639  0.4398
  163DOPC   C3319748   6.531   3.955   6.405 -0.0346  0.1200 -0.4171
  163DOPC   H3X19749   6.618   4.016   6.372 -0.3507  1.0484  0.3979
  163DOPC   H3Y19750   6.462   4.017   6.467 -1.5517 -1.1720 -0.7589
  163DOPC   C3419751   6.429   3.902   6.312 -0.0020  0.3631 -0.2383
  163DOPC   H4X19752   6.329   3.899   6.360  0.2003 -0.8048  0.1522
  163DOPC   H4Y19753   6.458   3.795   6.303 -1.6458 -0.0580 -0.9824
  163DOPC   C3519754   6.435   3.980   6.180 -0.7700 -0.5324  0.4571
  163DOPC   H5X19755   6.536   3.983   6.134 -0.2730  0.0019  1.5356
  163DOPC   H5Y19756   6.410   4.085   6.208  0.6989 -0.5079  1.8062
  163DOPC   C3619757   6.325   3.936   6.081 -0.7226 -0.3474  0.1411
  163DOPC   H6X19758   6.346   3.828   6.062 -1.4366 -0.3190 -0.8295
  163DOPC   H6Y19759   6.220   3.951   6.112 -0.8342 -3.0758  1.4145
  163DOPC   C3719760   6.332   3.999   5.941 -0.0607  0.2532  0.8770
  163DOPC   H7X19761   6.301   4.106   5.945  0.8840  0.8182 -2.9827
  163DOPC   H7Y19762   6.435   3.996   5.899  0.3220  0.6812  1.7638
  163DOPC   C3819763   6.233   3.925   5.846  0.8967 -0.0632  0.6140
  163DOPC   H8X19764   6.127   3.938   5.876  0.9277 -1.4860  1.4493
  163DOPC   H8Y19765   6.253   3.818   5.867 -0.5783 -0.5492 -0.2943
  163DOPC   C3919766   6.257   3.950   5.699  0.0592 -0.6620 -0.4706
  163DOPC   H9X19767   6.280   4.056   5.678 -0.5022 -0.1815  1.1696
  163DOPC  C31019768   6.270   3.858   5.600 -0.2405 -0.0680  0.0325
  163DOPC  H10X19769   6.296   3.896   5.500  0.3279 -1.0313 -0.1962
  163DOPC  C31119770   6.273   3.704   5.595 -0.0536  0.7719 -0.0985
  163DOPC  H11X19771   6.244   3.669   5.697  3.4712  3.1401  1.9711
  163DOPC  H11Y19772   6.376   3.661   5.592  0.9050  2.9422 -0.9907
  163DOPC  C31219773   6.169   3.654   5.495 -0.2956 -0.1196 -0.0766
  163DOPC  H12X19774   6.070   3.692   5.527  0.1449  1.3996 -0.4162
  163DOPC  H12Y19775   6.162   3.544   5.506 -0.2006 -0.0147  1.1583
  163DOPC  C31319776   6.193   3.694   5.344 -0.3626 -0.1187  0.2489
  163DOPC  H13X19777   6.216   3.802   5.331  1.4610 -0.3798  1.0068
  163DOPC  H13Y19778   6.279   3.642   5.296 -1.5331 -0.6062 -1.4186
  163DOPC  C31419779   6.078   3.676   5.248  0.2781 -0.5386  0.3099
  163DOPC  H14X19780   6.006   3.753   5.282  1.6197  1.4852 -1.2124
  163DOPC  H14Y19781   6.101   3.699   5.142 -1.7481  0.7237  0.0811
  163DOPC  C31519782   6.007   3.538   5.260  0.4878  0.2497 -0.6483
  163DOPC  H15X19783   5.962   3.525   5.361  0.5614  2.3305 -0.3151
  163DOPC  H15Y19784   6.074   3.452   5.238  0.8181  0.6198 -1.1126
  163DOPC  C31619785   5.889   3.523   5.163  0.3619  0.1332  0.2942
  163DOPC  H16X19786   5.790   3.565   5.191 -0.9595 -0.4180 -3.0539
  163DOPC  H16Y19787   5.915   3.583   5.073 -1.6499 -0.8880 -1.0555
  163DOPC  C31719788   5.883   3.377   5.105 -0.4040 -0.1599  0.7406
  163DOPC  H17X19789   5.974   3.364   5.043  0.8572  0.6210  2.3622
  163DOPC  H17Y19790   5.890   3.303   5.187  2.4039 -0.5852  0.2162
  163DOPC  C31819791   5.758   3.338   5.021  0.1563  0.3188 -0.1627
  163DOPC  H18X19792   5.769   3.234   4.985 -2.2850  0.2016 -0.7458
  163DOPC  H18Y19793   5.661   3.356   5.072  0.2389 -1.0253  0.5210
  163DOPC  H18Z19794   5.758   3.404   4.931 -0.3327 -0.8384 -1.0308
  164DOPC     N19795   1.836   7.523   6.853  0.1670 -0.0547  0.8143
  164DOPC   C1219796   1.926   7.517   6.727  0.5633  0.3514 -0.3810
  164DOPC  H12A19797   1.909   7.416   6.692  0.5103 -0.6557  2.2993
  164DOPC  H12B19798   2.027   7.507   6.764  0.6108 -0.5725 -0.7200
  164DOPC   C1319799   1.855   7.647   6.933  0.0472 -0.2368 -0.1206
  164DOPC  H13A19800   1.954   7.649   6.976 -0.2407  2.3923  0.5594
  164DOPC  H13B19801   1.845   7.737   6.874 -0.2606 -0.9026 -1.1129
  164DOPC  H13C19802   1.776   7.660   7.006 -0.0802  1.7033 -0.5521
  164DOPC   C1419803   1.870   7.415   6.953  0.4205  0.3511  0.8635
  164DOPC  H14A19804   1.972   7.426   6.988  0.0820  1.4422  1.5517
  164DOPC  H14B19805   1.796   7.411   7.031 -0.6769 -2.0181 -0.1936
  164DOPC  H14C19806   1.870   7.315   6.912  2.8027  0.6283  0.0597
  164DOPC   C1519807   1.688   7.513   6.823 -0.1523  0.2355  0.1551
  164DOPC  H15A19808   1.627   7.508   6.912 -0.7202 -0.0476 -0.2454
  164DOPC  H15B19809   1.668   7.420   6.772  3.2813 -1.3502  1.4223
  164DOPC  H15C19810   1.658   7.600   6.766 -2.1472 -0.2570  0.4051
  164DOPC   C1119811   1.914   7.624   6.619  0.6214 -0.0956 -0.4652
  164DOPC  H11A19812   1.992   7.594   6.545  1.1716  0.6541 -0.2051
  164DOPC  H11B19813   1.818   7.622   6.564  0.8909 -0.3116 -0.9318
  164DOPC     P19814   2.069   7.827   6.687  0.3188 -0.3892 -0.2274
  164DOPC   O1319815   2.174   7.722   6.701  0.1599 -0.0137  0.0714
  164DOPC   O1419816   2.055   7.933   6.786  0.1768 -0.0288 -0.8087
  164DOPC   O1219817   1.933   7.757   6.673 -0.1280  0.1138 -0.2690
  164DOPC   O1119818   2.085   7.894   6.546  0.3596 -0.3634  0.1508
  164DOPC    C119819   2.008   7.998   6.491  0.1624  0.3197 -0.0296
  164DOPC    HA19820   2.069   8.043   6.410  1.4231 -2.6074 -0.8203
  164DOPC    HB19821   1.980   8.082   6.558  2.3855  0.5635  0.6752
  164DOPC    C219822   1.873   7.953   6.435  0.0049  0.2449 -0.1554
  164DOPC    HS19823   1.822   7.908   6.524  2.7115  0.2791  1.5389
  164DOPC   O2119824   1.900   7.861   6.333  0.2283  0.4460 -0.3218
  164DOPC   C2119825   1.814   7.750   6.323  0.0812 -0.1831 -0.3273
  164DOPC   O2219826   1.709   7.741   6.385 -0.1932  0.5909 -0.3128
  164DOPC   C2219827   1.856   7.658   6.208  0.6818  0.8715 -0.0135
  164DOPC   H2R19828   1.849   7.554   6.246  0.2195  0.5420 -0.9600
  164DOPC   H2S19829   1.960   7.676   6.173  0.2279 -0.3964 -2.1673
  164DOPC    C319830   1.784   8.069   6.371  0.8165  0.2994 -0.2037
  164DOPC    HX19831   1.760   8.136   6.456  0.4520  0.8474 -0.7245
  164DOPC    HY19832   1.685   8.044   6.326  1.4027  2.1596 -2.8226
  164DOPC   O3119833   1.859   8.155   6.275 -0.1691 -0.1290  0.5750
  164DOPC   C3119834   1.861   8.113   6.149 -0.8125 -0.0958  0.3326
  164DOPC   O3219835   1.806   8.018   6.103 -0.1875  0.4098 -0.1913
  164DOPC   C3219836   1.967   8.198   6.081  0.1773  0.4320 -0.5976
  164DOPC   H2X19837   1.950   8.308   6.090 -1.5192  0.1666 -0.2465
  164DOPC   H2Y19838   2.063   8.168   6.128 -0.5301 -1.2505 -0.1628
  164DOPC   C2319839   1.779   7.676   6.080  0.1049 -0.1907  0.2852
  164DOPC   H3R19840   1.794   7.782   6.051  2.3539 -1.0000 -1.8765
  164DOPC   H3S19841   1.668   7.664   6.084 -0.2780  1.1729 -2.8095
  164DOPC   C2419842   1.834   7.599   5.960 -0.6441  0.2690  0.0369
  164DOPC   H4R19843   1.847   7.492   5.987 -0.6090 -0.0104 -1.0296
  164DOPC   H4S19844   1.933   7.637   5.926  0.0478 -1.1420  0.4175
  164DOPC   C2519845   1.742   7.610   5.833 -0.0038 -0.2257  0.3906
  164DOPC   H5R19846   1.739   7.716   5.800 -0.7239  0.0034  1.1646
  164DOPC   H5S19847   1.635   7.589   5.855 -0.0485 -0.6543 -0.2207
  164DOPC   C2619848   1.798   7.549   5.702 -0.2333 -0.7395 -0.0635
  164DOPC   H6R19849   1.809   7.439   5.709  0.4976 -0.6055  1.2648
  164DOPC   H6S19850   1.900   7.589   5.716 -0.5100 -0.5490  1.6976
  164DOPC   C2719851   1.738   7.602   5.574 -0.2148 -0.1779  1.0233
  164DOPC   H7R19852   1.744   7.713   5.582 -1.5028  0.0374 -0.6111
  164DOPC   H7S19853   1.633   7.568   5.568 -0.1927  0.0168 -2.1767
  164DOPC   C2819854   1.817   7.562   5.450  0.5321  0.9703  0.4329
  164DOPC   H8R19855   1.792   7.456   5.426  4.3346  0.0588 -0.1242
  164DOPC   H8S19856   1.927   7.564   5.465  0.5484 -0.0483  0.5670
  164DOPC   C2919857   1.794   7.650   5.328  0.8177 -0.9050  0.3207
  164DOPC   H9R19858   1.771   7.751   5.366  0.5850  0.4290 -3.0597
  164DOPC  C21019859   1.793   7.621   5.193  0.6203 -0.4926 -0.7683
  164DOPC  H10R19860   1.764   7.702   5.125 -2.0584  0.7997  1.7233
  164DOPC  C21119861   1.823   7.489   5.130  0.4342 -0.5269  0.3807
  164DOPC  H11R19862   1.886   7.419   5.189 -0.1932 -0.5993  0.9780
  164DOPC  H11S19863   1.891   7.529   5.052 -0.0022  1.9453  1.1667
  164DOPC  C21219864   1.705   7.408   5.070  0.0508 -0.1532 -0.1624
  164DOPC  H12R19865   1.643   7.352   5.143 -0.3208 -3.2164 -2.5743
  164DOPC  H12S19866   1.761   7.321   5.029 -1.2142 -1.0428 -0.0508
  164DOPC  C21319867   1.633   7.479   4.961 -0.0048 -0.2357  0.2010
  164DOPC  H13R19868   1.711   7.510   4.889 -0.2422  1.9471  0.8111
  164DOPC  H13S19869   1.600   7.578   5.000 -0.4763 -1.2348  2.4965
  164DOPC  C21419870   1.501   7.413   4.907 -0.0190 -0.8151  0.7332
  164DOPC  H14R19871   1.523   7.306   4.890 -0.2658 -0.7918  0.2439
  164DOPC  H14S19872   1.480   7.459   4.809  2.6215 -0.3918  0.2998
  164DOPC  C21519873   1.376   7.434   4.992  0.0989  0.5966 -0.0278
  164DOPC  H15R19874   1.384   7.538   5.030 -2.7544  0.9872 -0.2601
  164DOPC  H15S19875   1.362   7.364   5.077 -1.0053  1.3113  0.4077
  164DOPC  C21619876   1.253   7.412   4.908  0.2638  0.2511  0.4979
  164DOPC  H16R19877   1.257   7.305   4.879  2.7619 -0.1467  2.0735
  164DOPC  H16S19878   1.255   7.471   4.814 -3.4930  0.7682  0.5762
  164DOPC  C21719879   1.123   7.437   4.978 -0.0454  0.4735  0.0976
  164DOPC  H17R19880   1.043   7.431   4.901  0.1787  2.7285 -0.3925
  164DOPC  H17S19881   1.124   7.543   5.010  0.7648  0.4813  0.0488
  164DOPC  C21819882   1.090   7.338   5.099 -1.1000  0.1413 -0.0317
  164DOPC  H18R19883   1.170   7.319   5.173 -1.3234 -1.7826 -0.2459
  164DOPC  H18S19884   1.079   7.243   5.043 -0.5900 -0.6049  1.1079
  164DOPC  H18T19885   0.996   7.359   5.156 -0.0485 -3.3472  3.3825
  164DOPC   C3319886   1.978   8.162   5.936 -0.0984  0.2494  0.6722
  164DOPC   H3X19887   1.992   8.052   5.924  0.7662  0.3572  0.6254
  164DOPC   H3Y19888   2.069   8.210   5.895 -0.1318 -0.5655 -0.4168
  164DOPC   C3419889   1.865   8.214   5.847  0.7490 -0.2585  0.4013
  164DOPC   H4X19890   1.886   8.324   5.845  0.1505 -0.1513 -0.8198
  164DOPC   H4Y19891   1.769   8.196   5.899  1.7848 -0.8882  2.1687
  164DOPC   C3519892   1.862   8.164   5.704 -0.0829  0.3846  0.2306
  164DOPC   H5X19893   1.968   8.154   5.671 -0.1437  0.3184  0.0545
  164DOPC   H5Y19894   1.812   8.237   5.637  1.2240  0.1185 -1.0839
  164DOPC   C3619895   1.806   8.018   5.702 -0.1339  0.3385 -0.2885
  164DOPC   H6X19896   1.838   7.976   5.604 -1.5839  1.5132 -1.2901
  164DOPC   H6Y19897   1.854   7.954   5.779  0.2709  2.3769  1.2528
  164DOPC   C3719898   1.655   8.002   5.711 -0.1882  0.0291 -0.2156
  164DOPC   H7X19899   1.624   7.895   5.709 -0.7130  0.1585  0.6687
  164DOPC   H7Y19900   1.612   8.041   5.805  0.7503  0.8653 -0.1155
  164DOPC   C3819901   1.579   8.061   5.584 -0.1657  0.3095 -0.5748
  164DOPC   H8X19902   1.610   8.003   5.494  1.8641 -1.3651  1.0784
  164DOPC   H8Y19903   1.603   8.166   5.557 -2.7252  0.4707 -2.5527
  164DOPC   C3919904   1.432   8.043   5.610  0.0105  0.2250  0.2470
  164DOPC   H9X19905   1.405   7.941   5.579  0.1207  0.1740  0.3173
  164DOPC  C31019906   1.340   8.139   5.638  0.0101 -0.0209  0.4960
  164DOPC  H10X19907   1.233   8.119   5.629 -0.1196  0.5113  0.7965
  164DOPC  C31119908   1.371   8.286   5.654 -0.2571  0.2714  0.5089
  164DOPC  H11X19909   1.469   8.319   5.613 -1.7125  0.5419 -3.1122
  164DOPC  H11Y19910   1.372   8.313   5.762  1.2109  0.1837  0.5348
  164DOPC  C31219911   1.273   8.375   5.576 -0.7475  0.1329 -0.2576
  164DOPC  H12X19912   1.168   8.368   5.610 -1.6626  1.0910 -2.6870
  164DOPC  H12Y19913   1.265   8.339   5.471 -0.3968  1.2296 -0.6742
  164DOPC  C31319914   1.298   8.525   5.570  0.1231 -0.2691 -0.9825
  164DOPC  H13X19915   1.302   8.564   5.674 -0.0249  1.3215 -1.5480
  164DOPC  H13Y19916   1.401   8.540   5.531  0.9214  0.3793  1.1977
  164DOPC  C31419917   1.200   8.593   5.483  0.2034  0.5628 -0.1969
  164DOPC  H14X19918   1.187   8.701   5.507  1.3259  0.2472  2.0669
  164DOPC  H14Y19919   1.103   8.540   5.476  0.5266  0.1334 -1.8252
  164DOPC  C31519920   1.257   8.589   5.343  0.1591  0.0933  0.4699
  164DOPC  H15X19921   1.276   8.482   5.319  0.8749  0.4223 -0.5093
  164DOPC  H15Y19922   1.359   8.635   5.341  1.3745 -2.4471 -0.3012
  164DOPC  C31619923   1.172   8.655   5.239 -0.1565 -0.2472 -0.2953
  164DOPC  H16X19924   1.073   8.605   5.240 -0.0304 -0.4945 -0.0009
  164DOPC  H16Y19925   1.150   8.764   5.247 -0.2383 -0.1620 -1.4959
  164DOPC  C31719926   1.227   8.642   5.092 -0.0292  0.0245  0.6592
  164DOPC  H17X19927   1.318   8.701   5.068 -0.6630 -0.1779 -2.6670
  164DOPC  H17Y19928   1.243   8.534   5.069  2.0142  0.8870 -2.5022
  164DOPC  C31819929   1.127   8.683   4.976  0.0366 -0.2171  0.0010
  164DOPC  H18X19930   1.121   8.793   4.993  2.3376 -0.3526  2.5820
  164DOPC  H18Y19931   1.161   8.642   4.879  0.3648 -1.3321  0.5621
  164DOPC  H18Z19932   1.025   8.644   4.994 -0.2020 -0.2950 -1.4057
  165DOPC     N19933   6.454   1.695   7.362 -0.0215  0.5505  0.6469
  165DOPC   C1219934   6.498   1.597   7.250  0.8102  0.6552  0.0231
  165DOPC  H12A19935   6.411   1.550   7.207 -1.4544  2.3150  2.4698
  165DOPC  H12B19936   6.556   1.524   7.306 -1.2499 -1.6327 -0.6617
  165DOPC   C1319937   6.340   1.641   7.436 -0.0883 -0.3096 -0.1349
  165DOPC  H13A19938   6.266   1.610   7.364 -0.3737 -1.7106  0.7214
  165DOPC  H13B19939   6.359   1.554   7.499 -2.0121 -0.0530  0.8789
  165DOPC  H13C19940   6.298   1.720   7.497 -3.8544  0.4723 -3.3333
  165DOPC   C1419941   6.408   1.823   7.294 -1.6138 -0.3889  0.8054
  165DOPC  H14A19942   6.374   1.897   7.364 -2.9976 -0.9523  0.7522
  165DOPC  H14B19943   6.497   1.876   7.260 -0.4694 -0.5185  3.3872
  165DOPC  H14C19944   6.333   1.806   7.218 -0.0287  3.1997 -1.9124
  165DOPC   C1519945   6.567   1.722   7.454 -0.0192  0.0482  0.1825
  165DOPC  H15A19946   6.542   1.804   7.520 -1.2261  0.1447 -0.3687
  165DOPC  H15B19947   6.652   1.752   7.394 -0.6074 -1.0615 -1.2785
  165DOPC  H15C19948   6.610   1.641   7.511  1.3176  0.5862 -0.0282
  165DOPC   C1119949   6.599   1.645   7.140 -0.5552 -0.2054 -0.1356
  165DOPC  H11A19950   6.678   1.713   7.179 -1.2506  1.7023 -1.8356
  165DOPC  H11B19951   6.657   1.557   7.105 -1.1389  0.1187 -2.0646
  165DOPC     P19952   6.444   1.644   6.929 -0.3352 -0.2905  0.0606
  165DOPC   O1319953   6.445   1.733   6.812 -0.3480  0.0033 -0.0154
  165DOPC   O1419954   6.310   1.610   6.981  0.0237 -0.2513 -0.7105
  165DOPC   O1219955   6.530   1.715   7.042  0.0453 -1.0496  0.3517
  165DOPC   O1119956   6.522   1.505   6.908 -0.0909  0.4352  0.1699
  165DOPC    C119957   6.637   1.517   6.818  0.2878  0.1019 -0.1586
  165DOPC    HA19958   6.722   1.458   6.859  0.1053  0.8122  1.3043
  165DOPC    HB19959   6.665   1.622   6.796  0.5243  0.4616  1.6964
  165DOPC    C219960   6.599   1.441   6.687  0.8550  0.3901  0.6800
  165DOPC    HS19961   6.686   1.441   6.618  1.8882 -0.9883  1.9055
  165DOPC   O2119962   6.488   1.499   6.616  0.1422 -0.2920 -0.3733
  165DOPC   C2119963   6.513   1.622   6.559  0.9179  1.0452  0.0876
  165DOPC   O2219964   6.622   1.663   6.548 -0.8614  0.7273 -0.3039
  165DOPC   C2219965   6.390   1.681   6.497  0.4787  0.2329 -0.5474
  165DOPC   H2R19966   6.324   1.716   6.578 -0.1971 -0.0814 -0.9479
  165DOPC   H2S19967   6.343   1.594   6.445 -0.2598 -0.9613  1.9773
  165DOPC    C319968   6.559   1.291   6.719  0.2284  0.1271 -0.0188
  165DOPC    HX19969   6.464   1.278   6.776  1.7532 -1.1240  2.4062
  165DOPC    HY19970   6.638   1.265   6.792 -0.6644 -0.4111  0.7811
  165DOPC   O3119971   6.579   1.209   6.604  0.0550  0.4176  0.3782
  165DOPC   C3119972   6.477   1.194   6.519 -0.2552 -0.5456  0.2630
  165DOPC   O3219973   6.368   1.245   6.527 -0.0136  0.3513 -0.6593
  165DOPC   C3219974   6.524   1.095   6.415  0.1514  0.8965 -0.3598
  165DOPC   H2X19975   6.568   1.011   6.472 -0.2239  1.1231  0.2706
  165DOPC   H2Y19976   6.433   1.059   6.362  0.0701  1.0216 -0.3048
  165DOPC   C2319977   6.421   1.793   6.402  0.2354 -0.1914 -0.1597
  165DOPC   H3R19978   6.501   1.753   6.335 -0.0143 -2.4720  0.8285
  165DOPC   H3S19979   6.457   1.882   6.459 -1.4097 -0.0217  0.6840
  165DOPC   C2419980   6.312   1.841   6.310 -0.1392  0.3758 -0.5817
  165DOPC   H4R19981   6.274   1.937   6.351  0.2022 -0.7315  2.5681
  165DOPC   H4S19982   6.222   1.776   6.317 -0.8505  1.4434  0.6435
  165DOPC   C2519983   6.370   1.861   6.174  0.2311  0.0518  0.2803
  165DOPC   H5R19984   6.405   1.766   6.129 -1.4498  1.0036 -3.4846
  165DOPC   H5S19985   6.464   1.920   6.179  0.5713 -0.3803 -0.7255
  165DOPC   C2619986   6.268   1.928   6.082 -0.2099  0.7335  0.1290
  165DOPC   H6R19987   6.217   2.005   6.144 -0.5338 -0.6693  1.7019
  165DOPC   H6S19988   6.189   1.853   6.060 -0.4935  1.0238  0.1515
  165DOPC   C2719989   6.327   1.989   5.957 -0.0614  0.1537 -0.4098
  165DOPC   H7R19990   6.333   1.901   5.890 -2.0256 -1.1114  0.9661
  165DOPC   H7S19991   6.430   2.027   5.972 -0.1262 -0.2123  1.1565
  165DOPC   C2819992   6.246   2.096   5.894 -0.1774  0.7548 -0.2484
  165DOPC   H8R19993   6.207   2.176   5.961  1.3944  3.1925 -2.0353
  165DOPC   H8S19994   6.165   2.030   5.855 -0.3357  0.7393  0.1108
  165DOPC   C2919995   6.300   2.174   5.774 -0.3522 -0.5072  0.6942
  165DOPC   H9R19996   6.400   2.140   5.742 -0.3595  0.3420 -0.2972
  165DOPC  C21019997   6.235   2.266   5.699 -0.3272 -0.5498  0.1024
  165DOPC  H10R19998   6.278   2.307   5.606 -1.9492  0.0452 -0.4200
  165DOPC  C21119999   6.090   2.312   5.724  0.1325 -0.2590 -0.0139
  165DOPC  H11R20000   6.033   2.234   5.777 -0.0006 -0.5393 -0.5595
  165DOPC  H11S20001   6.043   2.329   5.625  0.7792 -0.0235 -0.2906
  165DOPC  C21220002   6.091   2.438   5.803  0.0750 -0.0160 -0.0081
  165DOPC  H12R20003   6.136   2.426   5.904  0.0106 -0.4460 -0.0298
  165DOPC  H12S20004   5.983   2.463   5.813  0.4626  1.0033  2.3125
  165DOPC  C21320005   6.166   2.558   5.739  0.2651  0.3710 -0.0333
  165DOPC  H13R20006   6.270   2.528   5.714  0.0256 -1.0464  0.5579
  165DOPC  H13S20007   6.169   2.635   5.819 -0.0248  0.7745 -0.4072
  165DOPC  C21420008   6.100   2.617   5.617 -0.2609  0.3444 -0.0466
  165DOPC  H14R20009   6.027   2.692   5.654  1.6702  2.3799 -0.1658
  165DOPC  H14S20010   6.048   2.532   5.566 -0.6253  0.7334 -0.3319
  165DOPC  C21520011   6.204   2.676   5.522 -0.1526 -0.7405  0.1461
  165DOPC  H15R20012   6.291   2.607   5.512  1.7629  1.6552 -0.6906
  165DOPC  H15S20013   6.243   2.773   5.558 -1.3485 -0.3910  0.5515
  165DOPC  C21620014   6.142   2.720   5.387 -0.7586  0.2505  0.0397
  165DOPC  H16R20015   6.220   2.762   5.321 -0.8893  1.0970  0.4119
  165DOPC  H16S20016   6.069   2.798   5.417 -0.2308 -0.6129  4.2239
  165DOPC  C21720017   6.066   2.604   5.328 -0.0473 -0.2462  0.4335
  165DOPC  H17R20018   5.964   2.602   5.372 -0.2267 -2.1607  0.0126
  165DOPC  H17S20019   6.122   2.509   5.345 -1.9830 -1.3523  1.0324
  165DOPC  C21820020   6.041   2.625   5.176  0.2291  0.1663  0.7360
  165DOPC  H18R20021   6.134   2.645   5.119  0.1974 -0.6114  0.4021
  165DOPC  H18S20022   5.981   2.718   5.164  0.9603  0.6377  0.7119
  165DOPC  H18T20023   5.992   2.540   5.125 -1.0974  0.6948  1.0852
  165DOPC   C3320024   6.629   1.142   6.310 -0.2666 -0.6460 -0.8487
  165DOPC   H3X20025   6.659   1.051   6.254  0.2500  0.1210 -1.8490
  165DOPC   H3Y20026   6.712   1.184   6.370 -1.0086 -2.1985  1.4007
  165DOPC   C3420027   6.580   1.246   6.202  0.0132  0.4681 -0.0681
  165DOPC   H4X20028   6.470   1.235   6.195  0.0328 -0.5348  0.8839
  165DOPC   H4Y20029   6.625   1.215   6.105  0.9876  0.2452  0.4349
  165DOPC   C3520030   6.629   1.390   6.243 -0.0845 -0.0535  0.7393
  165DOPC   H5X20031   6.740   1.392   6.239 -0.0082 -1.7545  1.0560
  165DOPC   H5Y20032   6.613   1.423   6.348  2.5863  1.0302  0.8708
  165DOPC   C3620033   6.574   1.493   6.145  0.0372  0.2640  0.4219
  165DOPC   H6X20034   6.466   1.472   6.159  0.1328 -0.1296  0.5748
  165DOPC   H6Y20035   6.581   1.591   6.198  2.0103  0.3599  0.0399
  165DOPC   C3720036   6.627   1.478   6.003 -0.4255 -0.0717  0.2116
  165DOPC   H7X20037   6.602   1.372   5.977  1.7810 -0.6533  0.2904
  165DOPC   H7Y20038   6.738   1.484   6.000 -0.1818 -3.1655 -0.6753
  165DOPC   C3820039   6.579   1.596   5.910  0.6693  0.3384 -0.1480
  165DOPC   H8X20040   6.614   1.688   5.962 -0.0774  0.6922 -0.2609
  165DOPC   H8Y20041   6.469   1.605   5.901  0.6207  0.5363  0.5482
  165DOPC   C3920042   6.647   1.587   5.781 -0.8063 -0.1129  0.2821
  165DOPC   H9X20043   6.739   1.527   5.789 -0.9675 -0.4148 -0.0702
  165DOPC  C31020044   6.609   1.633   5.660  0.1382  0.4303 -0.4610
  165DOPC  H10X20045   6.664   1.591   5.575  0.4915 -0.7068  0.3034
  165DOPC  C31120046   6.482   1.706   5.636 -0.4969 -0.6058 -0.1935
  165DOPC  H11X20047   6.410   1.705   5.721 -1.6697 -0.8407 -1.1577
  165DOPC  H11Y20048   6.432   1.653   5.552 -1.2227 -1.2561  0.6225
  165DOPC  C31220049   6.506   1.849   5.590  0.0273  0.2314 -0.0651
  165DOPC  H12X20050   6.581   1.858   5.509 -1.6309  3.3155 -1.4427
  165DOPC  H12Y20051   6.545   1.910   5.675  2.1504 -0.7328 -0.2704
  165DOPC  C31320052   6.377   1.900   5.525 -0.0536 -0.1352 -0.1438
  165DOPC  H13X20053   6.331   1.823   5.460  0.1030 -0.6288  0.3212
  165DOPC  H13Y20054   6.303   1.926   5.604 -0.0970  1.6314 -0.7223
  165DOPC  C31420055   6.381   2.027   5.439  0.2001 -0.0087  0.4170
  165DOPC  H14X20056   6.415   2.103   5.512 -0.0935 -0.6324  1.2079
  165DOPC  H14Y20057   6.456   2.025   5.356 -0.1258  1.2347  0.0747
  165DOPC  C31520058   6.252   2.070   5.375 -0.2430  0.1720 -0.3071
  165DOPC  H15X20059   6.177   2.031   5.447  2.6379 -2.2293  1.6566
  165DOPC  H15Y20060   6.232   2.018   5.279 -1.9381 -1.9997  1.1216
  165DOPC  C31620061   6.243   2.216   5.332  0.0244  0.4575 -0.2211
  165DOPC  H16X20062   6.245   2.286   5.418  1.4708 -1.9366  1.8443
  165DOPC  H16Y20063   6.331   2.245   5.271 -0.4602  0.0246 -1.1535
  165DOPC  C31720064   6.115   2.244   5.248  0.1503 -0.7292  0.0247
  165DOPC  H17X20065   6.130   2.343   5.200  1.0511 -1.0775 -0.4354
  165DOPC  H17Y20066   6.113   2.173   5.163 -1.1500  0.1669 -0.7237
  165DOPC  C31820067   5.992   2.244   5.340 -0.2404 -0.5225  0.8485
  165DOPC  H18X20068   5.978   2.144   5.385 -0.3213 -2.1647 -2.5256
  165DOPC  H18Y20069   6.014   2.324   5.414  1.0549  1.0549 -1.1505
  165DOPC  H18Z20070   5.902   2.268   5.280 -0.7309  0.0803  1.7936
  166DOPC     N20071   6.155   1.972   6.879 -0.5625 -0.0015 -0.1360
  166DOPC   C1220072   6.140   2.090   6.789  0.3088 -0.1862 -0.0808
  166DOPC  H12A20073   6.156   2.174   6.855 -4.3537  0.5311  0.4980
  166DOPC  H12B20074   6.038   2.094   6.753 -0.0946 -0.6015  0.9583
  166DOPC   C1320075   6.039   1.960   6.978  0.0239  0.1544 -0.2600
  166DOPC  H13A20076   6.054   1.876   7.044  1.6926  1.4363  1.1227
  166DOPC  H13B20077   6.038   2.048   7.041  2.0340 -0.7749  1.2069
  166DOPC  H13C20078   5.948   1.937   6.926  1.8815  0.9800 -4.2725
  166DOPC   C1420079   6.279   1.987   6.953  0.5156  0.2409  0.2731
  166DOPC  H14A20080   6.315   1.890   6.982 -1.6796 -0.7336 -0.0567
  166DOPC  H14B20081   6.352   2.043   6.896  1.5288 -2.4681 -1.2328
  166DOPC  H14C20082   6.257   2.041   7.044 -1.1816 -0.8376  0.5465
  166DOPC   C1520083   6.166   1.842   6.807 -0.8353 -0.4958  0.0917
  166DOPC  H15A20084   6.167   1.762   6.880 -0.4402 -1.4800 -0.9619
  166DOPC  H15B20085   6.259   1.842   6.752 -0.9299 -1.3880 -0.0822
  166DOPC  H15C20086   6.084   1.837   6.737 -0.3056  1.0112 -0.6862
  166DOPC   C1120087   6.238   2.097   6.670  0.1140 -0.1204 -0.2766
  166DOPC  H11A20088   6.232   2.001   6.614 -2.6697 -0.7882  0.9925
  166DOPC  H11B20089   6.202   2.184   6.613 -1.2636 -0.4820  0.0078
  166DOPC     P20090   6.429   2.262   6.721  0.1587  0.2138 -0.0036
  166DOPC   O1320091   6.561   2.248   6.783  0.8830  0.2185  0.5134
  166DOPC   O1420092   6.338   2.347   6.795  0.1208 -0.3523  0.2160
  166DOPC   O1220093   6.373   2.115   6.714 -0.8286 -0.2602 -0.0754
  166DOPC   O1120094   6.448   2.296   6.569  0.4747 -0.1255 -0.0202
  166DOPC    C120095   6.534   2.210   6.492  0.3664  0.5063 -0.4083
  166DOPC    HA20096   6.490   2.109   6.480  0.7099  0.2750  0.2426
  166DOPC    HB20097   6.627   2.194   6.551 -1.1071  1.7718  2.4591
  166DOPC    C220098   6.561   2.267   6.355  0.2284 -0.2634  0.1134
  166DOPC    HS20099   6.608   2.185   6.297 -1.4001  0.0076 -1.6884
  166DOPC   O2120100   6.641   2.386   6.372  0.9656  0.0049 -0.8798
  166DOPC   C2120101   6.769   2.368   6.383  0.2759 -0.3352  0.0975
  166DOPC   O2220102   6.820   2.257   6.390 -0.0015 -0.4931  0.3918
  166DOPC   C2220103   6.834   2.503   6.400  0.4919 -0.1817 -0.0190
  166DOPC   H2R20104   6.863   2.520   6.506  1.8758  1.8183 -0.6534
  166DOPC   H2S20105   6.774   2.591   6.368 -3.5540 -2.3048  1.1219
  166DOPC    C320106   6.430   2.295   6.283 -0.2117 -0.0793 -0.7727
  166DOPC    HX20107   6.359   2.350   6.348  0.9212  0.9132 -0.3618
  166DOPC    HY20108   6.369   2.202   6.272  1.2814 -1.2099  0.1610
  166DOPC   O3120109   6.451   2.346   6.149 -0.3306 -0.1487 -0.3715
  166DOPC   C3120110   6.379   2.447   6.107  0.0934 -0.6812  0.3207
  166DOPC   O3220111   6.281   2.493   6.165 -0.2328  0.5824  0.1927
  166DOPC   C3220112   6.440   2.507   5.982  0.4538 -0.8726  0.3965
  166DOPC   H2X20113   6.399   2.466   5.887  0.6430 -1.5809  0.6110
  166DOPC   H2Y20114   6.401   2.611   5.987  1.2935 -0.5718  0.7601
  166DOPC   C2320115   6.969   2.512   6.331  0.3903 -0.5357 -0.1281
  166DOPC   H3R20116   7.034   2.428   6.362 -0.0493 -0.6945  0.3626
  166DOPC   H3S20117   7.019   2.607   6.359  0.5326 -0.9465  1.0521
  166DOPC   C2420118   6.952   2.495   6.170  0.1851  0.3915  0.0682
  166DOPC   H4R20119   6.894   2.578   6.124 -1.3849 -2.0582 -2.7038
  166DOPC   H4S20120   6.884   2.410   6.151  0.5125  0.2223 -0.3590
  166DOPC   C2520121   7.088   2.494   6.094 -0.4979  0.2247  0.4869
  166DOPC   H5R20122   7.130   2.391   6.089 -0.5478  0.2421 -0.4158
  166DOPC   H5S20123   7.146   2.569   6.152 -1.6662  0.1329  1.8361
  166DOPC   C2620124   7.069   2.539   5.954 -0.2174 -0.6722  0.6620
  166DOPC   H6R20125   7.015   2.636   5.943  0.3757 -0.5554 -1.6655
  166DOPC   H6S20126   6.996   2.470   5.906 -2.1177  0.0980  2.2963
  166DOPC   C2720127   7.200   2.569   5.894 -0.8725  0.4816  0.3740
  166DOPC   H7R20128   7.263   2.640   5.950 -0.0329  2.5719 -2.9372
  166DOPC   H7S20129   7.183   2.619   5.796  0.8435 -1.7778 -1.2075
  166DOPC   C2820130   7.283   2.444   5.872 -0.0687  0.2157 -0.0844
  166DOPC   H8R20131   7.203   2.381   5.827 -0.1414  0.4558 -0.2897
  166DOPC   H8S20132   7.313   2.390   5.965 -1.8195 -1.1720 -0.2803
  166DOPC   C2920133   7.404   2.451   5.781  0.4119 -0.1812  0.1196
  166DOPC   H9R20134   7.503   2.443   5.828 -0.0927  0.7117  1.4045
  166DOPC  C21020135   7.400   2.447   5.650  0.1525 -0.9944  0.2928
  166DOPC  H10R20136   7.496   2.453   5.597  0.0494 -0.4147  0.1600
  166DOPC  C21120137   7.281   2.433   5.563  1.1828 -0.1344  0.2299
  166DOPC  H11R20138   7.218   2.525   5.566 -0.0187 -0.9459  0.5368
  166DOPC  H11S20139   7.212   2.361   5.610  0.8234 -2.0068 -2.8689
  166DOPC  C21220140   7.294   2.401   5.412  0.7363 -0.4922 -0.1159
  166DOPC  H12R20141   7.196   2.415   5.362  0.7327  1.7179  0.4431
  166DOPC  H12S20142   7.313   2.291   5.414  1.1378 -0.4242 -0.1250
  166DOPC  C21320143   7.401   2.470   5.331 -0.3157 -0.1712  0.0348
  166DOPC  H13R20144   7.500   2.432   5.364  0.8396  0.8397 -2.0307
  166DOPC  H13S20145   7.406   2.576   5.365  1.1175 -0.5608  1.1490
  166DOPC  C21420146   7.396   2.462   5.180 -0.3619  0.0498  0.3333
  166DOPC  H14R20147   7.388   2.564   5.137  0.9552 -0.0805 -0.2630
  166DOPC  H14S20148   7.304   2.406   5.154 -1.4213  0.7013  2.4597
  166DOPC  C21520149   7.531   2.412   5.114 -0.1519  0.0409  0.4221
  166DOPC  H15R20150   7.615   2.481   5.137 -0.9128  0.7538  1.1292
  166DOPC  H15S20151   7.513   2.403   5.005 -0.9541 -0.1246  0.5562
  166DOPC  C21620152   7.580   2.277   5.162  0.1305  0.6930 -0.2834
  166DOPC  H16R20153   7.511   2.196   5.131  1.1489 -0.0351 -0.6950
  166DOPC  H16S20154   7.586   2.279   5.273  1.2080  2.0013 -0.3438
  166DOPC  C21720155   7.710   2.219   5.111 -0.6199  0.1494 -0.5057
  166DOPC  H17R20156   7.791   2.275   5.161  1.1063 -2.4423 -0.2163
  166DOPC  H17S20157   7.722   2.228   5.001 -0.8226 -0.7410 -0.6050
  166DOPC  C21820158   7.721   2.068   5.142  0.1794  0.6641 -0.6620
  166DOPC  H18R20159   7.828   2.037   5.148  0.1058  0.7116  1.6978
  166DOPC  H18S20160   7.670   2.005   5.066 -0.7559 -1.9423  1.9576
  166DOPC  H18T20161   7.683   2.041   5.242 -0.4826 -1.7728 -1.5141
  166DOPC   C3320162   6.600   2.520   5.995  0.2042  0.2815 -0.1847
  166DOPC   H3X20163   6.636   2.417   5.973  1.4405  0.6050  0.2751
  166DOPC   H3Y20164   6.622   2.537   6.103 -0.1946 -0.3023 -0.0047
  166DOPC   C3420165   6.662   2.618   5.898 -0.3686 -0.4632  0.3464
  166DOPC   H4X20166   6.772   2.604   5.894 -0.4457 -1.5583  1.5962
  166DOPC   H4Y20167   6.633   2.717   5.941 -1.9892 -1.1165  0.8553
  166DOPC   C3520168   6.607   2.615   5.749  0.4920  0.5199 -0.2173
  166DOPC   H5X20169   6.500   2.646   5.756  0.7319  1.5544 -1.0136
  166DOPC   H5Y20170   6.600   2.512   5.706 -0.3155  0.3018  0.4005
  166DOPC   C3620171   6.682   2.710   5.650  0.3042  0.3069  0.2381
  166DOPC   H6X20172   6.630   2.728   5.554  0.9290 -1.2132 -0.4118
  166DOPC   H6Y20173   6.690   2.812   5.694 -0.1280  0.9928 -1.2256
  166DOPC   C3720174   6.824   2.661   5.611  0.2495  0.1755  0.2098
  166DOPC   H7X20175   6.865   2.598   5.693 -2.1366 -0.4813  1.0094
  166DOPC   H7Y20176   6.814   2.603   5.517  2.1637  0.1910 -0.0281
  166DOPC   C3820177   6.922   2.778   5.597  0.2727 -0.3222 -0.5109
  166DOPC   H8X20178   6.926   2.847   5.684  0.6831  1.4256 -1.8696
  166DOPC   H8Y20179   6.857   2.839   5.531  0.0364  0.8227  0.7372
  166DOPC   C3920180   7.063   2.749   5.542  0.9677 -0.2277  0.3422
  166DOPC   H9X20181   7.149   2.725   5.606  2.2178  1.8029 -0.4910
  166DOPC  C31020182   7.103   2.782   5.416  0.4369 -0.8657 -0.7240
  166DOPC  H10X20183   7.212   2.780   5.400  0.4574 -1.8104 -0.5065
  166DOPC  C31120184   7.024   2.852   5.304 -0.2240  0.6130  0.2478
  166DOPC  H11X20185   6.915   2.835   5.320  0.0445  1.2285  3.2181
  166DOPC  H11Y20186   7.062   2.815   5.206 -2.4277 -0.0523 -0.4059
  166DOPC  C31220187   7.070   2.997   5.315 -0.0955 -0.7298 -0.4421
  166DOPC  H12X20188   7.180   3.013   5.321 -0.4976  2.7954 -0.3851
  166DOPC  H12Y20189   7.035   3.032   5.415  0.3763 -0.7485 -0.2653
  166DOPC  C31320190   7.008   3.083   5.210 -0.0601 -1.0413  0.3102
  166DOPC  H13X20191   7.039   3.189   5.227 -2.8104  0.0505 -0.9028
  166DOPC  H13Y20192   7.031   3.053   5.106  0.7633  2.2281 -0.5624
  166DOPC  C31420193   6.853   3.093   5.234 -0.0438 -0.6280 -0.1068
  166DOPC  H14X20194   6.806   2.994   5.219 -1.8891  0.3132 -0.8125
  166DOPC  H14Y20195   6.832   3.124   5.338 -2.4989 -0.7155 -0.5301
  166DOPC  C31520196   6.784   3.183   5.130  0.6236 -0.2984 -0.3189
  166DOPC  H15X20197   6.674   3.167   5.135  0.2506  2.2090  2.1435
  166DOPC  H15Y20198   6.816   3.169   5.024 -2.4736  0.2429 -1.4505
  166DOPC  C31620199   6.813   3.335   5.166 -0.3559  0.4203 -0.3704
  166DOPC  H16X20200   6.775   3.342   5.270 -2.4354 -1.8460 -0.8667
  166DOPC  H16Y20201   6.921   3.359   5.170  0.0426 -1.3519  0.7967
  166DOPC  C31720202   6.749   3.439   5.077 -0.3679  0.2968 -0.2925
  166DOPC  H17X20203   6.639   3.428   5.069 -0.3287  0.5526 -1.4013
  166DOPC  H17Y20204   6.771   3.528   5.139  0.7760  0.9455 -1.5895
  166DOPC  C31820205   6.822   3.456   4.936 -0.0910 -0.0867  0.0014
  166DOPC  H18X20206   6.763   3.533   4.881 -0.0367 -1.7229 -2.5062
  166DOPC  H18Y20207   6.928   3.488   4.945 -0.4308  1.2325 -0.5100
  166DOPC  H18Z20208   6.832   3.358   4.884  2.1785 -0.1362  0.4283
  167DOPC     N20209   7.051   2.009   6.849  0.4277  0.2953 -0.3525
  167DOPC   C1220210   7.055   1.878   6.760  0.5821 -0.1256  0.3655
  167DOPC  H12A20211   6.976   1.892   6.688  1.5340  0.8682 -0.5356
  167DOPC  H12B20212   7.039   1.791   6.821  1.9245  1.4597  3.1815
  167DOPC   C1320213   7.080   2.131   6.772  0.2364  0.0674  0.3765
  167DOPC  H13A20214   7.186   2.140   6.754  0.1003  0.4791 -0.2834
  167DOPC  H13B20215   7.027   2.140   6.678  1.3966 -2.7843 -0.6588
  167DOPC  H13C20216   7.063   2.212   6.841  0.7249  1.0460 -0.6111
  167DOPC   C1420217   7.132   1.995   6.968  0.3742  0.3534  0.8089
  167DOPC  H14A20218   7.141   2.088   7.023  2.7467  0.1376  0.9013
  167DOPC  H14B20219   7.097   1.926   7.043  1.5882  0.7210  1.7498
  167DOPC  H14C20220   7.229   1.964   6.932 -1.2548 -1.7060 -2.2444
  167DOPC   C1520221   6.899   2.022   6.884 -0.5899  0.1389 -0.0773
  167DOPC  H15A20222   6.876   1.939   6.950 -0.2177 -0.7401 -1.0439
  167DOPC  H15B20223   6.837   2.033   6.797 -0.1992  0.3600 -0.3261
  167DOPC  H15C20224   6.884   2.114   6.938 -1.1870  0.9984 -1.6517
  167DOPC   C1120225   7.191   1.850   6.670 -0.5309 -0.1610 -0.3413
  167DOPC  H11A20226   7.154   1.776   6.595 -1.3220  0.5236 -0.6500
  167DOPC  H11B20227   7.212   1.943   6.613 -1.2995  0.4653  0.3612
  167DOPC     P20228   7.280   1.660   6.826 -0.2012  0.5982  0.2683
  167DOPC   O1320229   7.300   1.688   6.973  0.3108 -0.1822  0.3123
  167DOPC   O1420230   7.372   1.557   6.767  0.0383 -0.5387 -0.5060
  167DOPC   O1220231   7.298   1.802   6.755  0.5498 -0.2347  0.2892
  167DOPC   O1120232   7.134   1.622   6.791  0.2557 -0.2689 -0.5246
  167DOPC    C120233   7.084   1.487   6.786 -0.6315 -0.5821  0.1271
  167DOPC    HA20234   6.973   1.486   6.794 -0.8090  1.8943 -1.0135
  167DOPC    HB20235   7.132   1.422   6.861  3.1607  2.1812  0.3746
  167DOPC    C220236   7.108   1.417   6.645  0.7399  0.4478 -0.2654
  167DOPC    HS20237   7.217   1.419   6.622  1.4906 -4.5604  1.5371
  167DOPC   O2120238   7.032   1.487   6.546  0.0845  0.2225  0.3418
  167DOPC   C2120239   7.081   1.484   6.429 -0.7762  0.0912  0.0117
  167DOPC   O2220240   7.181   1.422   6.397  0.3352  0.3171 -0.0219
  167DOPC   C2220241   6.993   1.570   6.341  0.1943 -0.4165  0.0573
  167DOPC   H2R20242   7.012   1.677   6.360  0.0607 -0.4946  0.6310
  167DOPC   H2S20243   6.887   1.542   6.361 -0.6561  1.8917 -0.9276
  167DOPC    C320244   7.079   1.260   6.651  0.4188 -0.2075 -0.4067
  167DOPC    HX20245   6.971   1.256   6.678 -0.5003  0.9832 -3.4722
  167DOPC    HY20246   7.139   1.236   6.742 -0.7607 -0.5926  0.2914
  167DOPC   O3120247   7.127   1.182   6.546  0.3168  0.3207 -0.1055
  167DOPC   C3120248   7.044   1.150   6.450  0.5497  0.0710  0.0558
  167DOPC   O3220249   6.929   1.192   6.440  0.4520  0.1175  0.2020
  167DOPC   C3220250   7.100   1.040   6.355  0.1831  0.1766 -0.6079
  167DOPC   H2X20251   7.200   1.074   6.319  0.5531 -0.7344 -0.4728
  167DOPC   H2Y20252   7.114   0.947   6.414  0.3297  0.2019 -0.6035
  167DOPC   C2320253   7.018   1.548   6.192 -0.8819 -0.6194 -0.5902
  167DOPC   H3R20254   6.932   1.593   6.138  0.3970  0.6281 -1.6890
  167DOPC   H3S20255   7.018   1.440   6.166  0.3120 -0.5772 -0.8037
  167DOPC   C2420256   7.153   1.606   6.134  0.5374  0.1827 -0.0476
  167DOPC   H4R20257   7.241   1.559   6.183 -0.0240 -0.4788  0.3366
  167DOPC   H4S20258   7.160   1.716   6.145  1.5647  0.3006 -1.5215
  167DOPC   C2520259   7.156   1.582   5.986 -0.0174 -0.3241  0.3775
  167DOPC   H5R20260   7.156   1.472   5.966 -0.8574 -0.0958 -1.0117
  167DOPC   H5S20261   7.254   1.622   5.953  1.3370 -1.6269  2.5614
  167DOPC   C2620262   7.047   1.654   5.906  0.4825  0.0368 -0.0948
  167DOPC   H6R20263   7.012   1.749   5.950  0.3208 -0.3523  0.6319
  167DOPC   H6S20264   6.954   1.594   5.897  0.9656 -0.4049 -3.3264
  167DOPC   C2720265   7.087   1.684   5.762  0.4440 -0.4148 -0.0447
  167DOPC   H7R20266   7.108   1.587   5.712 -1.9103 -1.2643  0.4682
  167DOPC   H7S20267   7.186   1.735   5.769  0.0918  0.2318  0.3904
  167DOPC   C2820268   6.989   1.780   5.689  0.7612 -0.1525 -0.0922
  167DOPC   H8R20269   6.993   1.877   5.744  0.8330 -1.1870  1.8169
  167DOPC   H8S20270   6.888   1.737   5.707  0.3206  0.5413 -0.8058
  167DOPC   C2920271   7.027   1.800   5.544 -0.6343 -0.3756 -0.1548
  167DOPC   H9R20272   7.071   1.709   5.500  0.0431  0.0235 -0.3198
  167DOPC  C21020273   7.001   1.901   5.468 -1.2060  0.2215 -0.3876
  167DOPC  H10R20274   7.024   1.898   5.360 -1.7343  0.1166 -0.5004
  167DOPC  C21120275   6.924   2.026   5.515 -0.6730 -0.2255 -0.4830
  167DOPC  H11R20276   6.837   1.997   5.579  1.1657 -0.4612  2.0642
  167DOPC  H11S20277   6.872   2.067   5.427 -0.3899  1.3025  0.0359
  167DOPC  C21220278   7.018   2.131   5.574 -0.4076 -0.5107 -0.4262
  167DOPC  H12R20279   7.079   2.089   5.657 -0.4617 -0.5055 -0.3831
  167DOPC  H12S20280   7.089   2.177   5.503 -1.0532 -1.2444 -1.5666
  167DOPC  C21320281   6.944   2.255   5.650  0.2250  0.0086  1.0390
  167DOPC  H13R20282   6.888   2.303   5.568  1.4091  0.5337  0.5192
  167DOPC  H13S20283   7.015   2.328   5.693 -0.1623  0.3700  1.0656
  167DOPC  C21420284   6.852   2.208   5.766  0.0626 -0.0409 -0.1850
  167DOPC  H14R20285   6.776   2.134   5.731 -1.7642  1.4275  0.5289
  167DOPC  H14S20286   6.799   2.302   5.791 -1.2085 -0.9561  0.7542
  167DOPC  C21520287   6.920   2.153   5.884 -0.1309  0.2073 -0.7307
  167DOPC  H15R20288   6.969   2.237   5.939 -0.5821 -1.3240  2.2239
  167DOPC  H15S20289   6.988   2.070   5.857 -2.4038 -1.4127 -1.7027
  167DOPC  C21620290   6.823   2.082   5.988 -0.1577 -0.3939  0.1444
  167DOPC  H16R20291   6.759   2.012   5.930  0.0994 -1.3955  1.0528
  167DOPC  H16S20292   6.757   2.161   6.030 -0.3397 -0.2554 -0.3840
  167DOPC  C21720293   6.898   1.998   6.089 -0.4354  0.5093  0.0460
  167DOPC  H17R20294   6.909   2.058   6.183  0.4588 -0.6104  0.6759
  167DOPC  H17S20295   6.996   1.973   6.043  0.5429  1.8038  1.3119
  167DOPC  C21820296   6.825   1.875   6.124  0.6075  0.3676  0.0038
  167DOPC  H18R20297   6.789   1.825   6.031 -2.3791  2.1196  0.0945
  167DOPC  H18S20298   6.734   1.892   6.185 -0.9366 -1.9730 -1.4678
  167DOPC  H18T20299   6.897   1.800   6.162  0.5350 -0.0969 -0.7452
  167DOPC   C3320300   7.014   1.017   6.229 -0.6281  0.4968 -0.2992
  167DOPC   H3X20301   6.904   1.009   6.242 -1.0431  1.4552 -2.6144
  167DOPC   H3Y20302   7.051   0.919   6.191 -0.1548  0.6037 -0.1189
  167DOPC   C3420303   7.041   1.122   6.126  0.5372 -0.0313 -0.1896
  167DOPC   H4X20304   7.150   1.123   6.102  1.1352 -2.0545  1.9972
  167DOPC   H4Y20305   7.007   1.214   6.179 -0.3726 -1.6808  2.2725
  167DOPC   C3520306   6.962   1.096   6.000 -0.0279  0.1142 -0.2080
  167DOPC   H5X20307   6.852   1.100   6.017 -0.1315 -1.7700 -0.1995
  167DOPC   H5Y20308   6.985   0.990   5.973 -0.1349 -0.0963  0.5010
  167DOPC   C3620309   6.999   1.200   5.888 -0.6753 -0.0680  0.0081
  167DOPC   H6X20310   6.960   1.297   5.925 -1.1673 -0.3873  0.3396
  167DOPC   H6Y20311   7.110   1.205   5.884 -0.5775  0.2796  1.9225
  167DOPC   C3720312   6.936   1.153   5.759 -0.2245 -0.5764 -0.7405
  167DOPC   H7X20313   7.005   1.074   5.722  1.2230 -0.7812  2.0934
  167DOPC   H7Y20314   6.836   1.105   5.772  0.4536 -1.4574  2.0261
  167DOPC   C3820315   6.932   1.268   5.659 -0.3485 -1.0596 -0.0328
  167DOPC   H8X20316   7.040   1.291   5.644 -0.5638 -1.2774 -2.2686
  167DOPC   H8Y20317   6.868   1.352   5.693 -0.7920 -0.7596 -1.5574
  167DOPC   C3920318   6.869   1.216   5.534 -0.4847  0.5419  1.1492
  167DOPC   H9X20319   6.780   1.151   5.544  1.8786 -3.0389  0.7191
  167DOPC  C31020320   6.908   1.258   5.412  0.3335 -0.1583 -0.2611
  167DOPC  H10X20321   6.858   1.200   5.334 -0.9402 -0.1550  0.5302
  167DOPC  C31120322   7.012   1.356   5.373  0.1940 -0.3686 -0.4467
  167DOPC  H11X20323   7.109   1.315   5.338  1.1092  0.3583  1.1302
  167DOPC  H11Y20324   7.034   1.425   5.458 -0.3949 -0.2324 -0.3945
  167DOPC  C31220325   6.969   1.461   5.253  0.3921 -0.6481 -0.7876
  167DOPC  H12X20326   6.944   1.404   5.161  1.4540 -4.9053  1.2972
  167DOPC  H12Y20327   7.061   1.519   5.230 -1.3217  3.2943  1.2564
  167DOPC  C31320328   6.862   1.558   5.306  0.8795 -0.5224  0.5632
  167DOPC  H13X20329   6.772   1.506   5.346  0.3096 -0.0278 -0.0312
  167DOPC  H13Y20330   6.899   1.615   5.393  1.4056 -0.2920  0.1952
  167DOPC  C31420331   6.832   1.649   5.186  1.1981 -0.3535 -0.6540
  167DOPC  H14X20332   6.925   1.703   5.157 -0.4510  1.6343 -2.5142
  167DOPC  H14Y20333   6.795   1.588   5.101 -2.2808  0.1888  0.3286
  167DOPC  C31520334   6.724   1.754   5.221  0.2513  0.0062  0.4176
  167DOPC  H15X20335   6.741   1.792   5.323 -1.9829  1.2933  0.3683
  167DOPC  H15Y20336   6.623   1.710   5.204 -0.7630  1.7037  1.6800
  167DOPC  C31620337   6.714   1.884   5.128  0.0876 -0.9189 -0.1357
  167DOPC  H16X20338   6.624   1.933   5.168  0.4978  0.4026 -0.7801
  167DOPC  H16Y20339   6.798   1.955   5.146 -0.0051 -1.0781  0.9956
  167DOPC  C31720340   6.707   1.837   4.982  0.0857 -0.1446 -0.0009
  167DOPC  H17X20341   6.805   1.812   4.937  0.3679 -0.1136  0.5817
  167DOPC  H17Y20342   6.650   1.742   4.977 -0.6384  0.1967  1.2775
  167DOPC  C31820343   6.637   1.941   4.896 -0.3150  0.2684 -0.2167
  167DOPC  H18X20344   6.654   1.927   4.787 -1.1356  2.0184 -0.6020
  167DOPC  H18Y20345   6.530   1.937   4.922  0.1684 -2.1390  1.7730
  167DOPC  H18Z20346   6.670   2.040   4.934 -0.9222  0.1210  0.7438
  168DOPC     N20347   1.801   6.811   7.301 -0.4952 -0.0832  0.1069
  168DOPC   C1220348   1.753   6.808   7.156 -0.2123 -0.1466 -0.6829
  168DOPC  H12A20349   1.725   6.905   7.119  3.0273  1.0658 -0.3360
  168DOPC  H12B20350   1.670   6.740   7.144  0.6361 -1.2739 -0.3742
  168DOPC   C1320351   1.918   6.891   7.307 -0.1626  0.4365 -0.3918
  168DOPC  H13A20352   1.911   6.979   7.245 -0.3272  0.3322 -0.5216
  168DOPC  H13B20353   1.947   6.923   7.406 -0.3423 -0.2774 -0.0989
  168DOPC  H13C20354   2.005   6.839   7.269 -0.8924 -0.8225 -0.4011
  168DOPC   C1420355   1.835   6.674   7.356  0.6992  0.3265  0.2021
  168DOPC  H14A20356   1.750   6.609   7.344  0.1016  1.1226  0.0319
  168DOPC  H14B20357   1.913   6.637   7.292  2.3041  2.2634  0.9264
  168DOPC  H14C20358   1.870   6.669   7.458 -1.3930 -1.4569  0.9193
  168DOPC   C1520359   1.704   6.860   7.398  0.4760  0.0864  0.9045
  168DOPC  H15A20360   1.609   6.820   7.365  1.3579 -0.7470 -0.7400
  168DOPC  H15B20361   1.696   6.967   7.393  0.3521  0.0404  0.0083
  168DOPC  H15C20362   1.720   6.836   7.503 -1.5487 -1.1310  1.0060
  168DOPC   C1120363   1.859   6.751   7.052  0.2949 -0.0865 -0.1938
  168DOPC  H11A20364   1.845   6.773   6.944  1.4896 -3.4418 -1.1311
  168DOPC  H11B20365   1.957   6.797   7.075 -0.3701  0.8222  0.9599
  168DOPC     P20366   1.749   6.518   7.020 -0.1574 -0.2766 -0.3367
  168DOPC   O1320367   1.721   6.437   7.141  0.0425 -0.1081 -0.1630
  168DOPC   O1420368   1.783   6.449   6.890 -0.2232  0.1218  0.0701
  168DOPC   O1220369   1.867   6.613   7.063 -0.0380  0.6743  0.1626
  168DOPC   O1120370   1.641   6.630   6.995  0.1858 -0.4368 -0.3061
  168DOPC    C120371   1.501   6.604   6.966 -0.7601 -0.7295 -0.6511
  168DOPC    HA20372   1.449   6.702   6.972 -0.3014 -0.3811 -2.0227
  168DOPC    HB20373   1.465   6.537   7.048 -0.3042  0.6496  0.7226
  168DOPC    C220374   1.465   6.554   6.823  0.3203  0.7322 -0.4220
  168DOPC    HS20375   1.513   6.457   6.800 -0.4662  0.2969 -0.2609
  168DOPC   O2120376   1.489   6.654   6.730  0.0217  0.4090 -0.1520
  168DOPC   C2120377   1.553   6.617   6.617  0.6431  0.7141 -0.4909
  168DOPC   O2220378   1.553   6.506   6.568  0.1920 -0.5823 -0.2135
  168DOPC   C2220379   1.609   6.734   6.543 -0.2449  0.5794  0.6729
  168DOPC   H2R20380   1.687   6.786   6.605  1.3767 -0.2125 -0.6240
  168DOPC   H2S20381   1.525   6.797   6.509 -1.5973 -1.1880  0.6340
  168DOPC    C320382   1.311   6.515   6.821  0.5916  0.7529  0.4748
  168DOPC    HX20383   1.263   6.611   6.849 -1.1560 -0.2978  1.2681
  168DOPC    HY20384   1.296   6.448   6.909  1.9985  0.5918  0.6089
  168DOPC   O3120385   1.250   6.467   6.699  0.6407  0.4773 -0.9510
  168DOPC   C3120386   1.279   6.340   6.661 -0.3896 -0.2150 -0.0908
  168DOPC   O3220387   1.345   6.260   6.724  0.2025  0.0263  0.0840
  168DOPC   C3220388   1.188   6.302   6.539 -0.4675 -0.3290 -0.0735
  168DOPC   H2X20389   1.136   6.208   6.567  1.6732 -1.5535 -0.0114
  168DOPC   H2Y20390   1.123   6.387   6.511  2.5562  2.1517 -0.0621
  168DOPC   C2320391   1.698   6.695   6.419 -0.1243 -0.3701 -0.3703
  168DOPC   H3R20392   1.652   6.617   6.354  1.9344 -0.4107 -1.8764
  168DOPC   H3S20393   1.789   6.651   6.465 -0.6063 -0.3029  0.6982
  168DOPC   C2420394   1.732   6.824   6.341  0.4582  0.3398 -0.1039
  168DOPC   H4R20395   1.750   6.906   6.414 -0.6664 -0.4495  1.0988
  168DOPC   H4S20396   1.641   6.849   6.282  0.3104  1.5033  0.5747
  168DOPC   C2520397   1.839   6.799   6.232 -0.0977  0.0971  0.7333
  168DOPC   H5R20398   1.921   6.750   6.290 -1.3182 -0.8657  1.6951
  168DOPC   H5S20399   1.881   6.898   6.202  0.3792 -0.1542  0.5672
  168DOPC   C2620400   1.811   6.700   6.112 -0.6939 -0.3911  0.0013
  168DOPC   H6R20401   1.786   6.597   6.146  0.6611 -0.5534  0.5873
  168DOPC   H6S20402   1.909   6.696   6.059  1.4463  1.1893  3.4427
  168DOPC   C2720403   1.713   6.745   5.996 -0.6613 -0.0559  0.1079
  168DOPC   H7R20404   1.761   6.821   5.930  0.4902  0.4992  1.5276
  168DOPC   H7S20405   1.630   6.796   6.049 -0.2264  0.9496 -0.1420
  168DOPC   C2820406   1.655   6.628   5.922 -0.0597  0.1305 -0.1104
  168DOPC   H8R20407   1.586   6.652   5.838  0.5929 -1.5494 -1.1668
  168DOPC   H8S20408   1.611   6.561   5.999  0.2906  1.7637  1.5877
  168DOPC   C2920409   1.761   6.558   5.850 -0.1214  0.2628 -0.0024
  168DOPC   H9R20410   1.808   6.489   5.922  0.0606  1.2672  0.8639
  168DOPC  C21020411   1.810   6.583   5.728 -0.2893 -0.0467  0.5092
  168DOPC  H10R20412   1.890   6.515   5.695 -0.8591 -0.0236 -0.9796
  168DOPC  C21120413   1.773   6.692   5.626 -0.2443 -0.1556  0.3988
  168DOPC  H11R20414   1.855   6.763   5.604  1.1972 -1.5103  1.1701
  168DOPC  H11S20415   1.697   6.755   5.676  1.5275  1.1281  1.6154
  168DOPC  C21220416   1.710   6.663   5.490  0.1349  0.3585 -0.7069
  168DOPC  H12R20417   1.788   6.612   5.430 -0.7007  0.7164 -2.1546
  168DOPC  H12S20418   1.695   6.761   5.440 -1.4584  1.5013  1.8357
  168DOPC  C21320419   1.587   6.569   5.499 -0.2807  0.6456  0.5931
  168DOPC  H13R20420   1.504   6.616   5.557 -1.4304 -2.2999  1.5015
  168DOPC  H13S20421   1.610   6.478   5.558 -1.1312 -1.5451 -2.2524
  168DOPC  C21420422   1.536   6.520   5.359 -0.5323 -0.2854 -0.2826
  168DOPC  H14R20423   1.625   6.467   5.321  0.7106  0.2701  1.7214
  168DOPC  H14S20424   1.521   6.609   5.293  2.8610 -0.8174 -1.9763
  168DOPC  C21520425   1.415   6.423   5.354 -0.0702 -0.3017  0.0687
  168DOPC  H15R20426   1.349   6.447   5.440 -0.8210  0.0982 -0.6046
  168DOPC  H15S20427   1.451   6.320   5.372  0.1846  0.0153  1.5814
  168DOPC  C21620428   1.330   6.438   5.227  0.5694  0.0362  0.0938
  168DOPC  H16R20429   1.299   6.544   5.215  0.8889  0.3561  1.8234
  168DOPC  H16S20430   1.238   6.377   5.239 -1.2318  2.3248 -1.1573
  168DOPC  C21720431   1.395   6.380   5.103  0.8040  0.1318 -0.4197
  168DOPC  H17R20432   1.443   6.290   5.147 -0.9161  0.5751  2.6247
  168DOPC  H17S20433   1.472   6.457   5.078  0.9780 -0.3954 -1.5732
  168DOPC  C21820434   1.303   6.366   4.984 -0.1423 -0.0600 -0.2527
  168DOPC  H18R20435   1.220   6.293   4.985 -0.1041 -0.1267 -1.0759
  168DOPC  H18S20436   1.367   6.342   4.896 -1.0442 -0.0935 -0.9187
  168DOPC  H18T20437   1.251   6.462   4.961  1.2423  0.3316 -2.0517
  168DOPC   C3320438   1.271   6.272   6.409 -1.2112  0.0606  0.1528
  168DOPC   H3X20439   1.210   6.201   6.349  0.3434  0.8361 -2.5073
  168DOPC   H3Y20440   1.371   6.228   6.432 -0.2994  2.0519  0.1798
  168DOPC   C3420441   1.275   6.391   6.315 -0.3524  0.0657 -0.1603
  168DOPC   H4X20442   1.358   6.457   6.349 -1.2486  1.0929  0.0907
  168DOPC   H4Y20443   1.180   6.448   6.304  0.0241  0.8293  0.4391
  168DOPC   C3520444   1.326   6.351   6.181 -0.3311 -0.3111  0.4371
  168DOPC   H5X20445   1.289   6.254   6.141 -0.2371  0.1122 -0.7292
  168DOPC   H5Y20446   1.433   6.320   6.187 -0.6255 -1.3095  0.6602
  168DOPC   C3620447   1.323   6.466   6.079 -0.0923 -0.1195  0.3634
  168DOPC   H6X20448   1.217   6.493   6.056  0.4080  1.6553  0.0283
  168DOPC   H6Y20449   1.381   6.552   6.119  0.5904 -0.8673  1.0153
  168DOPC   C3720450   1.377   6.428   5.940 -0.0573  0.2616 -0.4517
  168DOPC   H7X20451   1.391   6.518   5.876 -0.6925  0.9159  0.3064
  168DOPC   H7Y20452   1.477   6.381   5.943 -0.4801 -0.9295 -2.5506
  168DOPC   C3820453   1.264   6.348   5.870 -1.2361 -0.2303  0.4263
  168DOPC   H8X20454   1.191   6.424   5.835 -2.4602 -0.6144  2.0154
  168DOPC   H8Y20455   1.217   6.269   5.933 -1.3127 -0.2015  0.4061
  168DOPC   C3920456   1.319   6.285   5.741 -0.3486 -0.5752 -0.0457
  168DOPC   H9X20457   1.379   6.358   5.685 -1.5952  0.1419 -0.5048
  168DOPC  C31020458   1.297   6.172   5.683 -0.3078 -0.7322 -0.0915
  168DOPC  H10X20459   1.357   6.153   5.593  1.1621 -2.0198  1.0945
  168DOPC  C31120460   1.200   6.069   5.744  0.2102 -0.7399 -0.1046
  168DOPC  H11X20461   1.184   6.095   5.851  0.0896  0.7528 -0.4541
  168DOPC  H11Y20462   1.244   5.967   5.747  0.5155 -0.6523 -1.2129
  168DOPC  C31220463   1.062   6.074   5.673 -0.2390  0.4742 -0.1130
  168DOPC  H12X20464   1.002   6.162   5.705  0.5292  0.5673  1.1097
  168DOPC  H12Y20465   1.011   5.979   5.700 -1.4432  1.7228  2.3087
  168DOPC  C31320466   1.072   6.085   5.522 -0.3318 -0.5128 -0.3013
  168DOPC  H13X20467   1.058   6.190   5.489 -0.3075 -0.1850  0.6978
  168DOPC  H13Y20468   1.172   6.051   5.490  0.4708  0.7981  0.6947
  168DOPC  C31420469   0.969   6.005   5.446  0.2442  0.2495  0.0906
  168DOPC  H14X20470   0.944   5.908   5.494 -1.1634  0.4621 -0.1685
  168DOPC  H14Y20471   0.876   6.067   5.447  1.2413  1.7771  1.2008
  168DOPC  C31520472   1.012   5.980   5.300 -0.4351 -0.2772 -0.2718
  168DOPC  H15X20473   1.106   5.921   5.303 -0.1492  0.2027  1.6292
  168DOPC  H15Y20474   1.039   6.076   5.250 -0.6198 -1.0347 -1.9016
  168DOPC  C31620475   0.904   5.911   5.213 -0.7274 -0.0646  0.7127
  168DOPC  H16X20476   0.807   5.966   5.207 -0.2856  0.6393 -0.3453
  168DOPC  H16Y20477   0.942   5.909   5.109 -0.6013 -1.1010  0.7677
  168DOPC  C31720478   0.878   5.766   5.252  0.4451 -0.0564  0.0331
  168DOPC  H17X20479   0.980   5.723   5.256  0.5075 -0.0047 -0.7734
  168DOPC  H17Y20480   0.831   5.774   5.352  0.4501  0.1342  0.0194
  168DOPC  C31820481   0.777   5.705   5.153  0.0415  0.0959 -0.1421
  168DOPC  H18X20482   0.799   5.596   5.150  0.5836  0.1976 -0.0575
  168DOPC  H18Y20483   0.668   5.720   5.161 -0.3237 -1.2938 -1.7222
  168DOPC  H18Z20484   0.797   5.743   5.050 -1.0773 -1.0803 -0.8223
  169DOPC     N20485   1.284   0.900   6.770 -0.0096  0.6821 -0.1442
  169DOPC   C1220486   1.262   1.045   6.803  0.2064 -0.8179 -0.0507
  169DOPC  H12A20487   1.193   1.089   6.732  3.1016  3.0665 -0.7942
  169DOPC  H12B20488   1.352   1.099   6.779  0.3008 -1.5924 -1.5426
  169DOPC   C1320489   1.171   0.804   6.806  0.3291  0.4626  0.0003
  169DOPC  H13A20490   1.210   0.705   6.791  0.8236  0.3746  1.6868
  169DOPC  H13B20491   1.141   0.813   6.909 -1.8512 -1.7084 -0.3630
  169DOPC  H13C20492   1.085   0.822   6.742 -0.1464  1.3355  0.8635
  169DOPC   C1420493   1.400   0.851   6.843 -0.2316  0.2303  0.1100
  169DOPC  H14A20494   1.442   0.758   6.808 -2.5129 -1.4110  1.5072
  169DOPC  H14B20495   1.477   0.927   6.847 -0.3179  0.2876  0.8819
  169DOPC  H14C20496   1.364   0.828   6.942  1.2615 -0.4647  0.5184
  169DOPC   C1520497   1.300   0.872   6.620  0.1642 -0.1124  0.3127
  169DOPC  H15A20498   1.301   0.767   6.595 -2.9540 -0.2006  0.1796
  169DOPC  H15B20499   1.384   0.920   6.570  0.2187 -1.5759 -1.0922
  169DOPC  H15C20500   1.212   0.911   6.572  0.0037 -0.1088  0.6155
  169DOPC   C1120501   1.210   1.096   6.944  0.0844 -0.3029 -0.3625
  169DOPC  H11A20502   1.261   1.027   7.014  2.4800  1.6915 -0.0276
  169DOPC  H11B20503   1.244   1.198   6.969 -1.2521 -0.1770  1.0998
  169DOPC     P20504   0.954   1.172   6.883  0.0990 -0.3720 -0.0292
  169DOPC   O1320505   0.965   1.312   6.938  0.6234 -0.0578 -0.6756
  169DOPC   O1420506   0.825   1.101   6.880 -0.9645  0.5878  0.0303
  169DOPC   O1220507   1.065   1.085   6.963  0.1453  0.2225 -0.6273
  169DOPC   O1120508   1.016   1.171   6.744 -0.1829  0.2092  0.5278
  169DOPC    C120509   0.972   1.264   6.647  0.2159  0.0560 -0.4798
  169DOPC    HA20510   0.981   1.368   6.684 -0.1236  0.2350 -0.8937
  169DOPC    HB20511   0.870   1.233   6.617  0.2049 -0.7536  0.3623
  169DOPC    C220512   1.060   1.256   6.514  0.7004 -0.5186  0.2595
  169DOPC    HS20513   1.012   1.319   6.436 -0.6239  0.3115  1.6871
  169DOPC   O2120514   1.063   1.118   6.472 -0.7107 -0.5895  0.1234
  169DOPC   C2120515   0.960   1.067   6.416  0.3544  0.4200  0.3012
  169DOPC   O2220516   0.862   1.140   6.374 -0.1982  0.4459 -0.3757
  169DOPC   C2220517   0.962   0.912   6.403 -0.2132  0.7145 -0.1429
  169DOPC   H2R20518   1.016   0.866   6.488 -0.2344  2.0680  0.6414
  169DOPC   H2S20519   1.017   0.884   6.311  3.0750 -1.1627  2.1934
  169DOPC    C320520   1.203   1.311   6.535 -0.5179  0.2896 -0.2405
  169DOPC    HX20521   1.235   1.254   6.624 -1.6679 -2.3493 -1.4159
  169DOPC    HY20522   1.209   1.417   6.568  0.6545  0.6917 -1.6185
  169DOPC   O3120523   1.289   1.280   6.428  0.8887 -0.2185 -0.0620
  169DOPC   C3120524   1.400   1.211   6.451  0.2024  0.2631  0.1821
  169DOPC   O3220525   1.440   1.179   6.561 -0.7758  0.0937  0.3502
  169DOPC   C3220526   1.482   1.202   6.320  0.5166 -0.4710  1.1996
  169DOPC   H2X20527   1.411   1.240   6.244  0.5170  2.0483  2.3744
  169DOPC   H2Y20528   1.564   1.277   6.328 -1.6820  2.0342  1.4150
  169DOPC   C2320529   0.818   0.867   6.411  0.0968 -0.5055  0.2094
  169DOPC   H3R20530   0.768   0.914   6.498  0.2715  1.4694 -0.7266
  169DOPC   H3S20531   0.824   0.759   6.438  1.1198 -0.9200 -1.5167
  169DOPC   C2420532   0.727   0.883   6.288  0.0778 -0.0774  0.2318
  169DOPC   H4R20533   0.762   0.959   6.215 -0.9631  0.3365  0.1495
  169DOPC   H4S20534   0.623   0.897   6.325  0.0152 -0.1453  0.0877
  169DOPC   C2520535   0.720   0.759   6.197  0.6167 -0.7685  0.2614
  169DOPC   H5R20536   0.677   0.677   6.259 -0.9040  0.4427  0.8590
  169DOPC   H5S20537   0.820   0.722   6.164  0.7609 -1.6116  1.5355
  169DOPC   C2620538   0.636   0.773   6.066 -0.9350 -0.3454 -0.2325
  169DOPC   H6R20539   0.643   0.871   6.015 -1.4543 -0.0671  0.2161
  169DOPC   H6S20540   0.529   0.791   6.091 -1.2263 -1.5678 -0.5341
  169DOPC   C2720541   0.637   0.659   5.962 -0.4610 -0.2831  0.0707
  169DOPC   H7R20542   0.560   0.694   5.890  0.5897 -1.6014 -1.7671
  169DOPC   H7S20543   0.608   0.560   6.003 -1.2968 -0.5153 -1.0207
  169DOPC   C2820544   0.760   0.650   5.864 -0.4564  0.6075 -0.1609
  169DOPC   H8R20545   0.783   0.749   5.818 -0.0865 -0.1799 -1.7447
  169DOPC   H8S20546   0.711   0.597   5.780 -0.2479  1.7057 -1.0093
  169DOPC   C2920547   0.873   0.561   5.913  0.6555  0.4883 -0.7092
  169DOPC   H9R20548   0.850   0.459   5.948  1.7946  1.0042  1.7249
  169DOPC  C21020549   0.998   0.601   5.923 -0.5066 -0.2569  0.8810
  169DOPC  H10R20550   1.075   0.530   5.957  0.1443 -1.5385 -2.8486
  169DOPC  C21120551   1.055   0.736   5.882 -0.4188  0.0992  0.3477
  169DOPC  H11R20552   1.007   0.773   5.789 -0.1358  0.1480  0.2215
  169DOPC  H11S20553   1.163   0.729   5.859 -0.8112  0.9505 -2.1060
  169DOPC  C21220554   1.045   0.842   5.993 -0.0064 -0.2944 -0.4438
  169DOPC  H12R20555   1.097   0.797   6.081  1.4214  0.6636 -0.7606
  169DOPC  H12S20556   0.939   0.855   6.022  0.3767  0.4601  0.7437
  169DOPC  C21320557   1.114   0.974   5.945  0.7786  0.3349 -0.0429
  169DOPC  H13R20558   1.072   1.006   5.847  0.6948  1.9690  0.4990
  169DOPC  H13S20559   1.222   0.951   5.932  1.2195  2.1966  0.1580
  169DOPC  C21420560   1.092   1.081   6.042  0.1079  0.2187 -1.3135
  169DOPC  H14R20561   1.145   1.044   6.133  0.8136  0.3058 -1.6759
  169DOPC  H14S20562   0.990   1.094   6.084  0.7951  1.5501  0.0661
  169DOPC  C21520563   1.151   1.215   5.991 -0.4397 -0.2788  0.2022
  169DOPC  H15R20564   1.116   1.217   5.886  1.5766  1.3975 -0.5186
  169DOPC  H15S20565   1.262   1.215   5.990 -0.3913  1.1610  1.1984
  169DOPC  C21620566   1.115   1.349   6.064 -0.1104  0.2125 -0.8869
  169DOPC  H16R20567   1.173   1.426   6.009  1.8862  0.2593  1.1554
  169DOPC  H16S20568   1.152   1.337   6.168  1.5771  3.0510 -1.0710
  169DOPC  C21720569   0.968   1.381   6.070  0.2588 -0.0409  0.5993
  169DOPC  H17R20570   0.904   1.305   6.120  1.0355 -0.7549  0.5261
  169DOPC  H17S20571   0.933   1.393   5.965 -1.1940  3.4763  1.3523
  169DOPC  C21820572   0.942   1.519   6.123  0.2278  0.2903 -0.0928
  169DOPC  H18R20573   0.958   1.533   6.232 -2.1191  2.0241  0.1190
  169DOPC  H18S20574   0.837   1.552   6.109  0.2578  0.0523 -0.9136
  169DOPC  H18T20575   0.993   1.605   6.073  0.2057  0.4109  0.0903
  169DOPC   C3320576   1.527   1.063   6.290 -0.3810 -0.4043 -0.7070
  169DOPC   H3X20577   1.575   1.029   6.384  2.0960  1.2542 -1.2870
  169DOPC   H3Y20578   1.607   1.062   6.213 -0.0662 -0.9563 -0.3817
  169DOPC   C3420579   1.413   0.964   6.257 -0.0710  0.1488 -0.8751
  169DOPC   H4X20580   1.361   1.017   6.175  0.3290  0.5909 -0.8470
  169DOPC   H4Y20581   1.348   0.944   6.344 -0.5013  2.2934 -0.6574
  169DOPC   C3520582   1.469   0.830   6.199  0.2656 -0.3852 -0.5421
  169DOPC   H5X20583   1.531   0.793   6.283 -1.2237 -0.5427  0.5398
  169DOPC   H5Y20584   1.532   0.842   6.109  0.5016  3.5986 -0.0385
  169DOPC   C3620585   1.375   0.711   6.176 -0.1761  0.1575  0.2088
  169DOPC   H6X20586   1.304   0.696   6.260  1.2576  1.1277  1.6584
  169DOPC   H6Y20587   1.315   0.736   6.086 -0.1405 -2.1192 -0.5305
  169DOPC   C3720588   1.458   0.582   6.152 -0.1120 -0.1377 -0.1877
  169DOPC   H7X20589   1.543   0.607   6.085 -1.9613  2.2902 -1.8100
  169DOPC   H7Y20590   1.495   0.542   6.249 -0.3399  0.6518  0.2377
  169DOPC   C3820591   1.367   0.488   6.078  0.7472 -0.3011  0.4099
  169DOPC   H8X20592   1.437   0.410   6.040  2.2610  0.6676  1.1265
  169DOPC   H8Y20593   1.333   0.540   5.986 -0.7669  1.6964  2.0120
  169DOPC   C3920594   1.245   0.429   6.151  0.1750  0.6089 -0.5815
  169DOPC   H9X20595   1.164   0.500   6.175 -0.4836  0.2869 -1.7238
  169DOPC  C31020596   1.239   0.298   6.193  0.5537 -0.8426  0.1031
  169DOPC  H10X20597   1.147   0.263   6.243  1.2474  0.8114  2.7524
  169DOPC  C31120598   1.334   0.189   6.173  0.3226  0.7049  0.6421
  169DOPC  H11X20599   1.347   0.141   6.272  0.9086 -0.2224  0.1289
  169DOPC  H11Y20600   1.431   0.226   6.133  1.2604  0.0681  2.2467
  169DOPC  C31220601   1.285   0.086   6.074 -0.0736 -0.2574  0.8197
  169DOPC  H12X20602   1.177   0.065   6.087 -0.2918 -0.5849 -1.1904
  169DOPC  H12Y20603   1.339  -0.010   6.083  1.3145  0.5411  1.3190
  169DOPC  C31320604   1.312   0.127   5.925 -0.2346  0.2426 -0.4066
  169DOPC  H13X20605   1.261   0.220   5.892 -3.1415 -0.7990  0.8764
  169DOPC  H13Y20606   1.421   0.142   5.910  0.2206 -0.1956  1.9715
  169DOPC  C31420607   1.278   0.014   5.829  0.0735 -0.4955  1.1598
  169DOPC  H14X20608   1.310  -0.084   5.869  1.5292 -1.9023 -2.9413
  169DOPC  H14Y20609   1.167   0.011   5.826  0.0991 -1.2332  0.9058
  169DOPC  C31520610   1.333   0.032   5.686  0.0445  0.3391 -1.0946
  169DOPC  H15X20611   1.332  -0.072   5.647 -1.7103  0.8918 -2.6295
  169DOPC  H15Y20612   1.440   0.062   5.689  0.4782 -1.1751  0.1665
  169DOPC  C31620613   1.248   0.132   5.602  0.2173  0.4830 -0.2924
  169DOPC  H16X20614   1.144   0.103   5.626  0.0882 -0.7302 -2.0963
  169DOPC  H16Y20615   1.259   0.234   5.644  0.0707  1.2339 -1.9881
  169DOPC  C31720616   1.263   0.130   5.451  0.4055 -0.2914  0.6470
  169DOPC  H17X20617   1.207   0.220   5.417 -0.2876 -0.6748  0.7363
  169DOPC  H17Y20618   1.366   0.131   5.410 -0.2647  1.3069 -1.1479
  169DOPC  C31820619   1.189   0.014   5.377  0.2025  0.5663 -0.2896
  169DOPC  H18X20620   1.201   0.035   5.268 -0.0498 -2.4739 -1.0104
  169DOPC  H18Y20621   1.228  -0.086   5.407 -0.8706 -0.3649 -1.8151
  169DOPC  H18Z20622   1.079   0.021   5.395 -0.0365  2.8940 -2.1469
  170DOPC     N20623   5.547   6.993   7.179 -0.4804  0.4788  0.4983
  170DOPC   C1220624   5.408   7.017   7.226  0.3649 -0.2305 -0.2063
  170DOPC  H12A20625   5.412   7.032   7.333  0.2711  5.0430 -0.6682
  170DOPC  H12B20626   5.351   6.928   7.204 -2.5156  1.5651 -0.6159
  170DOPC   C1320627   5.545   7.013   7.027 -0.4958  0.0417  0.3766
  170DOPC  H13A20628   5.646   7.015   6.991 -1.2334  2.2081 -1.9420
  170DOPC  H13B20629   5.483   6.943   6.973 -2.0373  2.3169 -1.0347
  170DOPC  H13C20630   5.506   7.113   7.016 -1.1798  0.0359  2.2777
  170DOPC   C1420631   5.595   6.860   7.211  0.2431  0.7493  0.6582
  170DOPC  H14A20632   5.686   6.838   7.157 -0.8421 -0.3658 -0.8161
  170DOPC  H14B20633   5.607   6.843   7.317 -3.3976 -2.4444  0.7866
  170DOPC  H14C20634   5.517   6.792   7.180  1.2729  0.2682 -0.9954
  170DOPC   C1520635   5.643   7.093   7.236  0.4471  0.3259 -0.0902
  170DOPC  H15A20636   5.743   7.082   7.197 -0.5097 -0.3384 -2.5393
  170DOPC  H15B20637   5.648   7.084   7.344  0.4904 -0.0763 -0.1210
  170DOPC  H15C20638   5.604   7.192   7.218  1.7762  0.8179 -0.3615
  170DOPC   C1120639   5.323   7.138   7.182 -0.4091  0.2356 -0.2415
  170DOPC  H11A20640   5.303   7.128   7.073 -1.4378 -0.9701  0.0260
  170DOPC  H11B20641   5.220   7.152   7.222 -0.4905  3.0235 -1.1934
  170DOPC     P20642   5.353   7.394   7.157  0.3301 -0.1084 -0.4476
  170DOPC   O1320643   5.428   7.499   7.228 -0.0432  0.2593  0.1906
  170DOPC   O1420644   5.206   7.403   7.144  0.4825 -0.2832  0.0899
  170DOPC   O1220645   5.395   7.258   7.213  0.1756  0.2412  0.0595
  170DOPC   O1120646   5.399   7.385   7.011 -0.1438  0.1111  0.2499
  170DOPC    C120647   5.543   7.392   6.988  0.0642 -0.1325  0.0346
  170DOPC    HA20648   5.585   7.304   7.040 -2.7939 -2.4733 -1.2878
  170DOPC    HB20649   5.583   7.487   7.029 -3.5263  2.5272 -2.0698
  170DOPC    C220650   5.594   7.386   6.837 -0.6304 -0.4569 -0.3353
  170DOPC    HS20651   5.548   7.475   6.788 -2.7638 -0.8923  0.7394
  170DOPC   O2120652   5.543   7.265   6.771  0.0680 -0.4284 -0.5108
  170DOPC   C2120653   5.416   7.278   6.734 -0.1864  0.2174  0.0376
  170DOPC   O2220654   5.338   7.366   6.752  0.0534  0.4855 -0.3246
  170DOPC   C2220655   5.379   7.152   6.659  0.1802 -0.1310 -0.0999
  170DOPC   H2R20656   5.366   7.072   6.734 -1.5217  0.2408  0.0430
  170DOPC   H2S20657   5.458   7.128   6.584  0.0681  0.8560 -0.5528
  170DOPC    C320658   5.744   7.396   6.828 -0.2706  0.3321  0.1026
  170DOPC    HX20659   5.780   7.308   6.885 -0.1279 -1.1478 -2.1454
  170DOPC    HY20660   5.779   7.491   6.874  1.6445 -0.1568 -0.2566
  170DOPC   O3120661   5.796   7.380   6.693 -0.4059 -0.3076  0.3605
  170DOPC   C3120662   5.792   7.485   6.619  0.4803 -0.1612  0.4825
  170DOPC   O3220663   5.736   7.591   6.648 -0.4720 -0.4308 -0.0337
  170DOPC   C3220664   5.872   7.467   6.489  0.5794 -0.0717 -0.8066
  170DOPC   H2X20665   5.971   7.512   6.507 -0.4895  1.6406  1.2045
  170DOPC   H2Y20666   5.880   7.357   6.473  0.3375 -0.0776 -0.8982
  170DOPC   C2320667   5.239   7.178   6.589 -0.2761  0.3963  0.5174
  170DOPC   H3R20668   5.251   7.272   6.530 -2.1920  0.1286 -0.3711
  170DOPC   H3S20669   5.155   7.194   6.659 -0.8233 -0.0105 -0.0410
  170DOPC   C2420670   5.201   7.059   6.492 -0.1733  0.1582  0.0750
  170DOPC   H4R20671   5.197   6.968   6.555  0.2835 -0.3313 -0.5927
  170DOPC   H4S20672   5.281   7.048   6.416  0.2414 -0.9685  0.6504
  170DOPC   C2520673   5.071   7.082   6.404  1.0458 -0.3398  0.8482
  170DOPC   H5R20674   5.069   7.177   6.347  1.0595  1.3166  3.4251
  170DOPC   H5S20675   4.985   7.084   6.475  0.6952  0.5676  0.4162
  170DOPC   C2620676   5.048   6.971   6.298 -0.9554 -0.1015  0.2219
  170DOPC   H6R20677   5.038   6.874   6.352  1.1968  0.2023  1.2615
  170DOPC   H6S20678   5.139   6.959   6.235  0.7076 -0.1952  2.5280
  170DOPC   C2720679   4.924   6.981   6.212 -0.4845 -0.6944  0.3796
  170DOPC   H7R20680   4.934   7.065   6.140 -1.8204  0.0874  1.0764
  170DOPC   H7S20681   4.840   7.021   6.272 -1.6973 -1.3032 -0.8625
  170DOPC   C2820682   4.879   6.851   6.146 -0.0357  0.6163 -0.4307
  170DOPC   H8R20683   4.769   6.849   6.135  0.1904  1.4361 -4.2738
  170DOPC   H8S20684   4.910   6.771   6.217  0.7097  0.7200 -0.6260
  170DOPC   C2920685   4.941   6.823   6.016 -0.0899 -0.3640 -0.0824
  170DOPC   H9R20686   5.050   6.832   6.003 -0.3910  0.5244 -2.5265
  170DOPC  C21020687   4.875   6.814   5.902  0.8898  0.3464 -0.3943
  170DOPC  H10R20688   4.928   6.807   5.805 -0.1306  1.6973 -1.0918
  170DOPC  C21120689   4.725   6.824   5.883  0.3389 -0.3569  0.4714
  170DOPC  H11R20690   4.702   6.914   5.823 -1.2688 -0.6467  0.6237
  170DOPC  H11S20691   4.666   6.863   5.968 -0.1485  1.4601 -0.6453
  170DOPC  C21220692   4.654   6.701   5.823 -0.5978 -0.8234  0.5290
  170DOPC  H12R20693   4.544   6.720   5.819 -0.1538  1.9169 -0.2661
  170DOPC  H12S20694   4.669   6.611   5.887 -2.3326 -1.6479 -0.1472
  170DOPC  C21320695   4.689   6.657   5.677  0.0552  0.0587 -0.2504
  170DOPC  H13R20696   4.799   6.642   5.671  0.0891  0.8004 -1.8544
  170DOPC  H13S20697   4.650   6.732   5.605  1.4278  1.1321  0.0715
  170DOPC  C21420698   4.632   6.518   5.638  0.5251  0.3154  0.4075
  170DOPC  H14R20699   4.523   6.527   5.621  0.4088  0.7107  1.2742
  170DOPC  H14S20700   4.644   6.443   5.719 -3.8517  0.6326  1.6137
  170DOPC  C21520701   4.685   6.478   5.498 -0.0145  0.5326  0.5715
  170DOPC  H15R20702   4.795   6.465   5.507  0.0726 -0.0472 -1.0884
  170DOPC  H15S20703   4.664   6.562   5.428 -0.3049 -0.9402 -1.1745
  170DOPC  C21620704   4.623   6.354   5.441  0.1221 -0.2513 -0.0611
  170DOPC  H16R20705   4.517   6.377   5.420  0.3396  0.2873 -0.6206
  170DOPC  H16S20706   4.623   6.267   5.510 -0.9919  0.6831  1.1528
  170DOPC  C21720707   4.696   6.293   5.313  0.8358 -0.2816 -0.4109
  170DOPC  H17R20708   4.799   6.259   5.339  0.7840 -0.6438 -0.6704
  170DOPC  H17S20709   4.710   6.385   5.251  1.3284  1.1596  1.7088
  170DOPC  C21820710   4.615   6.183   5.244  0.1170 -0.2472  0.4712
  170DOPC  H18R20711   4.607   6.097   5.314  1.3189 -2.1433 -1.5826
  170DOPC  H18S20712   4.659   6.144   5.149 -0.4308  0.9190 -0.2857
  170DOPC  H18T20713   4.515   6.222   5.218  0.7091  0.6089 -0.5811
  170DOPC   C3320714   5.797   7.523   6.365 -0.7018 -0.0740 -0.3388
  170DOPC   H3X20715   5.855   7.515   6.271 -0.3726 -4.0495 -0.0088
  170DOPC   H3Y20716   5.767   7.630   6.370 -2.8541 -0.6005 -0.7126
  170DOPC   C3420717   5.676   7.432   6.345  0.3270  0.1278 -0.0506
  170DOPC   H4X20718   5.597   7.458   6.419  0.8040 -1.4247  1.0639
  170DOPC   H4Y20719   5.704   7.325   6.354  1.2917  0.3844  0.0078
  170DOPC   C3520720   5.603   7.457   6.214  0.2519 -0.5107  0.2897
  170DOPC   H5X20721   5.656   7.401   6.135 -0.0326  1.7512 -1.6306
  170DOPC   H5Y20722   5.599   7.567   6.194 -0.2222 -0.9418 -2.4817
  170DOPC   C3620723   5.466   7.396   6.204  0.4184  0.3068  0.8194
  170DOPC   H6X20724   5.477   7.295   6.249 -0.9133 -1.1288 -1.8324
  170DOPC   H6Y20725   5.390   7.452   6.262  0.2842 -0.1560  1.0962
  170DOPC   C3720726   5.418   7.375   6.058 -0.3912  0.5042  0.4339
  170DOPC   H7X20727   5.437   7.467   6.000  0.7558  1.3291  2.0385
  170DOPC   H7Y20728   5.489   7.311   6.000  0.7893  0.7217  1.5984
  170DOPC   C3820729   5.271   7.327   6.059 -0.0370 -0.2934  0.3743
  170DOPC   H8X20730   5.232   7.346   5.957 -0.9968 -0.1268  0.7639
  170DOPC   H8Y20731   5.216   7.398   6.124 -0.8045  0.2778 -0.8786
  170DOPC   C3920732   5.256   7.182   6.091 -0.7216 -0.4570 -0.3076
  170DOPC   H9X20733   5.278   7.166   6.198  1.2487 -1.4011 -0.8140
  170DOPC  C31020734   5.238   7.076   6.008  0.2538  0.5648 -0.4756
  170DOPC  H10X20735   5.238   6.977   6.054  2.7076  1.1242  0.9244
  170DOPC  C31120736   5.217   7.079   5.858 -0.1260  0.4059  0.5372
  170DOPC  H11X20737   5.263   7.171   5.817  0.9905 -0.1109  0.6058
  170DOPC  H11Y20738   5.110   7.056   5.836  0.2209 -0.6059 -0.1902
  170DOPC  C31220739   5.312   6.965   5.803  0.0008 -1.0011 -0.4943
  170DOPC  H12X20740   5.292   6.870   5.858 -0.2322 -0.5125  0.2804
  170DOPC  H12Y20741   5.418   6.986   5.830 -0.0497 -2.3135  0.8641
  170DOPC  C31320742   5.292   6.955   5.650  0.0629  0.3153  0.3748
  170DOPC  H13X20743   5.187   6.921   5.635  0.0312  0.4519  0.2845
  170DOPC  H13Y20744   5.305   7.054   5.602  1.1235  1.4925  2.8878
  170DOPC  C31420745   5.397   6.865   5.584  0.5838 -0.1038  0.1765
  170DOPC  H14X20746   5.409   6.894   5.478  1.7028  2.9277  1.0119
  170DOPC  H14Y20747   5.492   6.886   5.638  0.3791  0.0728  0.4770
  170DOPC  C31520748   5.373   6.715   5.594 -0.0558  0.8229 -0.4156
  170DOPC  H15X20749   5.356   6.691   5.701 -0.2885  1.5235 -0.2881
  170DOPC  H15Y20750   5.468   6.669   5.560  0.2325  0.7639  0.4517
  170DOPC  C31620751   5.255   6.672   5.505  0.6414  0.3093 -0.9323
  170DOPC  H16X20752   5.170   6.743   5.519  3.4880  4.0119 -0.7611
  170DOPC  H16Y20753   5.279   6.681   5.397 -1.3553  1.3169 -1.3430
  170DOPC  C31720754   5.196   6.525   5.541 -0.5530  0.3179  0.4118
  170DOPC  H17X20755   5.283   6.458   5.559  1.2563  2.9172  1.9584
  170DOPC  H17Y20756   5.140   6.532   5.636  0.0553  0.3326  0.7743
  170DOPC  C31820757   5.094   6.475   5.442  0.1754  0.2907  0.2037
  170DOPC  H18X20758   5.025   6.405   5.494 -1.4224  2.3719  1.0107
  170DOPC  H18Y20759   5.044   6.570   5.415  2.5843  1.2945 -1.0136
  170DOPC  H18Z20760   5.143   6.424   5.357  1.8797  0.4404  1.0565
  171DOPC     N20761   4.175   3.435   3.044 -1.2167  0.1436 -0.2638
  171DOPC   C1220762   4.185   3.570   3.105  0.3580 -0.2718  0.3282
  171DOPC  H12A20763   4.267   3.576   3.175 -0.2658  2.3671  0.9785
  171DOPC  H12B20764   4.100   3.588   3.170  1.5388  2.6581  1.2492
  171DOPC   C1320765   4.045   3.422   2.971  0.2085  0.1662  0.3918
  171DOPC  H13A20766   3.965   3.423   3.043 -1.4742 -0.2512 -1.3972
  171DOPC  H13B20767   4.029   3.504   2.903  1.3285 -0.0563 -0.1693
  171DOPC  H13C20768   4.038   3.340   2.900  1.2490  1.6546 -1.5323
  171DOPC   C1420769   4.179   3.323   3.141 -0.9782 -0.0053 -0.5890
  171DOPC  H14A20770   4.277   3.295   3.179 -1.6846 -0.5349  0.9112
  171DOPC  H14B20771   4.108   3.345   3.219 -0.4493  0.7362 -0.2963
  171DOPC  H14C20772   4.135   3.241   3.087 -2.6484  0.4402  0.0583
  171DOPC   C1520773   4.288   3.411   2.951 -0.4824 -0.2678 -0.5281
  171DOPC  H15A20774   4.289   3.309   2.914 -0.5387  0.1643 -1.7854
  171DOPC  H15B20775   4.385   3.411   2.997  0.5387 -1.3166 -2.5455
  171DOPC  H15C20776   4.286   3.474   2.863  2.3582  0.1520 -0.3861
  171DOPC   C1120777   4.199   3.695   3.010  0.1159  0.4375  0.1538
  171DOPC  H11A20778   4.247   3.785   3.054  1.8555  0.0675 -0.8688
  171DOPC  H11B20779   4.284   3.668   2.945 -0.0972  1.4151 -0.5461
  171DOPC     P20780   3.967   3.830   2.999  0.0524  0.4189 -0.0475
  171DOPC   O1320781   3.897   3.885   2.881  0.3065 -0.4837 -0.5373
  171DOPC   O1420782   4.033   3.925   3.088 -0.1914 -0.3385 -0.0062
  171DOPC   O1220783   4.075   3.720   2.942  0.1662  0.0790 -0.1800
  171DOPC   O1120784   3.869   3.737   3.081 -0.3516 -0.0775  0.4545
  171DOPC    C120785   3.783   3.800   3.180 -0.2880  0.5885  0.1639
  171DOPC    HA20786   3.684   3.829   3.138 -1.1650 -3.4149 -1.0271
  171DOPC    HB20787   3.838   3.878   3.237  2.3049 -2.5045  2.2675
  171DOPC    C220788   3.735   3.701   3.284 -0.1720 -0.2241 -0.0859
  171DOPC    HS20789   3.653   3.645   3.234 -1.1420  0.1053  1.0745
  171DOPC   O2120790   3.678   3.782   3.392  0.8957 -0.5673  0.3707
  171DOPC   C2120791   3.572   3.727   3.447 -0.0345 -0.1465 -0.3848
  171DOPC   O2220792   3.504   3.634   3.411 -0.5520 -0.4154  0.1527
  171DOPC   C2220793   3.542   3.814   3.572  0.2056  0.0003  0.0738
  171DOPC   H2R20794   3.494   3.910   3.541 -1.2562 -0.0053  2.1026
  171DOPC   H2S20795   3.640   3.840   3.617 -0.1408 -0.2192  0.9651
  171DOPC    C320796   3.843   3.609   3.333 -0.8177  0.0074 -0.3771
  171DOPC    HX20797   3.935   3.668   3.354 -2.1423  2.6451 -1.5117
  171DOPC    HY20798   3.885   3.550   3.249  0.4590  0.9272 -0.4236
  171DOPC   O3120799   3.801   3.529   3.443 -0.2240 -0.3011  0.3591
  171DOPC   C3120800   3.886   3.434   3.475 -0.2040 -0.0009  0.6463
  171DOPC   O3220801   4.000   3.430   3.423 -0.0035 -0.1805  0.0624
  171DOPC   C3220802   3.836   3.340   3.587  0.0432  0.4635  0.0161
  171DOPC   H2X20803   3.754   3.398   3.634  1.0340  1.3987  0.6184
  171DOPC   H2Y20804   3.792   3.253   3.533  0.9708  0.4098 -0.7002
  171DOPC   C2320805   3.446   3.743   3.673 -0.1505 -0.0344  0.2072
  171DOPC   H3R20806   3.482   3.640   3.693  1.0219 -0.4123 -3.2782
  171DOPC   H3S20807   3.345   3.735   3.627  0.5064  1.3613 -1.5863
  171DOPC   C2420808   3.415   3.813   3.809  0.6326  0.0907 -0.9164
  171DOPC   H4R20809   3.518   3.808   3.852  0.2164 -2.6433 -0.0553
  171DOPC   H4S20810   3.354   3.742   3.868  2.5580  0.4483  1.7297
  171DOPC   C2520811   3.346   3.951   3.809  0.6487  0.4220 -0.3062
  171DOPC   H5R20812   3.392   4.003   3.723  1.7735 -0.3376 -0.1913
  171DOPC   H5S20813   3.372   3.996   3.907 -0.2862 -1.2119  0.7503
  171DOPC   C2620814   3.197   3.956   3.773 -0.5301  0.3733  0.7959
  171DOPC   H6R20815   3.132   3.880   3.823 -0.8893 -0.0140 -0.2429
  171DOPC   H6S20816   3.173   3.921   3.671  0.1042  0.2426  0.6886
  171DOPC   C2720817   3.131   4.088   3.813 -0.1501 -0.8164  0.3183
  171DOPC   H7R20818   3.161   4.176   3.752 -2.4551 -0.3717 -0.2593
  171DOPC   H7S20819   3.162   4.113   3.917  0.2010 -2.4212  0.6344
  171DOPC   C2820820   2.979   4.076   3.801  0.1532 -0.1601  0.2518
  171DOPC   H8R20821   2.943   3.985   3.855 -0.1933 -0.1970 -0.0361
  171DOPC   H8S20822   2.948   4.070   3.695 -1.2148  1.7885  0.4792
  171DOPC   C2920823   2.912   4.190   3.866  1.0433 -0.1257  0.0107
  171DOPC   H9R20824   2.906   4.281   3.804 -4.4001  0.2593  0.6418
  171DOPC  C21020825   2.850   4.194   3.987 -0.2565  0.1300 -0.2683
  171DOPC  H10R20826   2.804   4.289   4.019  0.0991  0.0491  0.4908
  171DOPC  C21120827   2.839   4.085   4.089 -0.2143 -0.7134  0.1796
  171DOPC  H11R20828   2.929   4.094   4.153 -1.6973  0.9103  2.1712
  171DOPC  H11S20829   2.853   3.981   4.052  0.6895 -0.7276  0.5275
  171DOPC  C21220830   2.720   4.091   4.191  0.6049  0.4811 -0.1642
  171DOPC  H12R20831   2.730   3.992   4.241  1.2231 -0.5903 -2.2786
  171DOPC  H12S20832   2.626   4.085   4.132  0.8308 -1.0390 -0.4226
  171DOPC  C21320833   2.702   4.195   4.302 -0.7016  0.1564 -0.0028
  171DOPC  H13R20834   2.658   4.284   4.253 -2.2663 -0.6846 -0.2027
  171DOPC  H13S20835   2.797   4.216   4.356 -0.7578  1.9950 -0.5388
  171DOPC  C21420836   2.604   4.162   4.414  0.2237 -0.3304 -0.0334
  171DOPC  H14R20837   2.630   4.063   4.457 -0.2836 -0.8817 -0.9710
  171DOPC  H14S20838   2.500   4.161   4.376  1.1104  1.1811 -2.7949
  171DOPC  C21520839   2.608   4.279   4.520  0.4465  0.3207  0.0776
  171DOPC  H15R20840   2.624   4.377   4.470  0.0185  0.9413  1.1276
  171DOPC  H15S20841   2.702   4.272   4.580  0.6328 -0.3461 -0.2851
  171DOPC  C21620842   2.489   4.278   4.627 -0.1914  0.1368  0.2566
  171DOPC  H16R20843   2.488   4.175   4.668  1.5941 -0.0284 -0.0234
  171DOPC  H16S20844   2.402   4.300   4.562 -0.8810 -0.0372  1.0898
  171DOPC  C21720845   2.490   4.383   4.733 -0.4949 -0.3087  0.7028
  171DOPC  H17R20846   2.444   4.470   4.683  1.1047 -0.2015 -0.6678
  171DOPC  H17S20847   2.590   4.412   4.771  0.7278 -1.7353 -1.1919
  171DOPC  C21820848   2.396   4.348   4.850 -0.0366  0.2027  0.2120
  171DOPC  H18R20849   2.321   4.430   4.852  1.0645  1.2323  2.4851
  171DOPC  H18S20850   2.460   4.358   4.940  0.3247  1.1694 -0.1285
  171DOPC  H18T20851   2.336   4.255   4.848 -0.0253  0.2010 -0.6319
  171DOPC   C3320852   3.952   3.304   3.688  0.0546 -0.2539 -0.2905
  171DOPC   H3X20853   4.037   3.255   3.636 -0.9300 -0.3864 -1.8253
  171DOPC   H3Y20854   3.910   3.234   3.763 -0.5278 -2.3996 -2.5140
  171DOPC   C3420855   4.012   3.426   3.764 -1.0631 -0.6421 -0.4362
  171DOPC   H4X20856   4.075   3.484   3.693  0.4073  0.2040  1.4763
  171DOPC   H4Y20857   4.084   3.399   3.844 -1.9699  1.2618  1.0858
  171DOPC   C3520858   3.901   3.517   3.837  0.1649 -0.7223  0.2132
  171DOPC   H5X20859   3.849   3.570   3.754 -1.8392 -0.5166  1.5420
  171DOPC   H5Y20860   3.957   3.600   3.884 -2.3993  0.6215  1.0674
  171DOPC   C3620861   3.812   3.451   3.949 -0.7367  0.1256  0.7139
  171DOPC   H6X20862   3.741   3.386   3.893  0.2454 -0.6890  0.3862
  171DOPC   H6Y20863   3.879   3.394   4.017 -2.2173 -1.2116  1.1336
  171DOPC   C3720864   3.747   3.572   4.014  0.3144 -0.1404 -0.0784
  171DOPC   H7X20865   3.820   3.640   4.064 -0.9761  0.7593  0.6335
  171DOPC   H7Y20866   3.698   3.633   3.935  3.4139  1.9803 -0.5625
  171DOPC   C3820867   3.631   3.520   4.112 -1.3624 -0.2187 -0.6832
  171DOPC   H8X20868   3.681   3.507   4.210 -1.6703  1.0707 -0.3332
  171DOPC   H8Y20869   3.588   3.425   4.075 -1.0198 -1.0518  0.9542
  171DOPC   C3920870   3.518   3.620   4.131 -0.3518  0.0189  0.3318
  171DOPC   H9X20871   3.482   3.664   4.036  0.4852  1.4110  0.6289
  171DOPC  C31020872   3.463   3.667   4.248  0.6980  0.1266  0.2585
  171DOPC  H10X20873   3.395   3.753   4.252 -0.3932 -0.7782  2.3668
  171DOPC  C31120874   3.508   3.621   4.380  0.1359 -0.5421 -0.4026
  171DOPC  H11X20875   3.570   3.528   4.377  2.2289  0.7971 -0.5579
  171DOPC  H11Y20876   3.411   3.610   4.433  0.5015  2.5905  1.1228
  171DOPC  C31220877   3.594   3.721   4.459 -0.5265 -0.3100  0.2004
  171DOPC  H12X20878   3.539   3.817   4.460  0.2639  0.1894 -1.1634
  171DOPC  H12Y20879   3.688   3.728   4.400 -1.0430 -1.4925 -0.8154
  171DOPC  C31320880   3.616   3.678   4.603  0.0200  0.1875  0.0991
  171DOPC  H13X20881   3.515   3.689   4.646 -1.5545  0.4244 -3.2984
  171DOPC  H13Y20882   3.640   3.570   4.598  1.7465  0.5667 -1.1884
  171DOPC  C31420883   3.736   3.764   4.663  0.6102 -0.0580 -0.4527
  171DOPC  H14X20884   3.827   3.755   4.601  0.3952 -1.0782 -0.6273
  171DOPC  H14Y20885   3.703   3.870   4.653 -0.8611 -0.4096  0.4277
  171DOPC  C31520886   3.763   3.731   4.817  0.2415 -0.0860  0.3069
  171DOPC  H15X20887   3.766   3.621   4.828 -1.0945 -0.1504  0.2244
  171DOPC  H15Y20888   3.672   3.765   4.871  0.6095 -0.8015  1.4002
  171DOPC  C31620889   3.885   3.802   4.868  0.3312  0.9174  0.3228
  171DOPC  H16X20890   3.969   3.759   4.810  0.0924 -0.6131  1.0610
  171DOPC  H16Y20891   3.890   3.912   4.849 -0.3122  1.2612  1.9336
  171DOPC  C31720892   3.911   3.793   5.019  0.1634 -0.1375  0.3954
  171DOPC  H17X20893   3.832   3.850   5.072  1.0412  0.6496  0.8826
  171DOPC  H17Y20894   3.905   3.687   5.051  0.9632  0.3207  2.1417
  171DOPC  C31820895   4.045   3.851   5.049  0.1418  0.3102  0.4531
  171DOPC  H18X20896   4.050   3.959   5.025 -2.2428  0.3247 -0.2294
  171DOPC  H18Y20897   4.066   3.836   5.157  0.9082  0.0387  0.2769
  171DOPC  H18Z20898   4.135   3.808   4.998  0.8494  1.7742  0.4279
  172DOPC     N20899   3.612   5.470   2.467 -0.7866  0.0592 -0.2806
  172DOPC   C1220900   3.630   5.579   2.572 -0.1832 -0.2118 -0.8768
  172DOPC  H12A20901   3.612   5.670   2.515 -0.7186  0.2720  0.0493
  172DOPC  H12B20902   3.733   5.589   2.602 -0.4575 -0.6299  0.2279
  172DOPC   C1320903   3.462   5.449   2.443 -0.4123 -0.5449  0.2320
  172DOPC  H13A20904   3.410   5.544   2.442  1.5901  0.6473 -1.4011
  172DOPC  H13B20905   3.453   5.411   2.342 -1.4640  2.0689 -0.7597
  172DOPC  H13C20906   3.420   5.385   2.519  3.5308 -1.3067  1.9979
  172DOPC   C1420907   3.667   5.340   2.509 -0.5534 -0.6863 -0.4038
  172DOPC  H14A20908   3.612   5.316   2.599 -2.7329  0.5650 -1.3510
  172DOPC  H14B20909   3.659   5.260   2.438  0.3943 -1.7385  0.6286
  172DOPC  H14C20910   3.769   5.343   2.547 -0.3614 -1.4576 -0.8480
  172DOPC   C1520911   3.674   5.511   2.334 -0.0561  0.2109 -0.6598
  172DOPC  H15A20912   3.637   5.440   2.262  0.5314  0.3095 -1.0676
  172DOPC  H15B20913   3.781   5.506   2.347 -0.1787  2.2000  1.9060
  172DOPC  H15C20914   3.642   5.613   2.319  0.1789  0.6802  1.6296
  172DOPC   C1120915   3.535   5.581   2.694  0.4300  0.1482 -0.3857
  172DOPC  H11A20916   3.553   5.674   2.753  1.8891  0.4734 -1.2928
  172DOPC  H11B20917   3.429   5.594   2.662 -0.2865  0.8279  2.0087
  172DOPC     P20918   3.658   5.454   2.881  0.1655 -0.2430 -0.1478
  172DOPC   O1320919   3.780   5.522   2.834 -0.1333  0.0164 -0.7338
  172DOPC   O1420920   3.673   5.312   2.921 -0.1637  0.5219  0.5611
  172DOPC   O1220921   3.545   5.460   2.772  0.5452 -0.4050  0.1490
  172DOPC   O1120922   3.592   5.536   2.997 -0.6440 -0.2044 -1.2945
  172DOPC    C120923   3.452   5.514   3.012 -0.3351  1.0912  0.7089
  172DOPC    HA20924   3.414   5.414   2.983  0.1343  1.3121 -0.7916
  172DOPC    HB20925   3.390   5.575   2.942  2.0524  0.0884 -2.5504
  172DOPC    C220926   3.399   5.539   3.154 -0.0942 -0.0643  0.4064
  172DOPC    HS20927   3.290   5.519   3.148 -0.2541  0.8570  0.0857
  172DOPC   O2120928   3.447   5.665   3.198  0.0955 -0.1400  0.3028
  172DOPC   C2120929   3.370   5.723   3.293 -0.0564  0.2643 -0.6277
  172DOPC   O2220930   3.259   5.680   3.327  0.2798  0.3356 -0.5977
  172DOPC   C2220931   3.451   5.840   3.352 -0.2557  0.2185  0.1407
  172DOPC   H2R20932   3.453   5.928   3.285  0.0493  0.8343  0.9375
  172DOPC   H2S20933   3.555   5.800   3.355 -0.5278 -0.5230 -0.0188
  172DOPC    C320934   3.474   5.433   3.249 -0.1896 -0.5285 -0.4747
  172DOPC    HX20935   3.584   5.439   3.233 -0.0727 -1.2786  0.0101
  172DOPC    HY20936   3.431   5.338   3.211 -1.0738 -0.2558 -0.1982
  172DOPC   O3120937   3.446   5.449   3.391 -0.3641  0.2014 -0.0683
  172DOPC   C3120938   3.333   5.384   3.434 -0.0954 -0.7285  0.8640
  172DOPC   O3220939   3.246   5.335   3.365  0.5525  0.2052  0.7674
  172DOPC   C3220940   3.333   5.387   3.579 -0.2936 -0.4321  0.2657
  172DOPC   H2X20941   3.421   5.327   3.611  1.4093  1.3378 -0.8248
  172DOPC   H2Y20942   3.357   5.486   3.624 -2.0676 -0.0285  0.3843
  172DOPC   C2320943   3.400   5.878   3.495  0.4300 -0.2355 -0.3079
  172DOPC   H3R20944   3.290   5.887   3.490  0.3028 -1.0108  0.7422
  172DOPC   H3S20945   3.436   5.981   3.518 -1.5964  0.6765 -1.0030
  172DOPC   C2420946   3.448   5.781   3.607  0.1128  0.1106 -0.5269
  172DOPC   H4R20947   3.558   5.788   3.611  0.2264 -0.8613 -1.5089
  172DOPC   H4S20948   3.433   5.674   3.579 -0.6103 -0.1950  0.9266
  172DOPC   C2520949   3.386   5.812   3.738  0.0864  0.4875  0.0126
  172DOPC   H5R20950   3.277   5.815   3.721  0.0255 -0.8077  0.0777
  172DOPC   H5S20951   3.417   5.917   3.758  0.3112  0.5169 -0.4924
  172DOPC   C2620952   3.426   5.718   3.858  0.3716  0.3977 -0.0353
  172DOPC   H6R20953   3.536   5.703   3.865  0.2690 -0.3876 -0.0811
  172DOPC   H6S20954   3.395   5.618   3.821 -1.1782  0.6692  0.4467
  172DOPC   C2720955   3.357   5.759   3.991  0.2134  1.2568  0.7574
  172DOPC   H7R20956   3.250   5.774   3.964  0.7403  2.2249 -0.9590
  172DOPC   H7S20957   3.403   5.859   4.007 -0.0415  1.5760 -0.4223
  172DOPC   C2820958   3.399   5.671   4.110  0.3670 -0.0855  0.1074
  172DOPC   H8R20959   3.341   5.709   4.196 -0.2911  0.8600 -0.7290
  172DOPC   H8S20960   3.509   5.673   4.119  0.3042  0.9035  0.8048
  172DOPC   C2920961   3.354   5.530   4.081 -0.3168 -0.8393 -0.3025
  172DOPC   H9R20962   3.425   5.470   4.022 -0.0346 -2.2239  1.3686
  172DOPC  C21020963   3.261   5.459   4.141 -0.2266 -0.5633  0.1213
  172DOPC  H10R20964   3.241   5.356   4.108 -2.6846 -0.4655  1.0926
  172DOPC  C21120965   3.178   5.502   4.257  0.1203 -0.6968  0.0649
  172DOPC  H11R20966   3.216   5.580   4.326 -0.6971 -1.1550  1.0699
  172DOPC  H11S20967   3.148   5.415   4.318 -1.7541  1.3981  2.3619
  172DOPC  C21220968   3.036   5.548   4.209  0.4100  0.4295 -0.2186
  172DOPC  H12R20969   3.004   5.461   4.148  2.6625 -1.3626  0.9781
  172DOPC  H12S20970   3.052   5.635   4.142 -2.0319  1.1192  0.0277
  172DOPC  C21320971   2.933   5.587   4.313 -0.0753  0.0220 -0.1405
  172DOPC  H13R20972   2.852   5.644   4.263 -1.1475  0.2051  1.7219
  172DOPC  H13S20973   2.981   5.653   4.389 -0.3561 -0.1449  0.1837
  172DOPC  C21420974   2.868   5.466   4.378 -0.5623 -0.8426  0.1079
  172DOPC  H14R20975   2.949   5.411   4.430 -0.0926  0.4461  0.8044
  172DOPC  H14S20976   2.820   5.404   4.300 -0.0807 -0.1498 -0.7520
  172DOPC  C21520977   2.738   5.510   4.449 -0.0937 -0.2297 -0.0183
  172DOPC  H15R20978   2.680   5.427   4.495 -0.5165 -0.3070 -0.6788
  172DOPC  H15S20979   2.672   5.564   4.378 -1.3508  0.2522  1.4657
  172DOPC  C21620980   2.751   5.603   4.573 -0.3498  0.2501  0.0621
  172DOPC  H16R20981   2.651   5.621   4.619 -0.3455 -0.9085  0.5426
  172DOPC  H16S20982   2.789   5.701   4.535 -1.4230  1.0700  1.0228
  172DOPC  C21720983   2.846   5.550   4.678 -0.2071  0.4154 -0.4062
  172DOPC  H17R20984   2.857   5.620   4.764  0.9057 -0.3966  0.1292
  172DOPC  H17S20985   2.952   5.536   4.651  0.4901 -0.9039  2.6186
  172DOPC  C21820986   2.803   5.422   4.737 -0.0718 -0.2592 -0.2911
  172DOPC  H18R20987   2.801   5.342   4.659  0.6040 -2.2029  1.5978
  172DOPC  H18S20988   2.704   5.424   4.787  0.1124  0.8801  0.0625
  172DOPC  H18T20989   2.869   5.387   4.819  2.7170  0.3435 -2.1376
  172DOPC   C3320990   3.200   5.325   3.629  0.0026 -0.2795 -0.2083
  172DOPC   H3X20991   3.192   5.220   3.592 -2.6716 -0.5025  0.7996
  172DOPC   H3Y20992   3.117   5.374   3.575 -0.0440 -0.3153 -0.1693
  172DOPC   C3420993   3.170   5.331   3.773 -0.1295  0.4459 -0.3466
  172DOPC   H4X20994   3.150   5.432   3.815 -1.2574  1.3478 -2.8438
  172DOPC   H4Y20995   3.256   5.290   3.829 -1.0370 -0.2566  0.5817
  172DOPC   C3520996   3.039   5.251   3.792  0.5477  0.0067 -0.0480
  172DOPC   H5X20997   3.052   5.144   3.764  2.0117  0.1746 -0.0612
  172DOPC   H5Y20998   2.959   5.294   3.728 -0.0654  0.1109  0.7626
  172DOPC   C3620999   2.998   5.256   3.941  0.0401  0.0142  0.7168
  172DOPC   H6X21000   3.086   5.239   4.007 -1.3326  1.2034  2.9710
  172DOPC   H6Y21001   2.962   5.359   3.960  1.0312  0.2662  1.3120
  172DOPC   C3721002   2.878   5.163   3.986 -0.5831 -0.3969  0.1845
  172DOPC   H7X21003   2.782   5.193   3.938  0.8496  0.9696 -2.0453
  172DOPC   H7Y21004   2.911   5.064   3.948  3.5593  1.1175 -0.7303
  172DOPC   C3821005   2.850   5.160   4.138  0.1770  0.3519 -0.3182
  172DOPC   H8X21006   2.801   5.256   4.163 -0.9874 -0.5278  0.9656
  172DOPC   H8Y21007   2.931   5.140   4.211  0.0296 -1.7120 -0.6438
  172DOPC   C3921008   2.746   5.054   4.167  0.7125  0.0217 -0.1886
  172DOPC   H9X21009   2.740   4.975   4.091 -0.1899 -0.6229  0.5382
  172DOPC  C31021010   2.649   5.059   4.263 -0.0193  0.3737  0.0760
  172DOPC  H10X21011   2.571   4.982   4.272 -0.2032  0.4539 -0.7534
  172DOPC  C31121012   2.617   5.170   4.364 -0.5457  0.5350 -0.1945
  172DOPC  H11X21013   2.529   5.226   4.327 -1.1889 -0.5763 -0.3979
  172DOPC  H11Y21014   2.701   5.242   4.374  0.9681 -0.9079 -1.5954
  172DOPC  C31221015   2.587   5.122   4.502  0.4813 -0.4650 -1.2207
  172DOPC  H12X21016   2.601   5.209   4.570  0.8094 -1.5255  0.1140
  172DOPC  H12Y21017   2.664   5.048   4.533  0.9090  0.8538  1.1284
  172DOPC  C31321018   2.449   5.061   4.531  0.3799  0.0962 -0.1970
  172DOPC  H13X21019   2.378   5.146   4.530  0.9757  0.6551 -3.3144
  172DOPC  H13Y21020   2.426   4.987   4.451 -1.8611 -0.4359  0.8732
  172DOPC  C31421021   2.424   4.998   4.670 -0.3997 -0.0953 -0.2163
  172DOPC  H14X21022   2.318   4.964   4.675 -0.5868  0.4998  0.0079
  172DOPC  H14Y21023   2.491   4.910   4.682  0.6257  0.8896  1.9285
  172DOPC  C31521024   2.459   5.088   4.794  0.5159  0.7826 -0.8590
  172DOPC  H15X21025   2.405   5.186   4.795 -0.4226  0.2795 -0.6320
  172DOPC  H15Y21026   2.569   5.098   4.784  0.9223 -1.7693  0.3953
  172DOPC  C31621027   2.424   5.031   4.932  0.7991 -0.0311  0.6148
  172DOPC  H16X21028   2.313   5.031   4.930  0.8071 -0.0271 -1.1786
  172DOPC  H16Y21029   2.458   4.926   4.937 -0.6068 -0.5213  0.2301
  172DOPC  C31721030   2.489   5.119   5.033 -0.6147  0.4310  0.0522
  172DOPC  H17X21031   2.599   5.119   5.015 -0.2989 -0.1349  1.8228
  172DOPC  H17Y21032   2.448   5.221   5.019 -0.6627  0.2558 -1.2393
  172DOPC  C31821033   2.474   5.070   5.175  0.4627  0.8553 -0.0167
  172DOPC  H18X21034   2.530   5.139   5.242 -0.2629  1.4334  0.0051
  172DOPC  H18Y21035   2.365   5.059   5.192  0.5878 -1.2030 -0.2700
  172DOPC  H18Z21036   2.522   4.970   5.186 -1.0229  0.0495 -0.6865
  173DOPC     N21037   2.700   3.745   2.761  0.1603 -0.6634  0.8079
  173DOPC   C1221038   2.601   3.748   2.872 -0.8259  0.4254 -0.1366
  173DOPC  H12A21039   2.587   3.649   2.913  1.7293  0.2859  0.5589
  173DOPC  H12B21040   2.503   3.788   2.850 -0.3913  1.8315  0.3981
  173DOPC   C1321041   2.702   3.887   2.703 -0.2591 -0.2106 -0.6291
  173DOPC  H13A21042   2.726   3.960   2.778 -0.6571 -0.7830  0.0634
  173DOPC  H13B21043   2.773   3.888   2.622 -0.7029  0.2384 -1.0208
  173DOPC  H13C21044   2.602   3.917   2.675 -0.2802 -0.1713 -0.5108
  173DOPC   C1421045   2.666   3.640   2.656  0.3730 -0.5672 -0.3824
  173DOPC  H14A21046   2.563   3.644   2.626  0.6391  0.9719 -1.2621
  173DOPC  H14B21047   2.724   3.656   2.565  1.3282  1.0748  0.4562
  173DOPC  H14C21048   2.680   3.541   2.696 -0.0627  0.6968  3.2810
  173DOPC   C1521049   2.844   3.715   2.816  0.4937 -0.1277 -0.0261
  173DOPC  H15A21050   2.850   3.632   2.885 -0.5378  0.3790  0.7000
  173DOPC  H15B21051   2.881   3.804   2.865  0.1098  0.3485 -0.5775
  173DOPC  H15C21052   2.907   3.688   2.733 -1.9069 -0.1983 -1.9537
  173DOPC   C1121053   2.639   3.831   3.007 -0.3435 -0.0030  0.7007
  173DOPC  H11A21054   2.551   3.810   3.071 -0.6520 -2.0113 -0.3073
  173DOPC  H11B21055   2.726   3.793   3.065  0.2621 -0.7975 -0.6852
  173DOPC     P21056   2.535   4.059   2.981  0.1159  0.1085 -0.4710
  173DOPC   O1321057   2.455   3.996   2.879  0.4512 -0.4635  0.7294
  173DOPC   O1421058   2.578   4.202   2.968 -0.1888  0.4382  0.2035
  173DOPC   O1221059   2.663   3.972   2.992 -0.9734  0.3306  0.2114
  173DOPC   O1121060   2.470   4.041   3.125 -0.3249  0.2299  0.6260
  173DOPC    C121061   2.538   4.061   3.245  0.6778 -0.5317 -0.8860
  173DOPC    HA21062   2.642   4.097   3.226  0.4512  1.2069  0.8819
  173DOPC    HB21063   2.535   3.964   3.299 -1.2146  0.8302  1.6792
  173DOPC    C221064   2.454   4.156   3.337  0.3284 -0.8141  0.1103
  173DOPC    HS21065   2.471   4.255   3.290  2.8709 -0.0833  2.3529
  173DOPC   O2121066   2.514   4.154   3.466  0.0773 -0.1122 -0.6770
  173DOPC   C2121067   2.525   4.278   3.525 -0.7516 -0.1117 -0.8800
  173DOPC   O2221068   2.489   4.385   3.477  0.6009 -0.3954  0.1858
  173DOPC   C2221069   2.607   4.253   3.656  0.3449  0.7701  0.0173
  173DOPC   H2R21070   2.709   4.297   3.656  1.3009 -1.2825  0.6580
  173DOPC   H2S21071   2.624   4.144   3.672  1.9477  1.0062  0.0484
  173DOPC    C321072   2.302   4.122   3.334  0.0792 -0.2561 -0.0870
  173DOPC    HX21073   2.277   4.014   3.344  1.0612 -0.7060 -2.0638
  173DOPC    HY21074   2.270   4.143   3.230  1.2963 -1.2353 -0.6834
  173DOPC   O3121075   2.214   4.191   3.432 -0.7374 -0.0674 -0.0822
  173DOPC   C3121076   2.156   4.296   3.392  0.4494  0.6228  0.9239
  173DOPC   O3221077   2.185   4.350   3.287 -0.3686 -0.7563 -0.0826
  173DOPC   C3221078   2.054   4.359   3.484 -0.4997 -0.2301  0.1790
  173DOPC   H2X21079   2.116   4.390   3.570 -1.8020  1.5427  0.5325
  173DOPC   H2Y21080   2.014   4.446   3.429 -0.3288 -0.4247 -0.2580
  173DOPC   C2321081   2.544   4.309   3.783 -0.1913 -0.5847 -0.6777
  173DOPC   H3R21082   2.603   4.277   3.871  0.8972  0.8127 -0.8703
  173DOPC   H3S21083   2.440   4.272   3.798 -0.6445  1.5919  2.1904
  173DOPC   C2421084   2.544   4.466   3.780  0.5009  0.3939 -0.8348
  173DOPC   H4R21085   2.486   4.504   3.693 -0.9266 -1.0898 -0.5643
  173DOPC   H4S21086   2.646   4.504   3.758  0.9014 -0.8187 -1.1458
  173DOPC   C2521087   2.489   4.542   3.901  1.0551 -0.3427 -0.1122
  173DOPC   H5R21088   2.383   4.510   3.914  0.7577  1.0341  1.0820
  173DOPC   H5S21089   2.489   4.649   3.875 -2.3980 -0.3967 -0.7716
  173DOPC   C2621090   2.566   4.528   4.028  0.2097  0.4046  0.2079
  173DOPC   H6R21091   2.674   4.518   4.000  0.1701  1.6630 -0.4827
  173DOPC   H6S21092   2.532   4.440   4.087 -0.9972  0.2084 -0.7474
  173DOPC   C2721093   2.541   4.647   4.120  0.0055 -0.0047 -0.3149
  173DOPC   H7R21094   2.438   4.688   4.107 -0.2474 -0.6318 -0.3540
  173DOPC   H7S21095   2.609   4.726   4.081  0.7451  0.0929  1.1047
  173DOPC   C2821096   2.555   4.614   4.274 -0.1970 -0.1528 -0.2283
  173DOPC   H8R21097   2.502   4.524   4.311 -0.4240  0.2092  0.3550
  173DOPC   H8S21098   2.508   4.696   4.333  2.2804 -0.2371  2.0619
  173DOPC   C2921099   2.703   4.606   4.306 -0.9251  1.1318 -0.5659
  173DOPC   H9R21100   2.757   4.550   4.229 -0.0494  3.4671 -1.7530
  173DOPC  C21021101   2.776   4.652   4.404  0.1023 -0.9526 -0.3462
  173DOPC  H10R21102   2.884   4.641   4.418  0.0467 -0.5645  0.4644
  173DOPC  C21121103   2.724   4.737   4.519  0.2813  0.0197  0.1819
  173DOPC  H11R21104   2.614   4.746   4.513  0.2740  0.1949  0.5417
  173DOPC  H11S21105   2.771   4.837   4.511 -1.0890  0.9471  2.6206
  173DOPC  C21221106   2.765   4.711   4.662  0.4141  0.5311 -0.3280
  173DOPC  H12R21107   2.732   4.611   4.697  0.0514  1.4589  2.2003
  173DOPC  H12S21108   2.720   4.779   4.737  0.5913 -0.2123  0.4692
  173DOPC  C21321109   2.918   4.724   4.678  0.1463 -1.1129  0.2777
  173DOPC  H13R21110   2.985   4.715   4.590  2.0683  2.4629  1.1906
  173DOPC  H13S21111   2.947   4.645   4.751  1.7538 -0.3657  0.4963
  173DOPC  C21421112   2.942   4.858   4.739  0.1355 -0.6079  0.1177
  173DOPC  H14R21113   2.876   4.934   4.691  2.2885  0.4507 -1.2840
  173DOPC  H14S21114   3.045   4.894   4.722  0.1318 -0.4550  0.4167
  173DOPC  C21521115   2.912   4.872   4.888 -0.7095 -0.5514 -0.4182
  173DOPC  H15R21116   2.971   4.793   4.938 -0.6748  0.1967  0.7835
  173DOPC  H15S21117   2.803   4.866   4.910 -0.7179 -1.0502 -0.5899
  173DOPC  C21621118   2.952   5.015   4.930 -0.0543 -0.1782 -0.5415
  173DOPC  H16R21119   2.897   5.086   4.865  2.3861  0.6173 -1.8408
  173DOPC  H16S21120   3.061   5.026   4.913  0.0492 -0.9183 -0.3866
  173DOPC  C21721121   2.919   5.038   5.083  0.1610  0.2322  0.2453
  173DOPC  H17R21122   2.947   4.945   5.138 -0.8568  0.6281  1.4558
  173DOPC  H17S21123   2.817   5.075   5.105  0.4477 -0.2133  2.5785
  173DOPC  C21821124   3.003   5.146   5.137 -0.2348 -1.1068  0.1302
  173DOPC  H18R21125   2.956   5.247   5.127  2.2981  0.1852  0.4761
  173DOPC  H18S21126   3.103   5.153   5.090  0.0561 -0.1350  0.8631
  173DOPC  H18T21127   3.023   5.145   5.246 -0.4870  0.4261  0.2190
  173DOPC   C3321128   1.937   4.269   3.519  0.2503 -0.2249 -0.3010
  173DOPC   H3X21129   1.973   4.164   3.516 -0.7620 -0.5582 -1.9949
  173DOPC   H3Y21130   1.869   4.281   3.433  1.1519 -1.7245 -1.2675
  173DOPC   C3421131   1.863   4.300   3.653  0.5153  0.2104  0.1736
  173DOPC   H4X21132   1.930   4.264   3.734 -0.5900 -3.3136 -0.3181
  173DOPC   H4Y21133   1.771   4.238   3.655  0.2607  0.5965  1.5029
  173DOPC   C3521134   1.820   4.442   3.664  0.2029 -0.1758  0.1819
  173DOPC   H5X21135   1.777   4.469   3.566  0.0802 -1.8221 -0.2533
  173DOPC   H5Y21136   1.910   4.507   3.673  0.8543 -1.0616  0.2914
  173DOPC   C3621137   1.727   4.471   3.784  0.1382 -0.3483 -0.1484
  173DOPC   H6X21138   1.688   4.573   3.763 -1.5417 -1.2359 -1.6999
  173DOPC   H6Y21139   1.643   4.399   3.786 -0.1600  0.0178  1.6340
  173DOPC   C3721140   1.794   4.455   3.923  0.0157 -0.0069 -0.2803
  173DOPC   H7X21141   1.821   4.347   3.917  1.2178  0.1922  1.1390
  173DOPC   H7Y21142   1.889   4.511   3.923  1.1767 -1.8764 -1.5032
  173DOPC   C3821143   1.704   4.487   4.040 -0.3637 -0.2377 -0.8731
  173DOPC   H8X21144   1.607   4.434   4.038 -1.0819  1.0302 -1.9713
  173DOPC   H8Y21145   1.668   4.592   4.028  2.6510  1.0272  0.2318
  173DOPC   C3921146   1.784   4.478   4.170  1.2869 -0.0521 -0.5556
  173DOPC   H9X21147   1.867   4.547   4.189 -0.2270  1.4892  0.7983
  173DOPC  C31021148   1.753   4.393   4.272 -0.3068 -0.0207  0.6114
  173DOPC  H10X21149   1.821   4.392   4.359 -0.8105  2.2233  1.1206
  173DOPC  C31121150   1.642   4.294   4.280  0.0660  0.1688 -0.3561
  173DOPC  H11X21151   1.578   4.290   4.189 -1.1134  2.8380  0.2779
  173DOPC  H11Y21152   1.578   4.343   4.357  2.1967  1.5405  0.6182
  173DOPC  C31221153   1.695   4.158   4.329  0.4278  0.0919  0.0100
  173DOPC  H12X21154   1.603   4.105   4.361 -0.6412  0.9788 -1.4976
  173DOPC  H12Y21155   1.761   4.164   4.418  1.8817  0.9034 -1.0746
  173DOPC  C31321156   1.772   4.078   4.234 -0.7134 -0.5817  0.6006
  173DOPC  H13X21157   1.873   4.124   4.233 -1.1159  0.3290 -0.6464
  173DOPC  H13Y21158   1.797   3.973   4.261  4.0305 -0.5403 -2.3913
  173DOPC  C31421159   1.718   4.072   4.091  0.0475 -0.3186  0.0529
  173DOPC  H14X21160   1.618   4.026   4.107  0.2273 -1.8146 -2.5304
  173DOPC  H14Y21161   1.702   4.178   4.064 -1.5661 -0.1403  1.5523
  173DOPC  C31521162   1.800   3.980   3.999  0.4790  0.5479 -0.5678
  173DOPC  H15X21163   1.805   3.873   4.029  1.3009  0.9867  0.9988
  173DOPC  H15Y21164   1.902   4.020   3.978 -0.5129  3.1915 -0.7529
  173DOPC  C31621165   1.724   3.966   3.868  0.3937 -0.4232 -0.2257
  173DOPC  H16X21166   1.616   3.947   3.888  0.6704  0.6019  2.6060
  173DOPC  H16Y21167   1.728   4.065   3.818 -1.0343 -0.3276 -0.1927
  173DOPC  C31721168   1.767   3.847   3.774 -1.0292  0.6577 -0.2843
  173DOPC  H17X21169   1.876   3.843   3.753 -1.4520 -1.4531 -2.5352
  173DOPC  H17Y21170   1.739   3.752   3.824  2.1204 -0.9930 -1.4316
  173DOPC  C31821171   1.711   3.874   3.645  0.1728 -0.3979  0.1390
  173DOPC  H18X21172   1.602   3.888   3.657 -0.5407 -2.7424 -2.4172
  173DOPC  H18Y21173   1.755   3.963   3.593  2.0881 -1.1589  0.3737
  173DOPC  H18Z21174   1.726   3.789   3.575  0.3045  0.1564 -0.5168
  174DOPC     N21175   5.919   3.363   2.749 -0.1643  0.1140  0.2472
  174DOPC   C1221176   6.033   3.385   2.842  0.3921  0.2021 -0.0597
  174DOPC  H12A21177   6.029   3.304   2.913 -0.3788 -0.5736 -0.9630
  174DOPC  H12B21178   6.010   3.473   2.902  1.3628  1.2907 -1.2386
  174DOPC   C1321179   5.935   3.462   2.632 -0.0030 -0.0030 -0.3983
  174DOPC  H13A21180   5.919   3.558   2.679 -0.6173 -0.3801  0.1817
  174DOPC  H13B21181   6.027   3.453   2.576  0.2130  0.5624 -0.1433
  174DOPC  H13C21182   5.849   3.454   2.568  0.3051  0.3454 -0.8581
  174DOPC   C1421183   5.790   3.384   2.806 -0.4225 -0.2875  0.0259
  174DOPC  H14A21184   5.781   3.490   2.819  0.5931 -0.2270  0.3412
  174DOPC  H14B21185   5.710   3.345   2.745 -1.4844  1.6758  0.1006
  174DOPC  H14C21186   5.779   3.340   2.905  0.9198 -0.6185  0.0466
  174DOPC   C1521187   5.921   3.229   2.693 -0.1017 -1.0358 -0.2133
  174DOPC  H15A21188   5.930   3.147   2.763  0.9060 -0.9124 -0.1858
  174DOPC  H15B21189   6.012   3.224   2.634  0.1550  1.0350 -0.0608
  174DOPC  H15C21190   5.847   3.222   2.615  0.0511  2.4416 -0.8084
  174DOPC   C1121191   6.179   3.397   2.790  0.6218  0.1410  0.0112
  174DOPC  H11A21192   6.182   3.480   2.716 -1.1838  1.5529  1.4300
  174DOPC  H11B21193   6.243   3.414   2.879 -0.7012 -2.0849  1.4930
  174DOPC     P21194   6.254   3.148   2.796 -0.1693  0.2467 -0.1043
  174DOPC   O1321195   6.384   3.114   2.742 -0.4376 -0.2505 -0.3892
  174DOPC   O1421196   6.148   3.051   2.788 -0.2658 -0.2371 -1.0866
  174DOPC   O1221197   6.206   3.272   2.724 -0.5034 -0.4922  0.1962
  174DOPC   O1121198   6.268   3.178   2.953 -0.2594 -0.7070 -0.6964
  174DOPC    C121199   6.287   3.078   3.049  0.7442  0.3232  0.0188
  174DOPC    HA21200   6.379   3.102   3.107  2.1772 -4.0856 -0.0754
  174DOPC    HB21201   6.307   2.975   3.012 -0.9418 -1.5280  3.7285
  174DOPC    C221202   6.177   3.067   3.159 -0.3144 -0.4862 -0.6105
  174DOPC    HS21203   6.075   3.052   3.119 -0.1196  0.8773 -1.6931
  174DOPC   O2121204   6.177   3.199   3.222  0.3442  0.7720 -0.1502
  174DOPC   C2121205   6.061   3.237   3.283 -0.5753  0.2734 -0.2242
  174DOPC   O2221206   5.951   3.192   3.261 -0.1254  0.1738  0.5860
  174DOPC   C2221207   6.092   3.338   3.385  0.0917 -1.1748 -0.2289
  174DOPC   H2R21208   5.996   3.366   3.434 -0.9450 -0.2355 -2.6280
  174DOPC   H2S21209   6.124   3.429   3.330 -0.1190 -0.3078  1.0489
  174DOPC    C321210   6.210   2.955   3.262  0.3075  0.2307  0.6588
  174DOPC    HX21211   6.321   2.950   3.276  0.6206 -1.8443 -1.8920
  174DOPC    HY21212   6.193   2.861   3.206  0.0932  0.1897  0.7926
  174DOPC   O3121213   6.139   2.958   3.386 -0.2910 -0.6444  0.2744
  174DOPC   C3121214   6.163   2.852   3.472  0.2697 -0.3616  0.3584
  174DOPC   O3221215   6.238   2.762   3.450  0.5822 -0.1395 -0.0807
  174DOPC   C3221216   6.092   2.883   3.599  0.3902 -0.2631  0.3243
  174DOPC   H2X21217   6.073   2.993   3.605  1.5804 -0.0857  1.2163
  174DOPC   H2Y21218   5.994   2.834   3.579 -1.3350  2.8124  0.4583
  174DOPC   C2321219   6.195   3.291   3.491  0.9417  0.7138  0.5867
  174DOPC   H3R21220   6.273   3.241   3.430 -0.5465 -2.1079  0.8198
  174DOPC   H3S21221   6.150   3.214   3.558 -0.5778 -1.6525 -2.8678
  174DOPC   C2421222   6.261   3.403   3.569 -0.5189  0.0463 -0.0559
  174DOPC   H4R21223   6.190   3.458   3.635  1.1885  2.4614 -0.1080
  174DOPC   H4S21224   6.295   3.491   3.511 -2.0150  0.2599 -0.6598
  174DOPC   C2521225   6.377   3.347   3.655 -0.0831 -0.2772  0.7371
  174DOPC   H5R21226   6.412   3.432   3.717 -1.1554  0.0371  0.9340
  174DOPC   H5S21227   6.453   3.306   3.584  1.8085  1.5993  1.5576
  174DOPC   C2621228   6.324   3.245   3.765  0.2477 -0.0434  0.3211
  174DOPC   H6R21229   6.299   3.154   3.705 -1.6825  0.5957  0.0888
  174DOPC   H6S21230   6.235   3.281   3.819 -0.2749 -1.8698  0.7682
  174DOPC   C2721231   6.443   3.217   3.857  0.0274  0.6921 -0.4815
  174DOPC   H7R21232   6.467   3.294   3.933 -0.0589  0.3571 -0.1136
  174DOPC   H7S21233   6.540   3.205   3.804 -0.2986 -0.3468 -0.8695
  174DOPC   C2821234   6.414   3.086   3.937  0.2891 -0.1358 -0.1696
  174DOPC   H8R21235   6.408   3.006   3.860 -3.5439 -1.3582  1.1878
  174DOPC   H8S21236   6.311   3.089   3.978 -0.6559 -1.4342 -2.2770
  174DOPC   C2921237   6.510   3.055   4.049 -0.1135 -0.1716 -0.0726
  174DOPC   H9R21238   6.595   2.993   4.017  1.5490  2.1822 -0.4938
  174DOPC  C21021239   6.497   3.099   4.175  0.5852  0.6259 -0.5915
  174DOPC  H10R21240   6.567   3.052   4.247 -2.0597 -0.2408  1.6073
  174DOPC  C21121241   6.386   3.185   4.232  0.0706  0.3066  0.1906
  174DOPC  H11R21242   6.308   3.218   4.160 -0.3653  1.2061  1.0535
  174DOPC  H11S21243   6.428   3.279   4.272 -1.6000  0.7530  1.0043
  174DOPC  C21221244   6.303   3.097   4.331  0.1772 -0.8924 -0.2173
  174DOPC  H12R21245   6.343   3.009   4.385  0.7167 -1.9776 -2.2815
  174DOPC  H12S21246   6.214   3.053   4.281  0.5457 -1.3849 -0.4441
  174DOPC  C21321247   6.233   3.199   4.430  0.1405 -0.3214  0.9145
  174DOPC  H13R21248   6.146   3.245   4.379  0.4553 -1.3362 -0.5882
  174DOPC  H13S21249   6.292   3.292   4.444 -1.7521  0.9485  0.7947
  174DOPC  C21421250   6.210   3.138   4.566 -0.0343  0.2865 -0.5292
  174DOPC  H14R21251   6.310   3.128   4.612  0.7145 -0.7902 -2.2891
  174DOPC  H14S21252   6.167   3.036   4.550 -0.9546  0.4163  0.9061
  174DOPC  C21521253   6.135   3.213   4.667  0.1034 -0.1560  0.1902
  174DOPC  H15R21254   6.185   3.308   4.694 -1.1439  1.3970 -2.5552
  174DOPC  H15S21255   6.117   3.162   4.764  2.3802  2.3132  2.0560
  174DOPC  C21621256   5.989   3.241   4.618 -0.9759  0.0596  0.2189
  174DOPC  H16R21257   5.960   3.139   4.584  1.5295 -0.4194 -0.7086
  174DOPC  H16S21258   5.994   3.314   4.534  0.7056 -3.2413 -2.8634
  174DOPC  C21721259   5.893   3.292   4.716 -0.1693 -0.2362 -0.6127
  174DOPC  H17R21260   5.892   3.401   4.736 -1.7388 -0.4156  0.5176
  174DOPC  H17S21261   5.907   3.245   4.816 -1.5549  0.6231  0.0199
  174DOPC  C21821262   5.750   3.257   4.670  0.3694  0.1471 -0.0137
  174DOPC  H18R21263   5.712   3.315   4.583 -2.1349 -0.7534  0.3833
  174DOPC  H18S21264   5.683   3.281   4.756 -0.3860  3.1607 -1.3056
  174DOPC  H18T21265   5.749   3.148   4.650  3.3174  0.3488 -1.8831
  174DOPC   C3321266   6.163   2.842   3.723 -0.0497 -0.0914 -0.1110
  174DOPC   H3X21267   6.266   2.883   3.720 -0.0055 -0.2120 -0.2526
  174DOPC   H3Y21268   6.165   2.732   3.740  1.9898 -0.0797 -0.0300
  174DOPC   C3421269   6.106   2.893   3.859 -0.4415  0.2489  0.1795
  174DOPC   H4X21270   5.995   2.882   3.864 -1.1457  3.9542 -2.6775
  174DOPC   H4Y21271   6.117   3.002   3.876 -0.9788  0.2963  0.2589
  174DOPC   C3521272   6.175   2.818   3.980  0.1457  0.1913 -1.0541
  174DOPC   H5X21273   6.284   2.840   3.971  0.3477  0.3663  1.1615
  174DOPC   H5Y21274   6.169   2.707   3.977  1.9632  0.0736 -1.8502
  174DOPC   C3621275   6.096   2.840   4.112 -0.1014 -0.0986 -0.0118
  174DOPC   H6X21276   6.089   2.950   4.126 -2.2409 -0.4114  2.0804
  174DOPC   H6Y21277   5.992   2.801   4.105 -0.8989  1.2588  2.7200
  174DOPC   C3721278   6.177   2.787   4.235 -0.5621  0.1099  1.1625
  174DOPC   H7X21279   6.215   2.685   4.215  0.4097  0.8451 -1.0158
  174DOPC   H7Y21280   6.270   2.848   4.235  1.6406 -2.9907  2.2768
  174DOPC   C3821281   6.092   2.788   4.368 -0.1407  0.6860 -0.0575
  174DOPC   H8X21282   6.009   2.720   4.339  0.0767  0.7053 -0.7370
  174DOPC   H8Y21283   6.043   2.885   4.390  1.4062  1.1935  1.3774
  174DOPC   C3921284   6.159   2.745   4.499 -0.0917 -0.3400  0.5710
  174DOPC   H9X21285   6.263   2.710   4.491  0.2850  0.2820  2.2092
  174DOPC  C31021286   6.100   2.745   4.619  0.5290 -0.3356 -0.1955
  174DOPC  H10X21287   6.154   2.717   4.710 -2.6357 -0.8932  1.6663
  174DOPC  C31121288   5.961   2.784   4.648  0.5235  1.2536 -0.1027
  174DOPC  H11X21289   5.890   2.736   4.578  2.7459 -0.9656 -1.0084
  174DOPC  H11Y21290   5.961   2.894   4.632 -1.8403  1.3212  0.0512
  174DOPC  C31221291   5.906   2.752   4.794 -0.1280  0.4464 -0.1300
  174DOPC  H12X21292   5.972   2.785   4.876 -0.6154  1.1793 -0.0210
  174DOPC  H12Y21293   5.908   2.641   4.795 -0.9758  0.4216  0.2223
  174DOPC  C31321294   5.764   2.798   4.824 -0.1330 -0.5006  0.8673
  174DOPC  H13X21295   5.773   2.907   4.843 -0.5806 -0.5481  1.3505
  174DOPC  H13Y21296   5.695   2.783   4.738  1.7417 -1.5571 -0.5506
  174DOPC  C31421297   5.681   2.749   4.945 -0.8200 -0.3080  0.0996
  174DOPC  H14X21298   5.665   2.641   4.926  2.6775 -1.1775  1.3348
  174DOPC  H14Y21299   5.742   2.754   5.038 -0.3466 -2.1354 -0.0703
  174DOPC  C31521300   5.561   2.832   4.966 -0.3394 -0.2967  0.4034
  174DOPC  H15X21301   5.490   2.816   4.883  0.5664  1.0663 -0.6771
  174DOPC  H15Y21302   5.588   2.940   4.963 -0.3375 -0.3132 -1.2955
  174DOPC  C31621303   5.500   2.783   5.105 -0.1240  0.4165  0.1223
  174DOPC  H16X21304   5.486   2.672   5.107 -0.0785  0.4140  0.3318
  174DOPC  H16Y21305   5.567   2.797   5.192 -0.2479  0.4237  0.2153
  174DOPC  C31721306   5.364   2.844   5.137  0.5477  0.4066 -0.3664
  174DOPC  H17X21307   5.377   2.948   5.174 -1.7042  0.8821 -0.7422
  174DOPC  H17Y21308   5.312   2.849   5.039  0.7172 -1.7164 -0.6028
  174DOPC  C31821309   5.291   2.773   5.243 -0.0438 -0.2145  0.5467
  174DOPC  H18X21310   5.294   2.662   5.244  0.0975 -0.2110  0.8750
  174DOPC  H18Y21311   5.338   2.798   5.341 -0.0293  0.5125  0.3605
  174DOPC  H18Z21312   5.187   2.813   5.243 -0.8781 -2.1902 -1.8534
  175DOPC     N21313   4.603   5.567   2.433 -0.2216  0.2101 -0.2257
  175DOPC   C1221314   4.686   5.449   2.476 -1.3431 -0.1934  0.0805
  175DOPC  H12A21315   4.753   5.421   2.396 -0.3932  1.9562  0.0742
  175DOPC  H12B21316   4.626   5.364   2.505  2.2411 -3.7149 -1.8718
  175DOPC   C1321317   4.499   5.604   2.538  0.1055  0.2731 -1.1210
  175DOPC  H13A21318   4.438   5.687   2.507  1.7685  2.1648  0.3882
  175DOPC  H13B21319   4.442   5.513   2.546 -0.7410  0.5915 -3.1462
  175DOPC  H13C21320   4.545   5.621   2.635 -0.1220  2.6819 -1.3713
  175DOPC   C1421321   4.534   5.540   2.306 -0.1129  0.5909 -0.3235
  175DOPC  H14A21322   4.489   5.628   2.263  0.3622  1.1899  0.4074
  175DOPC  H14B21323   4.607   5.498   2.238  0.2070  1.6918 -0.6839
  175DOPC  H14C21324   4.466   5.457   2.321  0.8562 -0.1098  0.2988
  175DOPC   C1521325   4.691   5.683   2.407 -0.1065  0.0968 -0.0640
  175DOPC  H15A21326   4.762   5.705   2.485 -0.4019  1.3360 -0.1111
  175DOPC  H15B21327   4.638   5.773   2.377 -0.0199  0.1520 -0.0489
  175DOPC  H15C21328   4.744   5.658   2.317  1.2187  0.7313  0.5152
  175DOPC   C1121329   4.779   5.467   2.593 -0.1416 -0.4812 -0.3631
  175DOPC  H11A21330   4.819   5.364   2.607 -1.2813 -1.1341 -1.6501
  175DOPC  H11B21331   4.859   5.537   2.562 -0.9670  0.8301  0.3823
  175DOPC     P21332   4.634   5.412   2.800  0.0266 -0.4031  0.2145
  175DOPC   O1321333   4.548   5.338   2.706  0.1893 -0.0209 -0.7632
  175DOPC   O1421334   4.566   5.470   2.916 -0.2605  0.6115 -0.0902
  175DOPC   O1221335   4.725   5.512   2.718  0.0773 -0.0318 -0.2675
  175DOPC   O1121336   4.729   5.293   2.844  0.1322 -0.6018  0.4925
  175DOPC    C121337   4.868   5.306   2.876 -0.2114  0.6035 -0.2617
  175DOPC    HA21338   4.916   5.386   2.814 -1.4337  1.2411 -0.4136
  175DOPC    HB21339   4.912   5.206   2.855  3.7085  1.9067  0.7326
  175DOPC    C221340   4.884   5.328   3.030 -0.9316 -0.0582 -0.2204
  175DOPC    HS21341   4.815   5.260   3.085 -0.1411 -0.2571  0.5462
  175DOPC   O2121342   4.861   5.471   3.064  0.1309  0.2238  0.2367
  175DOPC   C2121343   4.817   5.488   3.186 -0.5005 -0.1942  0.0776
  175DOPC   O2221344   4.768   5.401   3.257  0.1731 -0.2044  0.3303
  175DOPC   C2221345   4.838   5.634   3.214  0.2179  0.2276  0.0238
  175DOPC   H2R21346   4.782   5.684   3.132  0.3707  0.9040  0.3266
  175DOPC   H2S21347   4.945   5.661   3.202  0.3410 -0.3331 -0.1809
  175DOPC    C321348   5.031   5.289   3.066  0.0341 -0.3133 -0.0926
  175DOPC    HX21349   5.094   5.362   3.010 -1.5888  0.1803 -1.3581
  175DOPC    HY21350   5.058   5.188   3.030 -0.6868 -0.6712  0.3588
  175DOPC   O3121351   5.056   5.295   3.208 -0.3645  0.2512 -0.4268
  175DOPC   C3121352   5.013   5.183   3.272  0.3162 -0.2058 -0.2989
  175DOPC   O3221353   4.943   5.092   3.226  0.7315 -0.7015 -0.3705
  175DOPC   C3221354   5.060   5.187   3.415  0.1424 -0.0481 -0.0945
  175DOPC   H2X21355   5.170   5.201   3.408 -0.1685  3.2791 -0.1850
  175DOPC   H2Y21356   5.018   5.283   3.452  0.2418  0.7289 -1.8813
  175DOPC   C2321357   4.781   5.684   3.349 -0.2706  0.1959  0.0256
  175DOPC   H3R21358   4.683   5.637   3.374 -0.4852  0.5539 -0.1338
  175DOPC   H3S21359   4.770   5.794   3.355  1.3306  0.4763 -1.4925
  175DOPC   C2421360   4.871   5.641   3.472  0.4950 -0.8626  0.4072
  175DOPC   H4R21361   4.973   5.684   3.463 -0.0067  0.1243 -0.9451
  175DOPC   H4S21362   4.860   5.531   3.476  1.5579 -0.9885 -0.0333
  175DOPC   C2521363   4.808   5.698   3.599 -0.0146 -0.7685 -0.3395
  175DOPC   H5R21364   4.701   5.672   3.619  0.3775 -1.5745  0.8105
  175DOPC   H5S21365   4.815   5.807   3.583  0.1091 -0.9852 -1.9131
  175DOPC   C2621366   4.881   5.651   3.722 -0.6051 -0.0273  0.1348
  175DOPC   H6R21367   4.987   5.685   3.723 -0.1138 -1.4383  2.0480
  175DOPC   H6S21368   4.869   5.541   3.721 -5.2156  0.2434 -1.0728
  175DOPC   C2721369   4.800   5.700   3.843  0.3255 -0.4150  0.2111
  175DOPC   H7R21370   4.699   5.654   3.849 -0.9141  2.2895  3.8636
  175DOPC   H7S21371   4.788   5.810   3.837  1.8298 -0.2298  0.2066
  175DOPC   C2821372   4.869   5.682   3.975 -0.8917  0.5840 -0.1894
  175DOPC   H8R21373   4.813   5.721   4.063 -0.6092 -0.5723  0.5293
  175DOPC   H8S21374   4.969   5.729   3.973 -1.0807  1.0653  1.0501
  175DOPC   C2921375   4.911   5.537   3.990  0.3865  0.6187  0.2548
  175DOPC   H9R21376   4.964   5.492   3.905 -0.9167 -2.3299  0.8783
  175DOPC  C21021377   4.882   5.461   4.090 -0.8858  0.0623 -0.0648
  175DOPC  H10R21378   4.900   5.352   4.083 -3.7383 -0.7470  2.5560
  175DOPC  C21121379   4.806   5.489   4.221 -0.1285 -0.3360 -0.5142
  175DOPC  H11R21380   4.763   5.406   4.281 -1.5575  0.3756 -0.5187
  175DOPC  H11S21381   4.721   5.557   4.199  0.7788  0.6213 -1.1030
  175DOPC  C21221382   4.891   5.564   4.323  0.3812 -0.0695 -0.3506
  175DOPC  H12R21383   4.824   5.588   4.409  1.2127 -1.1755  0.6465
  175DOPC  H12S21384   4.930   5.657   4.277  0.5529 -0.8614 -1.8622
  175DOPC  C21321385   5.009   5.486   4.389  0.1382 -0.0218  0.1114
  175DOPC  H13R21386   5.062   5.420   4.318 -2.4559 -2.1817 -0.0093
  175DOPC  H13S21387   4.959   5.430   4.472 -0.1787  1.4708  0.9641
  175DOPC  C21421388   5.107   5.582   4.457  0.0234 -0.5598 -0.9387
  175DOPC  H14R21389   5.138   5.659   4.384 -0.6124 -0.1161 -0.7544
  175DOPC  H14S21390   5.201   5.532   4.490 -0.4007 -1.1858 -0.6526
  175DOPC  C21521391   5.043   5.641   4.588  0.0102  0.1306 -0.0509
  175DOPC  H15R21392   4.938   5.673   4.572  0.4022  2.7822  1.9493
  175DOPC  H15S21393   5.102   5.729   4.621 -1.1293  0.2292  1.8470
  175DOPC  C21621394   5.055   5.541   4.707  0.3120  0.2499  1.0381
  175DOPC  H16R21395   5.164   5.528   4.724  0.4569  1.4604  1.0993
  175DOPC  H16S21396   5.016   5.440   4.683  1.7180 -0.7074  2.5779
  175DOPC  C21721397   4.980   5.588   4.831 -0.5173 -0.4008 -0.0172
  175DOPC  H17R21398   4.970   5.508   4.908 -0.7239 -0.9448 -0.6006
  175DOPC  H17S21399   4.875   5.617   4.809 -0.3899 -0.3932 -0.6332
  175DOPC  C21821400   5.041   5.710   4.890 -0.0093 -0.1627  0.2267
  175DOPC  H18R21401   5.050   5.784   4.807 -0.3867 -0.8821 -0.4753
  175DOPC  H18S21402   5.144   5.687   4.925 -0.4930 -1.9140  0.5946
  175DOPC  H18T21403   4.980   5.756   4.970 -1.3035 -0.2890 -0.6532
  175DOPC   C3321404   5.032   5.070   3.506  0.0846 -0.0843 -0.6029
  175DOPC   H3X21405   5.078   4.982   3.456  0.8679  0.4666 -0.8698
  175DOPC   H3Y21406   4.924   5.045   3.511  0.0433  0.2402  0.2983
  175DOPC   C3421407   5.069   5.097   3.657  0.2524  0.0950  0.6242
  175DOPC   H4X21408   5.031   5.193   3.700 -1.8465 -0.3336 -0.1527
  175DOPC   H4Y21409   5.178   5.116   3.658  0.6535 -2.0357  1.2212
  175DOPC   C3521410   5.033   4.983   3.760 -0.6119  0.8280  0.4921
  175DOPC   H5X21411   5.070   4.886   3.720  0.5475  1.7218 -0.6992
  175DOPC   H5Y21412   4.923   4.974   3.770 -0.5580  1.9306  2.4984
  175DOPC   C3621413   5.091   4.999   3.897 -0.1339  0.5918 -0.5963
  175DOPC   H6X21414   5.199   5.009   3.874 -0.0308  4.9348  0.9563
  175DOPC   H6Y21415   5.054   5.097   3.932 -3.1119 -0.9476  0.9380
  175DOPC   C3721416   5.050   4.893   4.002 -0.3203 -0.0360  0.7545
  175DOPC   H7X21417   4.941   4.877   4.005 -0.4241 -0.1664 -1.8549
  175DOPC   H7Y21418   5.094   4.798   3.966 -0.6518  0.4751 -1.1408
  175DOPC   C3821419   5.092   4.921   4.149  0.0083 -0.1412  0.3591
  175DOPC   H8X21420   5.200   4.894   4.142  0.7029  2.4688 -0.1332
  175DOPC   H8Y21421   5.043   4.841   4.208  0.2240 -0.2259  0.4254
  175DOPC   C3921422   5.074   5.054   4.220 -0.0337  0.0393  0.1581
  175DOPC   H9X21423   5.136   5.141   4.194  0.4097 -0.2562  0.2189
  175DOPC  C31021424   4.988   5.064   4.330 -0.1283 -0.1240  0.2799
  175DOPC  H10X21425   4.979   5.165   4.373  3.3023  0.4410 -0.0919
  175DOPC  C31121426   4.907   4.957   4.398 -0.4094  0.2862 -0.6795
  175DOPC  H11X21427   4.981   4.884   4.439 -2.5056 -0.1451  2.6602
  175DOPC  H11Y21428   4.857   4.912   4.309  0.8551 -1.4715 -0.5603
  175DOPC  C31221429   4.813   5.011   4.511 -0.4335  0.2694  0.0224
  175DOPC  H12X21430   4.759   4.917   4.534 -2.3575  1.4041  0.3745
  175DOPC  H12Y21431   4.740   5.088   4.475 -1.1354 -0.4403 -0.1039
  175DOPC  C31321432   4.886   5.042   4.642  0.0691 -0.4660  0.2926
  175DOPC  H13X21433   4.970   4.971   4.654 -2.2194 -3.4536 -0.0655
  175DOPC  H13Y21434   4.933   5.140   4.620 -0.6377 -0.3781 -0.8941
  175DOPC  C31421435   4.804   5.053   4.769  0.6220 -0.2284 -0.9479
  175DOPC  H14X21436   4.727   5.133   4.758  1.8390  1.0849 -0.1684
  175DOPC  H14Y21437   4.747   4.958   4.782  0.3908  0.0097 -0.1412
  175DOPC  C31521438   4.888   5.066   4.899  0.0569  0.5360 -0.1932
  175DOPC  H15X21439   4.928   4.965   4.922 -1.4065  0.2547  1.3096
  175DOPC  H15Y21440   4.824   5.094   4.985  1.4655  1.8079  0.4836
  175DOPC  C31621441   5.006   5.158   4.883 -0.1418  0.3058  0.1790
  175DOPC  H16X21442   5.078   5.121   4.807  0.0391  2.4694 -0.7701
  175DOPC  H16Y21443   4.985   5.260   4.843 -2.0950  0.9255  2.5142
  175DOPC  C31721444   5.081   5.162   5.018  0.4879 -0.1905 -0.4253
  175DOPC  H17X21445   5.107   5.065   5.066 -0.3740 -0.2562 -0.0722
  175DOPC  H17Y21446   5.173   5.217   4.989 -1.4029  3.1219 -0.6458
  175DOPC  C31821447   5.016   5.247   5.125  0.2390 -0.2259 -0.3328
  175DOPC  H18X21448   5.006   5.351   5.086 -0.9677 -0.0126  0.4976
  175DOPC  H18Y21449   4.913   5.209   5.146  0.1745 -1.1978 -2.2227
  175DOPC  H18Z21450   5.078   5.250   5.217  1.0090 -1.7405 -0.7830
  176DOPC     N21451   2.784   1.776   2.422  1.0036 -0.1582 -0.0390
  176DOPC   C1221452   2.671   1.706   2.496 -0.0105  0.7374  0.0626
  176DOPC  H12A21453   2.635   1.628   2.431 -1.0783  0.8232  0.5375
  176DOPC  H12B21454   2.599   1.784   2.516 -0.2081  0.4801  0.3590
  176DOPC   C1321455   2.896   1.685   2.386  0.1526 -0.1491  0.3840
  176DOPC  H13A21456   2.957   1.730   2.309 -1.8951 -0.0242 -1.2454
  176DOPC  H13B21457   2.957   1.655   2.471  2.0074  2.2143  0.0346
  176DOPC  H13C21458   2.867   1.597   2.331  0.3819 -0.0142  0.0412
  176DOPC   C1421459   2.839   1.893   2.501  0.2872  0.3342  0.0357
  176DOPC  H14A21460   2.883   1.863   2.595 -0.7164  1.9296  1.0445
  176DOPC  H14B21461   2.925   1.935   2.451  0.2261 -1.2141 -1.4825
  176DOPC  H14C21462   2.762   1.968   2.510  1.2986  1.3915  0.1609
  176DOPC   C1521463   2.736   1.841   2.290  0.2294 -0.1016 -0.6626
  176DOPC  H15A21464   2.689   1.775   2.219 -2.6277  0.8326  0.2292
  176DOPC  H15B21465   2.810   1.902   2.239 -2.9651  1.7483 -3.5453
  176DOPC  H15C21466   2.660   1.912   2.319 -1.8475 -2.2990 -0.4134
  176DOPC   C1121467   2.690   1.645   2.638  0.2176  0.0077 -0.5135
  176DOPC  H11A21468   2.611   1.571   2.665  0.6835 -0.8517 -1.4591
  176DOPC  H11B21469   2.784   1.586   2.639  0.7666  0.8071  1.6786
  176DOPC     P21470   2.785   1.740   2.860  0.2516  0.3322  0.1249
  176DOPC   O1321471   2.760   1.852   2.949  0.2131  0.0079  0.1974
  176DOPC   O1421472   2.921   1.729   2.803 -0.1103  0.0940  0.0304
  176DOPC   O1221473   2.685   1.746   2.740 -0.2551  0.8823  0.2467
  176DOPC   O1121474   2.756   1.600   2.941 -0.1740  0.0925  0.1608
  176DOPC    C121475   2.643   1.577   3.022  0.0698  0.1536  0.6861
  176DOPC    HA21476   2.571   1.502   2.984 -0.6783 -0.6909  3.5908
  176DOPC    HB21477   2.586   1.672   3.031  2.3264  1.8748 -1.5241
  176DOPC    C221478   2.676   1.528   3.163 -0.1297 -0.2324 -0.6095
  176DOPC    HS21479   2.584   1.534   3.225 -0.0473  0.1494 -0.5208
  176DOPC   O2121480   2.788   1.597   3.221 -0.3557 -0.2603 -0.2116
  176DOPC   C2121481   2.755   1.719   3.261  0.1759 -0.1386  0.0258
  176DOPC   O2221482   2.636   1.760   3.272 -0.2140  0.3240 -0.4353
  176DOPC   C2221483   2.883   1.783   3.320 -0.9514  0.0246 -0.7628
  176DOPC   H2R21484   2.883   1.893   3.312  0.2797  0.0695 -0.3771
  176DOPC   H2S21485   2.961   1.752   3.247 -1.7261 -2.8689 -0.4961
  176DOPC    C321486   2.703   1.372   3.164 -0.4648  0.0027  0.1597
  176DOPC    HX21487   2.800   1.350   3.115 -1.1593 -2.8310 -0.1062
  176DOPC    HY21488   2.631   1.327   3.092  1.5647 -1.9926 -0.7191
  176DOPC   O3121489   2.695   1.309   3.296  0.7200  0.1524 -0.2626
  176DOPC   C3121490   2.809   1.296   3.357 -0.0501 -0.1960  0.2884
  176DOPC   O3221491   2.918   1.300   3.307 -0.2008  0.4557  0.0836
  176DOPC   C3221492   2.782   1.255   3.498 -0.3286  0.1755 -0.1734
  176DOPC   H2X21493   2.686   1.303   3.527  0.7992  3.5292 -1.5254
  176DOPC   H2Y21494   2.771   1.145   3.509  0.3818  0.0497 -0.7261
  176DOPC   C2321495   2.916   1.718   3.454 -0.3958  0.1325 -0.0186
  176DOPC   H3R21496   2.918   1.608   3.448  0.2384  0.0339  1.5461
  176DOPC   H3S21497   2.836   1.749   3.524 -1.1033 -0.3917 -0.5833
  176DOPC   C2421498   3.054   1.765   3.510 -0.0814  0.3367  0.0954
  176DOPC   H4R21499   3.052   1.876   3.513 -0.5699  0.4776 -2.5338
  176DOPC   H4S21500   3.130   1.741   3.432 -0.7562  0.7811 -0.7203
  176DOPC   C2521501   3.085   1.697   3.639  0.5037  0.0189  0.0810
  176DOPC   H5R21502   3.195   1.686   3.656  0.3731 -2.1256 -0.1026
  176DOPC   H5S21503   3.048   1.594   3.618 -2.9244  0.9942  0.8168
  176DOPC   C2621504   3.007   1.749   3.758 -0.3573 -0.2490  0.4066
  176DOPC   H6R21505   2.896   1.739   3.752 -0.4475  0.4422  0.7405
  176DOPC   H6S21506   3.040   1.854   3.773 -1.0629 -0.0965  0.9232
  176DOPC   C2721507   3.044   1.661   3.881  0.2813  0.4665  0.0450
  176DOPC   H7R21508   3.153   1.640   3.866 -0.0746 -0.3245 -1.6636
  176DOPC   H7S21509   2.990   1.566   3.863  1.3864 -0.3688  0.9003
  176DOPC   C2821510   3.020   1.718   4.022  0.0461  0.9373  0.2521
  176DOPC   H8R21511   2.909   1.719   4.023 -0.1044 -0.8333 -2.5540
  176DOPC   H8S21512   3.071   1.816   4.031  0.8258  0.7062 -1.2699
  176DOPC   C2921513   3.072   1.619   4.119  0.2041  0.4561  0.2311
  176DOPC   H9R21514   3.054   1.512   4.098 -0.4627  0.7733 -0.8823
  176DOPC  C21021515   3.139   1.652   4.231  0.0421  0.8603 -0.1480
  176DOPC  H10R21516   3.175   1.576   4.303 -3.7469  0.9587  2.1023
  176DOPC  C21121517   3.174   1.786   4.277  0.0989 -0.3152 -0.8399
  176DOPC  H11R21518   3.156   1.870   4.206  4.5666  0.2709 -1.5454
  176DOPC  H11S21519   3.284   1.779   4.291  0.1606  0.8334 -0.6381
  176DOPC  C21221520   3.109   1.817   4.415  0.0054 -0.2598  0.3244
  176DOPC  H12R21521   3.001   1.796   4.404  0.1186  0.2232 -2.2073
  176DOPC  H12S21522   3.128   1.924   4.434  2.0274 -0.6571  0.7589
  176DOPC  C21321523   3.174   1.738   4.522  0.7188 -0.2260 -0.3295
  176DOPC  H13R21524   3.148   1.630   4.525  2.5309 -0.6844  1.2617
  176DOPC  H13S21525   3.121   1.772   4.613  0.8635 -1.7440  0.3571
  176DOPC  C21421526   3.327   1.756   4.532  0.2430 -0.1175  0.6663
  176DOPC  H14R21527   3.347   1.864   4.513  1.6522 -0.6159 -0.8013
  176DOPC  H14S21528   3.386   1.691   4.464  0.6659  0.9440 -0.0021
  176DOPC  C21521529   3.391   1.718   4.671 -0.2016 -0.3320 -1.0135
  176DOPC  H15R21530   3.496   1.754   4.675 -0.6327  0.8770 -0.0722
  176DOPC  H15S21531   3.405   1.608   4.674 -2.1199 -0.5938  0.0171
  176DOPC  C21621532   3.321   1.790   4.788 -0.6471 -0.9090 -0.3168
  176DOPC  H16R21533   3.219   1.750   4.806 -0.4798 -0.9085  0.6988
  176DOPC  H16S21534   3.311   1.896   4.758 -0.1971 -0.4714  1.0151
  176DOPC  C21721535   3.399   1.800   4.920  0.6536 -0.6368 -0.5900
  176DOPC  H17R21536   3.369   1.884   4.986  0.1356 -2.8241  2.1648
  176DOPC  H17S21537   3.506   1.810   4.894  1.0706  1.4071  1.5898
  176DOPC  C21821538   3.395   1.663   4.987 -0.2535 -0.5402 -0.7333
  176DOPC  H18R21539   3.292   1.647   5.025  0.3478  0.4484  1.5146
  176DOPC  H18S21540   3.468   1.657   5.071 -0.8631  1.3501 -0.0094
  176DOPC  H18T21541   3.425   1.582   4.917  0.5438  0.6593 -1.8346
  176DOPC   C3321542   2.896   1.308   3.598 -0.0874  0.2986  0.0224
  176DOPC   H3X21543   2.938   1.407   3.571  0.0827  0.3207  0.3568
  176DOPC   H3Y21544   2.989   1.250   3.578 -0.2895 -0.3690  0.9468
  176DOPC   C3421545   2.856   1.308   3.747 -0.3975 -0.1280  0.1931
  176DOPC   H4X21546   2.948   1.305   3.808 -1.6287 -0.9065  2.0923
  176DOPC   H4Y21547   2.805   1.212   3.773  0.0482 -0.1092  1.1614
  176DOPC   C3521548   2.769   1.429   3.775  0.5767 -0.4091  0.6133
  176DOPC   H5X21549   2.671   1.410   3.726  0.7790  1.4852 -0.6645
  176DOPC   H5Y21550   2.826   1.515   3.733 -0.9764  0.6417  0.5716
  176DOPC   C3621551   2.738   1.459   3.925  0.2972 -0.2717  0.4242
  176DOPC   H6X21552   2.699   1.373   3.982  1.2282  0.1415  1.7309
  176DOPC   H6Y21553   2.829   1.497   3.978 -0.5370  0.2517  1.5084
  176DOPC   C3721554   2.636   1.570   3.944  0.0824 -0.1488  0.0526
  176DOPC   H7X21555   2.669   1.669   3.908  0.3359  1.0705  3.3549
  176DOPC   H7Y21556   2.541   1.538   3.895  1.0149 -2.6283 -0.2912
  176DOPC   C3821557   2.613   1.601   4.093 -0.7437 -0.1296  0.3029
  176DOPC   H8X21558   2.714   1.631   4.128  0.0054 -3.1810  1.0532
  176DOPC   H8Y21559   2.596   1.501   4.139 -1.5977 -0.0487  0.1843
  176DOPC   C3921560   2.500   1.697   4.099  0.4799 -0.7547  0.1140
  176DOPC   H9X21561   2.409   1.676   4.040  0.5070 -1.8731  0.4428
  176DOPC  C31021562   2.520   1.823   4.140 -0.3833 -0.4762  0.0494
  176DOPC  H10X21563   2.437   1.895   4.136  0.2117  0.1966 -0.4897
  176DOPC  C31121564   2.656   1.887   4.177 -0.5132 -0.2676 -0.0979
  176DOPC  H11X21565   2.746   1.821   4.177 -0.5153 -0.2721 -0.4191
  176DOPC  H11Y21566   2.645   1.918   4.283  0.2608  1.1189 -0.4046
  176DOPC  C31221567   2.698   2.004   4.087 -0.1141  0.3984  0.2253
  176DOPC  H12X21568   2.787   2.051   4.132  3.0374 -2.7443 -2.1630
  176DOPC  H12Y21569   2.612   2.074   4.075 -0.3392  0.1385  0.3194
  176DOPC  C31321570   2.729   1.968   3.939 -0.2613  0.2213  0.6344
  176DOPC  H13X21571   2.827   1.920   3.919 -0.7426 -0.8453  0.7412
  176DOPC  H13Y21572   2.659   1.892   3.898  1.2681  0.5118 -2.7792
  176DOPC  C31421573   2.719   2.083   3.838  0.0890  0.5903  1.4316
  176DOPC  H14X21574   2.615   2.115   3.815  0.4591 -0.0130 -1.4407
  176DOPC  H14Y21575   2.766   2.175   3.881  0.0846  0.9698  0.6347
  176DOPC  C31521576   2.782   2.054   3.697  0.1843  0.0218 -0.1143
  176DOPC  H15X21577   2.720   1.975   3.650  1.3609 -0.4687 -0.8795
  176DOPC  H15Y21578   2.881   2.008   3.717 -0.8070 -2.9982 -1.5262
  176DOPC  C31621579   2.812   2.178   3.613 -0.1709  0.2817 -0.3030
  176DOPC  H16X21580   2.727   2.248   3.621 -0.8493 -0.5681  0.0875
  176DOPC  H16Y21581   2.897   2.232   3.660 -1.4702  1.8833  0.3045
  176DOPC  C31721582   2.845   2.162   3.468 -0.0038 -0.5600  0.2379
  176DOPC  H17X21583   2.878   2.257   3.422  1.8062 -1.2301  0.0765
  176DOPC  H17Y21584   2.935   2.097   3.472  0.6356  0.3684  2.4895
  176DOPC  C31821585   2.737   2.095   3.387 -0.2374  0.2685  0.6516
  176DOPC  H18X21586   2.718   1.996   3.434  0.7940  0.2462  1.0330
  176DOPC  H18Y21587   2.653   2.165   3.369 -0.3173 -0.0144 -0.1569
  176DOPC  H18Z21588   2.775   2.075   3.284  2.5291  0.2069  1.6138
  177DOPC     N21589   6.043   6.004   3.097 -0.7598  0.3026 -0.3292
  177DOPC   C1221590   5.893   6.007   3.125 -0.8373 -0.2594 -0.5601
  177DOPC  H12A21591   5.862   5.903   3.130 -1.2924 -0.0965  0.2529
  177DOPC  H12B21592   5.833   6.049   3.046 -1.5187 -0.0462  0.0622
  177DOPC   C1321593   6.109   6.141   3.102  0.3225  0.9474 -0.1726
  177DOPC  H13A21594   6.083   6.181   3.198  0.1401  1.5184 -0.4573
  177DOPC  H13B21595   6.213   6.130   3.074  0.6365 -0.4862  1.3592
  177DOPC  H13C21596   6.057   6.198   3.027  2.4192  0.5604 -2.0498
  177DOPC   C1421597   6.066   5.938   2.965 -0.0008  0.0294  0.3191
  177DOPC  H14A21598   6.029   5.992   2.879  0.0202 -0.7186 -0.1632
  177DOPC  H14B21599   6.172   5.919   2.956 -0.0551  0.4967 -1.7708
  177DOPC  H14C21600   6.013   5.844   2.970 -1.8976  0.9915 -0.6447
  177DOPC   C1521601   6.108   5.910   3.194  0.7208  0.1123  0.1501
  177DOPC  H15A21602   6.070   5.809   3.197  3.3576 -0.9756  0.2473
  177DOPC  H15B21603   6.098   5.950   3.294  1.4781 -0.3417  0.4175
  177DOPC  H15C21604   6.213   5.900   3.171  1.3988 -0.1468  2.9100
  177DOPC   C1121605   5.852   6.088   3.249 -0.5339 -0.5808 -0.3907
  177DOPC  H11A21606   5.744   6.069   3.264 -1.1850  1.8495 -1.5180
  177DOPC  H11B21607   5.895   6.043   3.341  0.4695 -0.9771 -1.0405
  177DOPC     P21608   5.796   6.345   3.207 -0.2751  0.1307  0.1288
  177DOPC   O1321609   5.761   6.333   3.069 -0.2214 -0.3327  0.1702
  177DOPC   O1421610   5.872   6.468   3.239  0.5793  0.5335  0.0148
  177DOPC   O1221611   5.890   6.226   3.249  0.0050 -0.4338  0.1530
  177DOPC   O1121612   5.672   6.327   3.300 -0.4634 -0.0509  0.4899
  177DOPC    C121613   5.678   6.295   3.443  0.2663 -0.2052 -0.3685
  177DOPC    HA21614   5.754   6.220   3.474 -0.8985 -1.8943 -1.4361
  177DOPC    HB21615   5.576   6.264   3.477  1.0132 -0.8407  1.4221
  177DOPC    C221616   5.699   6.425   3.525 -0.1988  0.7273 -0.2648
  177DOPC    HS21617   5.650   6.511   3.475  1.6551  1.9178 -0.1263
  177DOPC   O2121618   5.839   6.453   3.530 -0.2525 -0.5829 -0.7039
  177DOPC   C2121619   5.872   6.583   3.556 -0.2342 -0.0845 -0.3691
  177DOPC   O2221620   5.792   6.675   3.565 -0.1357 -0.3152 -0.4004
  177DOPC   C2221621   6.025   6.612   3.548  0.4285 -0.4372 -0.0202
  177DOPC   H2R21622   6.032   6.721   3.566  0.8642 -0.1850 -1.5836
  177DOPC   H2S21623   6.066   6.581   3.450  0.9034 -1.4650  0.4891
  177DOPC    C321624   5.646   6.413   3.674 -0.0112 -0.1606  0.0370
  177DOPC    HX21625   5.662   6.505   3.735 -0.3659 -0.0794  0.0069
  177DOPC    HY21626   5.709   6.333   3.718  0.6185  0.2673 -0.0522
  177DOPC   O3121627   5.512   6.361   3.673 -0.1408  0.2756 -0.5533
  177DOPC   C3121628   5.414   6.453   3.688 -1.5526 -0.1202  0.8234
  177DOPC   O3221629   5.425   6.574   3.698 -0.5263  0.1253  0.1653
  177DOPC   C3221630   5.281   6.380   3.705 -0.5172  0.6491 -0.0062
  177DOPC   H2X21631   5.233   6.373   3.605  0.7711 -0.1263 -0.6006
  177DOPC   H2Y21632   5.296   6.279   3.748 -0.4382 -0.0125 -1.5180
  177DOPC   C2321633   6.100   6.537   3.659 -0.1997 -0.1596  0.4439
  177DOPC   H3R21634   6.203   6.579   3.655 -0.1335 -0.3286  0.3990
  177DOPC   H3S21635   6.113   6.429   3.641 -1.1705 -0.6475  2.4153
  177DOPC   C2421636   6.050   6.540   3.807  0.1612  0.1477  0.0829
  177DOPC   H4R21637   5.966   6.468   3.804  0.1524  0.1711 -0.1991
  177DOPC   H4S21638   6.013   6.640   3.837  0.1604  0.2078 -0.1223
  177DOPC   C2521639   6.158   6.494   3.905  1.0133 -1.0489  0.2285
  177DOPC   H5R21640   6.246   6.561   3.893 -0.9149  1.5476 -0.4320
  177DOPC   H5S21641   6.198   6.394   3.880 -1.1366 -2.0432  0.5524
  177DOPC   C2621642   6.101   6.490   4.043  0.0171  0.0314 -0.1819
  177DOPC   H6R21643   6.030   6.405   4.047 -0.9110  0.7688 -0.7030
  177DOPC   H6S21644   6.048   6.587   4.056  2.1154  1.2654 -0.3589
  177DOPC   C2721645   6.203   6.474   4.153 -0.2556  0.1104  0.6471
  177DOPC   H7R21646   6.285   6.547   4.135  0.2017 -0.1029  1.8413
  177DOPC   H7S21647   6.249   6.373   4.149  0.5122  0.4769 -0.7273
  177DOPC   C2821648   6.139   6.511   4.292 -0.2486  0.5728 -0.0656
  177DOPC   H8R21649   6.072   6.427   4.320 -1.4016  0.9076 -1.6535
  177DOPC   H8S21650   6.071   6.597   4.278  0.2661  0.7653 -1.5774
  177DOPC   C2921651   6.226   6.557   4.405  0.5283  0.1323  0.5939
  177DOPC   H9R21652   6.282   6.647   4.378  1.0081 -0.5105 -0.6555
  177DOPC  C21021653   6.239   6.512   4.525 -0.1262 -0.0791  0.0084
  177DOPC  H10R21654   6.295   6.574   4.597 -1.7578  1.2249  0.2146
  177DOPC  C21121655   6.167   6.396   4.586  0.2431  0.5859 -0.5315
  177DOPC  H11R21656   6.218   6.299   4.568 -2.9004 -1.4467  0.7412
  177DOPC  H11S21657   6.066   6.393   4.541  0.8838  0.5682 -2.0515
  177DOPC  C21221658   6.158   6.396   4.740  0.5078 -0.3679  0.1427
  177DOPC  H12R21659   6.093   6.313   4.774 -2.9982  2.1662  0.2068
  177DOPC  H12S21660   6.087   6.474   4.776 -0.4290 -0.3180 -1.6990
  177DOPC  C21321661   6.295   6.375   4.810  0.2118 -0.3396  0.0997
  177DOPC  H13R21662   6.371   6.445   4.769 -1.0905 -0.0303 -1.9266
  177DOPC  H13S21663   6.320   6.274   4.770 -2.2847 -0.4004 -1.4709
  177DOPC  C21421664   6.290   6.373   4.962 -0.0177 -0.4400 -0.7297
  177DOPC  H14R21665   6.390   6.336   4.993  0.5748  1.6086 -0.0464
  177DOPC  H14S21666   6.208   6.308   4.998 -0.6895  0.5365 -0.4772
  177DOPC  C21521667   6.272   6.514   5.012  0.2974 -0.2916 -0.7259
  177DOPC  H15R21668   6.179   6.556   4.968 -1.0414 -2.5485 -0.2155
  177DOPC  H15S21669   6.363   6.573   4.987  0.7224 -1.0123 -0.9091
  177DOPC  C21621670   6.270   6.532   5.165  0.1363 -0.4339 -0.6882
  177DOPC  H16R21671   6.284   6.639   5.193 -2.2936  0.1901 -1.6157
  177DOPC  H16S21672   6.347   6.475   5.222  0.4980  0.9414  0.2565
  177DOPC  C21721673   6.142   6.497   5.235 -0.0944  0.3827 -0.5725
  177DOPC  H17R21674   6.134   6.387   5.246 -1.3957  0.4115 -1.0770
  177DOPC  H17S21675   6.051   6.533   5.182 -1.7916 -1.7836  0.6844
  177DOPC  C21821676   6.137   6.552   5.380 -0.3195  0.1217  0.5731
  177DOPC  H18R21677   6.034   6.553   5.421 -0.5468 -0.3660  0.0364
  177DOPC  H18S21678   6.183   6.653   5.374 -0.6818  0.2426 -0.4049
  177DOPC  H18T21679   6.211   6.500   5.445 -0.6424  0.1427  0.9579
  177DOPC   C3321680   5.182   6.470   3.788 -0.0755 -0.1866 -0.0407
  177DOPC   H3X21681   5.084   6.418   3.788  0.1196 -0.5745  0.6054
  177DOPC   H3Y21682   5.161   6.574   3.756 -1.2060 -0.6563 -0.8690
  177DOPC   C3421683   5.218   6.471   3.940  0.6460 -1.0392 -0.6387
  177DOPC   H4X21684   5.132   6.511   3.997  1.2626 -2.8588  1.7137
  177DOPC   H4Y21685   5.305   6.536   3.965 -1.7463  1.9377  0.4356
  177DOPC   C3521686   5.238   6.328   4.003  0.7824  0.4161  0.3875
  177DOPC   H5X21687   5.342   6.295   3.979  0.2832  0.0069 -1.3315
  177DOPC   H5Y21688   5.173   6.252   3.954 -0.2813 -0.3251  2.8294
  177DOPC   C3621689   5.215   6.315   4.155 -0.0748 -0.2855 -0.2172
  177DOPC   H6X21690   5.108   6.339   4.175  0.3015  1.4263 -0.0915
  177DOPC   H6Y21691   5.255   6.214   4.181  2.3149  0.8688  1.0137
  177DOPC   C3721692   5.312   6.406   4.236  0.2551 -0.0794  0.0245
  177DOPC   H7X21693   5.415   6.404   4.194 -0.4366  0.4374 -1.7750
  177DOPC   H7Y21694   5.293   6.512   4.212 -0.3429 -0.5448 -1.7072
  177DOPC   C3821695   5.313   6.371   4.384  0.0686  0.0872 -0.0441
  177DOPC   H8X21696   5.365   6.274   4.395  0.4211  0.2341 -0.3806
  177DOPC   H8Y21697   5.206   6.343   4.401 -0.9708  1.4978 -3.4296
  177DOPC   C3921698   5.357   6.475   4.483  0.3946 -0.0731 -0.4342
  177DOPC   H9X21699   5.290   6.560   4.500  1.3133  0.4921  0.4698
  177DOPC  C31021700   5.473   6.476   4.554  0.9533 -0.8974  0.3823
  177DOPC  H10X21701   5.488   6.558   4.626  0.0645 -0.4707  0.0936
  177DOPC  C31121702   5.575   6.364   4.545  0.2759  0.0725  0.7168
  177DOPC  H11X21703   5.600   6.338   4.441 -2.6135 -0.4363  0.0420
  177DOPC  H11Y21704   5.533   6.267   4.580  1.4976 -0.8670 -0.3160
  177DOPC  C31221705   5.696   6.406   4.623  0.5595  0.0616  0.0826
  177DOPC  H12X21706   5.744   6.487   4.565  0.8532 -0.3381 -0.2349
  177DOPC  H12Y21707   5.774   6.327   4.621 -0.9405 -1.4904  0.5695
  177DOPC  C31321708   5.681   6.436   4.771  0.2724 -0.1669 -0.5417
  177DOPC  H13X21709   5.599   6.509   4.789  0.1326 -0.0337 -1.6160
  177DOPC  H13Y21710   5.654   6.343   4.824 -1.0109 -0.8247 -2.2467
  177DOPC  C31421711   5.808   6.489   4.831 -1.0902  0.0762  0.0541
  177DOPC  H14X21712   5.893   6.417   4.833 -0.4473  0.8288  1.6859
  177DOPC  H14Y21713   5.832   6.574   4.764  1.5408  0.9474  1.9174
  177DOPC  C31521714   5.808   6.542   4.979 -0.0284 -0.2450  0.0047
  177DOPC  H15X21715   5.748   6.634   4.994  1.0545  0.8884 -2.1896
  177DOPC  H15Y21716   5.911   6.575   5.005 -0.3823 -0.3647  1.7036
  177DOPC  C31621717   5.776   6.433   5.081 -0.3661 -0.0458  0.3606
  177DOPC  H16X21718   5.679   6.388   5.053 -0.9864 -0.6293  3.1239
  177DOPC  H16Y21719   5.847   6.350   5.060 -0.3364  0.1333 -0.2605
  177DOPC  C31721720   5.779   6.472   5.232 -0.1512  0.0118 -0.2857
  177DOPC  H17X21721   5.858   6.547   5.253 -1.0315  1.0750 -0.7013
  177DOPC  H17Y21722   5.681   6.521   5.252 -0.3567 -1.1009  1.7164
  177DOPC  C31821723   5.793   6.355   5.331 -0.1946  1.3907  0.2109
  177DOPC  H18X21724   5.893   6.309   5.341 -0.2367  1.4554  0.9928
  177DOPC  H18Y21725   5.775   6.390   5.435 -0.3875 -5.0783  2.8215
  177DOPC  H18Z21726   5.708   6.287   5.310 -0.2212  1.3163  0.5499
  178DOPC     N21727   4.360   6.173   2.984  0.4958  0.3101 -0.2525
  178DOPC   C1221728   4.318   6.271   3.091 -0.2685 -0.0095  0.2268
  178DOPC  H12A21729   4.387   6.276   3.173  1.9032 -1.7601 -1.3515
  178DOPC  H12B21730   4.227   6.224   3.125 -0.8304  0.5123 -0.5390
  178DOPC   C1321731   4.408   6.046   3.040  0.0898 -0.7490  0.9850
  178DOPC  H13A21732   4.424   5.975   2.960 -0.6602 -0.3224  0.4487
  178DOPC  H13B21733   4.496   6.075   3.095  0.2184 -0.7417  0.7755
  178DOPC  H13C21734   4.335   6.005   3.108 -0.8897 -2.6448 -1.0905
  178DOPC   C1421735   4.458   6.237   2.887 -0.2826  1.1179  0.2908
  178DOPC  H14A21736   4.492   6.162   2.817  1.0741  2.3950 -0.4750
  178DOPC  H14B21737   4.415   6.314   2.824  1.2200 -0.3752 -2.7992
  178DOPC  H14C21738   4.551   6.275   2.925  1.6159 -2.4010 -0.3775
  178DOPC   C1521739   4.243   6.131   2.889 -0.5069  0.0163  0.5437
  178DOPC  H15A21740   4.217   6.217   2.830 -1.9819 -1.0097 -0.3642
  178DOPC  H15B21741   4.153   6.107   2.944 -1.1263  0.7459 -0.1219
  178DOPC  H15C21742   4.267   6.048   2.824 -0.0131  0.0753  0.6493
  178DOPC   C1121743   4.279   6.421   3.050 -0.5678  0.2457  0.3833
  178DOPC  H11A21744   4.244   6.486   3.134  0.0910  0.6513  0.3545
  178DOPC  H11B21745   4.364   6.476   3.003 -0.3737 -0.1322  0.2868
  178DOPC     P21746   4.026   6.402   2.998  0.4187 -0.2776  0.1100
  178DOPC   O1321747   3.962   6.289   2.923 -0.2908  0.3799 -0.4698
  178DOPC   O1421748   3.951   6.527   2.986 -0.4456 -0.1990  0.3633
  178DOPC   O1221749   4.179   6.412   2.947  0.0590  0.1377 -0.4423
  178DOPC   O1121750   4.025   6.364   3.150 -0.7725 -0.4408 -0.2545
  178DOPC    C121751   3.912   6.333   3.231  0.7000  0.4204 -0.2279
  178DOPC    HA21752   3.873   6.237   3.192 -0.2862  1.2192 -1.3011
  178DOPC    HB21753   3.828   6.405   3.219 -0.8405 -1.0821  0.9869
  178DOPC    C221754   3.960   6.321   3.378 -0.0699 -0.2813  0.2997
  178DOPC    HS21755   4.035   6.239   3.382  1.1290  0.7928  0.6923
  178DOPC   O2121756   3.853   6.295   3.467 -0.1196  0.3678  0.3277
  178DOPC   C2121757   3.825   6.162   3.475  0.6195  0.3988 -0.1156
  178DOPC   O2221758   3.900   6.069   3.466 -0.4579 -0.0540 -0.4094
  178DOPC   C2221759   3.674   6.148   3.497 -0.7511 -0.1885 -0.2541
  178DOPC   H2R21760   3.647   6.042   3.475 -3.5246  0.5892 -1.0048
  178DOPC   H2S21761   3.628   6.218   3.424  1.7382 -0.4375 -2.2170
  178DOPC    C321762   4.032   6.459   3.420  0.3438 -0.6455  0.0085
  178DOPC    HX21763   3.957   6.540   3.407  0.0643 -0.9845 -0.5306
  178DOPC    HY21764   4.118   6.462   3.349  0.5107  0.0920  0.2302
  178DOPC   O3121765   4.076   6.448   3.557  0.1490 -0.1203  0.6050
  178DOPC   C3121766   4.203   6.426   3.584 -0.1281 -0.5750  0.3594
  178DOPC   O3221767   4.294   6.440   3.500 -0.5570 -0.3438 -0.0838
  178DOPC   C3221768   4.216   6.415   3.736  1.3083  0.5999  0.2043
  178DOPC   H2X21769   4.187   6.513   3.780 -0.0509  0.4191 -0.2521
  178DOPC   H2Y21770   4.139   6.344   3.770 -0.6498  2.7974  0.6246
  178DOPC   C2321771   3.631   6.172   3.645  0.2866 -0.1548  0.0625
  178DOPC   H3R21772   3.521   6.159   3.657  0.1756  0.6340 -0.0656
  178DOPC   H3S21773   3.657   6.274   3.679 -0.1792 -0.0353  0.0623
  178DOPC   C2421774   3.690   6.069   3.739  0.0521  1.1784 -0.2610
  178DOPC   H4R21775   3.799   6.086   3.733  0.4835 -0.7961  0.9909
  178DOPC   H4S21776   3.681   5.963   3.707  0.5492  1.0531 -0.0005
  178DOPC   C2521777   3.658   6.092   3.886  0.5112 -0.3471  0.4252
  178DOPC   H5R21778   3.552   6.063   3.901  0.4616 -0.0622  0.6519
  178DOPC   H5S21779   3.680   6.198   3.912 -0.3976  0.0847 -0.5462
  178DOPC   C2621780   3.733   6.004   3.985 -0.2630  0.4196 -0.8071
  178DOPC   H6R21781   3.841   6.000   3.961 -0.3024 -2.3373 -0.7903
  178DOPC   H6S21782   3.682   5.907   3.970 -2.1672  1.2461 -0.0825
  178DOPC   C2721783   3.716   6.046   4.136 -1.0436  0.4414 -0.1385
  178DOPC   H7R21784   3.745   6.153   4.140  0.5363  0.0900 -1.4809
  178DOPC   H7S21785   3.791   5.989   4.195 -1.4988 -0.9240 -0.8143
  178DOPC   C2821786   3.575   6.011   4.200 -0.3523 -0.0436  0.4445
  178DOPC   H8R21787   3.549   5.911   4.160  0.4700 -0.8645  1.8683
  178DOPC   H8S21788   3.505   6.080   4.147  1.9069  0.9837 -1.3623
  178DOPC   C2921789   3.560   6.028   4.352 -0.2281  0.3159  0.5122
  178DOPC   H9R21790   3.520   6.127   4.378  0.8019  0.5420  1.2628
  178DOPC  C21021791   3.592   5.944   4.453 -0.2834 -0.0342 -0.3444
  178DOPC  H10R21792   3.572   5.967   4.559 -3.4313 -2.3805 -0.2993
  178DOPC  C21121793   3.650   5.807   4.426 -0.3852  0.1241  0.2172
  178DOPC  H11R21794   3.740   5.777   4.484  1.5115  1.0217 -2.1034
  178DOPC  H11S21795   3.687   5.795   4.322 -0.3481  1.0702  0.1138
  178DOPC  C21221796   3.547   5.692   4.442 -0.7288  0.2221 -0.3831
  178DOPC  H12R21797   3.575   5.602   4.385  0.4816 -0.4929  1.2554
  178DOPC  H12S21798   3.451   5.722   4.396 -0.6804  2.0314  0.5703
  178DOPC  C21321799   3.513   5.661   4.591  0.1747  0.3248 -0.4328
  178DOPC  H13R21800   3.450   5.745   4.627 -0.5684  1.9646 -4.9519
  178DOPC  H13S21801   3.599   5.643   4.659 -0.7512 -2.0283  0.2058
  178DOPC  C21421802   3.422   5.539   4.604  0.4141  0.3420  0.6581
  178DOPC  H14R21803   3.473   5.441   4.590  1.9181  1.3715 -1.6257
  178DOPC  H14S21804   3.344   5.557   4.527  1.9451  4.8697 -0.1463
  178DOPC  C21521805   3.345   5.538   4.728 -0.2136  0.0824  0.1044
  178DOPC  H15R21806   3.278   5.626   4.732 -0.5279 -0.1908  1.3195
  178DOPC  H15S21807   3.422   5.556   4.806  0.0680  0.5412 -0.2826
  178DOPC  C21621808   3.266   5.410   4.756 -0.1542  0.5697 -0.1656
  178DOPC  H16R21809   3.341   5.329   4.766 -1.7571 -1.0573 -0.6104
  178DOPC  H16S21810   3.193   5.385   4.676  0.8008 -0.5910 -0.7192
  178DOPC  C21721811   3.183   5.408   4.883  0.3076 -0.5834 -0.1177
  178DOPC  H17R21812   3.124   5.315   4.902 -0.6781 -0.1249 -0.8779
  178DOPC  H17S21813   3.103   5.484   4.872 -0.0490 -0.3768  3.0474
  178DOPC  C21821814   3.259   5.433   5.018  0.4529 -0.4440  0.9724
  178DOPC  H18R21815   3.298   5.537   5.011 -0.8200  0.0981  1.5646
  178DOPC  H18S21816   3.352   5.373   5.014  0.4872 -0.4087  1.2128
  178DOPC  H18T21817   3.208   5.402   5.112 -0.5445  1.3801  1.0898
  178DOPC   C3321818   4.355   6.387   3.792  0.3004  0.0949 -0.2929
  178DOPC   H3X21819   4.408   6.485   3.781 -0.1568  0.4321  0.4401
  178DOPC   H3Y21820   4.413   6.309   3.739  1.2701 -0.2421  1.2182
  178DOPC   C3421821   4.358   6.357   3.939  0.2762  0.1245 -0.2546
  178DOPC   H4X21822   4.317   6.254   3.941  0.7014 -0.0448 -0.0297
  178DOPC   H4Y21823   4.286   6.418   3.998 -0.2962 -0.8982  0.1282
  178DOPC   C3521824   4.503   6.352   3.991  0.3099  0.2728 -0.0415
  178DOPC   H5X21825   4.550   6.452   4.003  0.2497  0.2870  0.0770
  178DOPC   H5Y21826   4.575   6.286   3.939  1.8169  0.9054  1.1329
  178DOPC   C3621827   4.497   6.293   4.141  0.2392  0.6691 -0.4978
  178DOPC   H6X21828   4.439   6.200   4.126  1.1322 -0.1896  1.1386
  178DOPC   H6Y21829   4.597   6.268   4.184 -0.3466 -0.3859  0.2932
  178DOPC   C3721830   4.417   6.383   4.238 -0.4325 -0.0211  0.1461
  178DOPC   H7X21831   4.480   6.474   4.250  1.8334 -1.5157  0.1887
  178DOPC   H7Y21832   4.321   6.406   4.188  0.3291  0.3462 -1.2070
  178DOPC   C3821833   4.399   6.315   4.375  0.0508  0.6926 -0.2227
  178DOPC   H8X21834   4.321   6.236   4.378 -0.6862  1.3405 -1.3269
  178DOPC   H8Y21835   4.341   6.381   4.443 -0.6823  1.2815 -1.3890
  178DOPC   C3921836   4.523   6.262   4.448 -0.0750  0.2962 -0.4006
  178DOPC   H9X21837   4.578   6.184   4.393  0.0093  1.0407 -1.4101
  178DOPC  C31021838   4.564   6.305   4.574  0.3907 -0.2367  0.0789
  178DOPC  H10X21839   4.637   6.247   4.632 -0.0177 -0.9729 -0.1311
  178DOPC  C31121840   4.491   6.406   4.660 -0.3374  0.4637  0.4199
  178DOPC  H11X21841   4.381   6.402   4.654 -0.2417 -0.7851 -2.4193
  178DOPC  H11Y21842   4.530   6.504   4.624  0.2173  0.3364  0.6566
  178DOPC  C31221843   4.544   6.401   4.803  0.5472  0.4173  0.4952
  178DOPC  H12X21844   4.654   6.399   4.813  0.4269  1.9512  3.4951
  178DOPC  H12Y21845   4.512   6.311   4.860  2.0762  1.5916  3.4324
  178DOPC  C31321846   4.481   6.507   4.892  0.1043  0.3318  0.5702
  178DOPC  H13X21847   4.515   6.608   4.858 -0.2636 -0.7482 -3.4695
  178DOPC  H13Y21848   4.372   6.488   4.894 -0.0187  0.7300 -1.0012
  178DOPC  C31421849   4.548   6.492   5.030 -0.5472 -0.5454  0.0316
  178DOPC  H14X21850   4.506   6.402   5.080 -1.7335 -1.0529 -1.7543
  178DOPC  H14Y21851   4.658   6.478   5.030 -0.3390  0.9182  0.8678
  178DOPC  C31521852   4.514   6.592   5.139 -0.4055  0.0329 -0.2068
  178DOPC  H15X21853   4.529   6.694   5.097 -1.9537  0.5887  0.4847
  178DOPC  H15Y21854   4.580   6.595   5.228  0.1287  0.4327 -0.6160
  178DOPC  C31621855   4.370   6.577   5.187 -0.6314 -0.2185 -0.4268
  178DOPC  H16X21856   4.323   6.559   5.088  2.6649 -2.0044 -1.8560
  178DOPC  H16Y21857   4.359   6.487   5.250  1.7623 -0.7487 -0.6656
  178DOPC  C31721858   4.306   6.701   5.253  0.3670 -0.3293 -0.3622
  178DOPC  H17X21859   4.305   6.787   5.183  1.2246  1.1118  1.3315
  178DOPC  H17Y21860   4.205   6.673   5.290  0.2977 -1.4585 -1.3018
  178DOPC  C31821861   4.385   6.738   5.374  0.4958 -0.0326 -0.2684
  178DOPC  H18X21862   4.326   6.817   5.426  0.7503  0.0756 -0.1456
  178DOPC  H18Y21863   4.394   6.646   5.434  1.8373  0.0274 -0.3655
  178DOPC  H18Z21864   4.480   6.789   5.347 -0.9000  2.4219 -0.9620
  179DOPC     N21865   6.916   6.528   2.798 -0.0130  0.2976  0.0710
  179DOPC   C1221866   6.844   6.403   2.843  0.3616  0.5999 -0.1109
  179DOPC  H12A21867   6.905   6.313   2.843  1.4618  1.3241  0.0840
  179DOPC  H12B21868   6.766   6.381   2.772 -1.1934  0.9914  1.4194
  179DOPC   C1321869   6.992   6.597   2.903  0.2359  0.4541  0.5737
  179DOPC  H13A21870   7.035   6.692   2.875 -0.1624  0.0316 -1.6465
  179DOPC  H13B21871   6.941   6.595   2.998  0.1464 -1.9796  0.5443
  179DOPC  H13C21872   7.078   6.537   2.931 -0.3592  0.2952  2.1704
  179DOPC   C1421873   6.812   6.625   2.746  0.2190 -0.5026 -0.7337
  179DOPC  H14A21874   6.753   6.578   2.669 -1.8267  0.3663  0.2363
  179DOPC  H14B21875   6.746   6.671   2.818  2.3181  0.3907  0.7371
  179DOPC  H14C21876   6.866   6.707   2.701 -0.3741  0.5181  0.3582
  179DOPC   C1521877   7.012   6.492   2.685  0.1637  0.3149  0.0026
  179DOPC  H15A21878   7.081   6.419   2.726 -1.7518 -1.5270  0.1057
  179DOPC  H15B21879   7.074   6.578   2.664 -0.5260  0.6873 -0.5752
  179DOPC  H15C21880   6.961   6.445   2.602  0.1854 -0.6513  0.5264
  179DOPC   C1121881   6.781   6.405   2.982 -0.2329 -0.7474  0.0341
  179DOPC  H11A21882   6.729   6.500   3.006  1.0898 -0.3044  1.3185
  179DOPC  H11B21883   6.707   6.324   2.998  1.0139 -1.9359  0.0059
  179DOPC     P21884   6.943   6.243   3.108  0.1967 -0.0368 -0.2963
  179DOPC   O1321885   7.059   6.249   3.198 -0.0038  0.1060 -0.3568
  179DOPC   O1421886   6.950   6.167   2.980 -1.2728 -0.6960 -0.2709
  179DOPC   O1221887   6.888   6.392   3.078 -0.1935  0.2189 -0.4090
  179DOPC   O1121888   6.815   6.189   3.186  0.4310  0.2554 -0.0325
  179DOPC    C121889   6.737   6.267   3.277 -0.1540  0.0879  0.7836
  179DOPC    HA21890   6.631   6.269   3.244 -0.2974  0.0266  1.2390
  179DOPC    HB21891   6.779   6.369   3.295 -1.2771  0.4822  1.2628
  179DOPC    C221892   6.738   6.197   3.417 -0.1422  0.1592 -0.0338
  179DOPC    HS21893   6.698   6.095   3.401  0.0298  0.0850  0.0081
  179DOPC   O2121894   6.647   6.270   3.503 -0.4883  0.4246  0.1992
  179DOPC   C2121895   6.560   6.199   3.584  0.4902 -0.5450 -0.4238
  179DOPC   O2221896   6.559   6.079   3.596 -0.0047 -0.0152  0.2850
  179DOPC   C2221897   6.452   6.297   3.631  0.0104  0.6438 -0.2115
  179DOPC   H2R21898   6.350   6.253   3.623  0.2049  0.4076 -1.6981
  179DOPC   H2S21899   6.445   6.372   3.549 -0.9130  0.5745 -0.2019
  179DOPC    C321900   6.873   6.185   3.484 -0.2110 -0.1165  0.0540
  179DOPC    HX21901   6.910   6.290   3.485 -0.1329 -0.1430  0.0376
  179DOPC    HY21902   6.949   6.128   3.426  3.3155  1.0125  3.1504
  179DOPC   O3121903   6.870   6.122   3.613  0.3930  0.3842  0.1867
  179DOPC   C3121904   6.859   5.997   3.616 -0.0860 -0.1273 -0.1761
  179DOPC   O3221905   6.849   5.920   3.524 -0.3546 -0.2355 -0.3584
  179DOPC   C3221906   6.823   5.963   3.763 -0.1260 -0.1340 -0.7447
  179DOPC   H2X21907   6.924   5.968   3.810 -0.8766  1.1506  0.8306
  179DOPC   H2Y21908   6.754   6.041   3.800 -0.2969  0.2052 -1.7699
  179DOPC   C2321909   6.478   6.350   3.767 -0.0929  0.0916 -0.0875
  179DOPC   H3R21910   6.384   6.402   3.795 -0.5966 -0.4253 -0.7694
  179DOPC   H3S21911   6.568   6.416   3.770 -0.1824  0.3362 -1.7203
  179DOPC   C2421912   6.504   6.243   3.870  0.2141  0.1572 -0.3592
  179DOPC   H4R21913   6.586   6.174   3.843  0.3760  0.3034 -0.2419
  179DOPC   H4S21914   6.411   6.183   3.885 -0.0274  0.2977 -1.2384
  179DOPC   C2521915   6.523   6.317   4.012 -0.5289 -0.1520 -0.7270
  179DOPC   H5R21916   6.442   6.391   4.029  0.2708  0.4556  0.6310
  179DOPC   H5S21917   6.613   6.382   4.005 -1.6513  1.5632 -0.0374
  179DOPC   C2621918   6.524   6.211   4.124  0.0069  0.6370 -0.9813
  179DOPC   H6R21919   6.613   6.144   4.113 -0.4417  0.0831 -1.2947
  179DOPC   H6S21920   6.433   6.148   4.126  0.7201 -0.4109 -0.6135
  179DOPC   C2721921   6.514   6.292   4.266 -0.1225  0.0369 -0.1710
  179DOPC   H7R21922   6.408   6.325   4.264 -0.0167  0.4039 -2.3713
  179DOPC   H7S21923   6.573   6.384   4.246 -0.1867  0.2246  0.4758
  179DOPC   C2821924   6.533   6.202   4.389 -0.1650  0.1537  0.0283
  179DOPC   H8R21925   6.494   6.099   4.379 -0.9539  0.4493  0.0389
  179DOPC   H8S21926   6.486   6.256   4.474 -0.7518 -0.1278 -0.1133
  179DOPC   C2921927   6.688   6.201   4.406 -0.1306  0.5862  0.1639
  179DOPC   H9R21928   6.731   6.160   4.313  0.4625  2.9744 -0.6836
  179DOPC  C21021929   6.768   6.261   4.499  0.6534 -0.8567  0.1566
  179DOPC  H10R21930   6.876   6.240   4.503  1.3993  2.2660 -0.7008
  179DOPC  C21121931   6.717   6.342   4.616 -0.3809 -0.4073  0.5851
  179DOPC  H11R21932   6.619   6.383   4.583 -0.4005 -2.9115 -3.1617
  179DOPC  H11S21933   6.780   6.433   4.626 -0.0794 -0.3939 -1.0382
  179DOPC  C21221934   6.709   6.273   4.761  0.5981  0.5001  0.0613
  179DOPC  H12R21935   6.795   6.204   4.774 -0.0564 -0.7305 -1.7618
  179DOPC  H12S21936   6.618   6.210   4.769 -0.4117  2.0100  0.9145
  179DOPC  C21321937   6.705   6.386   4.866 -0.3267  0.0558  0.1950
  179DOPC  H13R21938   6.606   6.435   4.877  0.3888  1.7050 -0.5052
  179DOPC  H13S21939   6.768   6.468   4.826 -0.4131  0.2353  0.4254
  179DOPC  C21421940   6.758   6.344   5.007  0.4320  0.5066  0.5417
  179DOPC  H14R21941   6.862   6.306   5.003 -1.4190 -5.6012 -0.4402
  179DOPC  H14S21942   6.698   6.258   5.045 -1.1986  1.9932  1.5222
  179DOPC  C21521943   6.756   6.454   5.103 -0.0932 -0.8209 -0.4514
  179DOPC  H15R21944   6.667   6.520   5.090  1.1953  0.9151 -0.8829
  179DOPC  H15S21945   6.846   6.516   5.082 -0.1465 -1.1415 -1.6828
  179DOPC  C21621946   6.760   6.408   5.252 -0.0536 -0.2162 -0.0497
  179DOPC  H16R21947   6.688   6.326   5.269 -0.2066 -0.0772 -0.0239
  179DOPC  H16S21948   6.722   6.489   5.319  0.8205  0.9773 -0.9370
  179DOPC  C21721949   6.904   6.370   5.296  0.7694 -0.1696  0.2508
  179DOPC  H17R21950   6.962   6.465   5.301 -1.2780  1.1705 -0.2065
  179DOPC  H17S21951   6.945   6.299   5.221  0.2812 -0.4082  0.2104
  179DOPC  C21821952   6.904   6.304   5.433 -0.5919  0.2234 -0.5043
  179DOPC  H18R21953   6.866   6.369   5.515 -1.6867  2.4061 -2.6290
  179DOPC  H18S21954   7.011   6.280   5.452 -0.4381  1.7601  0.7836
  179DOPC  H18T21955   6.833   6.220   5.422 -1.9900  1.0685  1.4191
  179DOPC   C3321956   6.766   5.819   3.771  0.2160 -0.3381 -0.3003
  179DOPC   H3X21957   6.846   5.745   3.750  1.3714  1.1601 -1.4820
  179DOPC   H3Y21958   6.689   5.811   3.692 -0.5596  1.6208  0.1964
  179DOPC   C3421959   6.710   5.776   3.906  0.1264  0.3521 -0.3326
  179DOPC   H4X21960   6.711   5.666   3.919  0.6089  0.5478  1.5097
  179DOPC   H4Y21961   6.603   5.808   3.913 -0.6693 -2.1603 -0.0031
  179DOPC   C3521962   6.800   5.829   4.017 -0.6610 -0.1874 -0.2735
  179DOPC   H5X21963   6.784   5.939   4.015  2.5057  0.3672 -0.6451
  179DOPC   H5Y21964   6.901   5.809   3.974 -0.1336 -0.1814  0.9186
  179DOPC   C3621965   6.767   5.776   4.153  0.1768 -0.6532  0.7302
  179DOPC   H6X21966   6.778   5.666   4.156  0.1113 -0.7429 -1.0170
  179DOPC   H6Y21967   6.844   5.818   4.221 -2.3602  2.6533  1.8530
  179DOPC   C3721968   6.631   5.813   4.209  0.1093 -0.4747 -0.7721
  179DOPC   H7X21969   6.617   5.922   4.194 -1.8765 -0.5763  0.0036
  179DOPC   H7Y21970   6.556   5.758   4.148 -1.6920  2.2262 -1.1890
  179DOPC   C3821971   6.618   5.790   4.366 -0.4728  0.4742 -0.7837
  179DOPC   H8X21972   6.680   5.863   4.422  1.4914 -0.9747 -0.9785
  179DOPC   H8Y21973   6.658   5.689   4.390  1.7021  1.1704 -1.2453
  179DOPC   C3921974   6.472   5.802   4.397  0.2017 -0.1591 -0.0662
  179DOPC   H9X21975   6.405   5.758   4.322  0.0389 -0.6198  0.3397
  179DOPC  C31021976   6.415   5.860   4.503  0.4638  0.3203 -0.5689
  179DOPC  H10X21977   6.306   5.851   4.502  0.5013 -0.3975 -2.1187
  179DOPC  C31121978   6.485   5.926   4.619  0.3419 -0.2340  0.7137
  179DOPC  H11X21979   6.441   6.027   4.631 -2.5968 -1.5409  2.0120
  179DOPC  H11Y21980   6.591   5.947   4.593 -0.0142  1.8524  0.7907
  179DOPC  C31221981   6.461   5.864   4.752  0.1983 -0.5900  0.7399
  179DOPC  H12X21982   6.478   5.755   4.741  3.6072  0.0411 -1.7925
  179DOPC  H12Y21983   6.356   5.886   4.782  0.4906  1.2184  0.5273
  179DOPC  C31321984   6.546   5.928   4.863  0.3828  0.2457 -0.0011
  179DOPC  H13X21985   6.648   5.966   4.840 -0.5126  2.2926 -0.8283
  179DOPC  H13Y21986   6.510   6.022   4.910  1.7353  0.8684 -0.1553
  179DOPC  C31421987   6.557   5.825   4.977 -0.3896  0.0941 -0.0719
  179DOPC  H14X21988   6.597   5.881   5.065 -2.2094  0.9690  0.2516
  179DOPC  H14Y21989   6.457   5.780   4.996 -0.8293  1.3291  0.6129
  179DOPC  C31521990   6.657   5.705   4.950 -0.8011  0.5739 -0.1483
  179DOPC  H15X21991   6.753   5.755   4.922 -0.8920  0.6629 -0.2964
  179DOPC  H15Y21992   6.630   5.647   4.860 -3.9963  0.6559  0.6534
  179DOPC  C31621993   6.706   5.607   5.063  0.0379 -0.0343 -0.6584
  179DOPC  H16X21994   6.740   5.658   5.156 -1.1311  0.7252 -0.6275
  179DOPC  H16Y21995   6.622   5.542   5.094  0.5351  0.2352  1.3940
  179DOPC  C31721996   6.812   5.508   5.014 -0.0301  0.3765 -0.0959
  179DOPC  H17X21997   6.768   5.443   4.936 -0.6058 -1.7792  1.9046
  179DOPC  H17Y21998   6.893   5.569   4.968  0.4110  1.5502  2.1121
  179DOPC  C31821999   6.858   5.423   5.139  0.3493 -0.7629  0.7805
  179DOPC  H18X22000   6.909   5.474   5.224  0.7581  1.0622 -0.4958
  179DOPC  H18Y22001   6.774   5.369   5.187  0.5910 -0.7200  1.2609
  179DOPC  H18Z22002   6.928   5.354   5.088 -2.0164 -3.4522  0.9272
  180DOPC     N22003   7.043   2.790   3.123  0.1162  0.1150  0.6372
  180DOPC   C1222004   7.092   2.932   3.113  0.6911  0.3317 -0.3510
  180DOPC  H12A22005   7.083   2.976   3.211  0.8922 -2.3568  0.9630
  180DOPC  H12B22006   7.015   2.976   3.052 -0.1272  0.1944  0.5653
  180DOPC   C1322007   7.022   2.729   2.991 -0.2271 -0.1670  0.4928
  180DOPC  H13A22008   6.948   2.781   2.932  0.5788  0.1161 -0.2883
  180DOPC  H13B22009   7.111   2.722   2.929  0.9717  3.2869  1.5950
  180DOPC  H13C22010   6.992   2.627   3.006  0.2128 -0.6765 -1.6813
  180DOPC   C1422011   6.914   2.794   3.195 -0.6381  0.4110 -0.4092
  180DOPC  H14A22012   6.856   2.703   3.188 -1.9280  1.1242  0.6706
  180DOPC  H14B22013   6.916   2.824   3.298  2.5850  1.4533 -0.6722
  180DOPC  H14C22014   6.853   2.870   3.149 -1.9342  1.3136  2.5610
  180DOPC   C1522015   7.135   2.697   3.198 -0.1858 -0.5349 -0.3182
  180DOPC  H15A22016   7.101   2.596   3.187  2.0419 -1.1656 -1.9659
  180DOPC  H15B22017   7.141   2.732   3.301 -0.9535 -2.1073  0.2805
  180DOPC  H15C22018   7.236   2.707   3.162 -0.4610  2.1137 -0.5949
  180DOPC   C1122019   7.233   2.956   3.056 -0.4098 -0.3805  0.5478
  180DOPC  H11A22020   7.239   2.914   2.953 -0.8049  2.4285 -0.7148
  180DOPC  H11B22021   7.250   3.064   3.037  2.7467 -1.0410 -1.1581
  180DOPC     P22022   7.378   2.972   3.276  0.0158 -0.2427  0.1278
  180DOPC   O1322023   7.457   3.091   3.247 -0.2316 -0.2911  0.1088
  180DOPC   O1422024   7.441   2.883   3.370 -0.1497 -0.7741 -0.0496
  180DOPC   O1222025   7.343   2.907   3.140 -0.4944 -0.2098 -0.4778
  180DOPC   O1122026   7.238   3.008   3.341  0.0583  0.0899 -0.7923
  180DOPC    C122027   7.203   3.124   3.409  0.5480  0.0356 -0.1846
  180DOPC    HA22028   7.099   3.123   3.450 -0.1569 -0.1463 -1.8978
  180DOPC    HB22029   7.221   3.206   3.336  0.9205 -1.3006 -1.6318
  180DOPC    C222030   7.295   3.154   3.528 -0.2012  0.5556 -0.0636
  180DOPC    HS22031   7.397   3.157   3.484 -0.6745  1.6783 -1.1337
  180DOPC   O2122032   7.284   3.047   3.621  0.1596  0.0185 -0.1687
  180DOPC   C2122033   7.375   3.043   3.715  0.0771  0.0600  0.5610
  180DOPC   O2222034   7.482   3.103   3.722 -0.3570  0.2960 -0.5301
  180DOPC   C2222035   7.322   2.955   3.828  0.8377  0.4732 -1.3160
  180DOPC   H2R22036   7.361   3.007   3.918  0.7783 -0.0231 -1.0009
  180DOPC   H2S22037   7.381   2.861   3.826 -0.6394 -0.6159  1.3993
  180DOPC    C322038   7.258   3.291   3.597  0.3940 -0.4463  0.2798
  180DOPC    HX22039   7.259   3.354   3.505 -0.5855 -1.0317 -0.1428
  180DOPC    HY22040   7.346   3.321   3.657 -0.6986  2.6284  0.5414
  180DOPC   O3122041   7.133   3.271   3.660  0.2327 -1.2883 -0.0041
  180DOPC   C3122042   7.050   3.361   3.641  0.4591 -0.0681  0.3505
  180DOPC   O3222043   7.054   3.448   3.557  0.1398  0.1273  0.4375
  180DOPC   C3222044   6.943   3.343   3.753 -0.3517 -0.6857  0.0778
  180DOPC   H2X22045   6.888   3.249   3.729  1.8241 -1.4062 -2.5472
  180DOPC   H2Y22046   7.003   3.309   3.840  0.7040  0.3179 -0.2424
  180DOPC   C2322047   7.166   2.940   3.830  0.3048 -0.2116  0.8246
  180DOPC   H3R22048   7.149   2.869   3.747 -2.7559  0.8011  0.4510
  180DOPC   H3S22049   7.118   3.037   3.807 -0.4887 -0.3145  1.9337
  180DOPC   C2422050   7.120   2.906   3.967  0.2046 -0.4864 -0.2327
  180DOPC   H4R22051   7.148   3.001   4.018 -1.6037 -0.1717  0.2429
  180DOPC   H4S22052   7.166   2.819   4.018  0.6629  0.3745  0.8697
  180DOPC   C2522053   6.969   2.889   3.968  0.5715 -0.2418  0.3681
  180DOPC   H5R22054   6.938   2.828   3.881  0.7708  0.5940 -0.3114
  180DOPC   H5S22055   6.907   2.980   3.954 -3.0119 -2.4674  0.5536
  180DOPC   C2622056   6.916   2.808   4.086 -0.2680 -0.1801  0.2278
  180DOPC   H6R22057   6.990   2.735   4.124 -0.4764  0.9522  2.9918
  180DOPC   H6S22058   6.824   2.757   4.048 -0.9141  1.7559 -0.9715
  180DOPC   C2722059   6.867   2.898   4.201 -0.2538  0.2689 -0.1680
  180DOPC   H7R22060   6.794   2.972   4.163 -0.0078  0.6726  0.1445
  180DOPC   H7S22061   6.959   2.943   4.245  0.3995  2.1241 -3.0964
  180DOPC   C2822062   6.788   2.817   4.308 -0.0001  0.2552 -0.0865
  180DOPC   H8R22063   6.741   2.889   4.379  0.8931 -0.7567  1.5970
  180DOPC   H8S22064   6.855   2.753   4.369 -0.6199 -2.9712 -2.5523
  180DOPC   C2922065   6.670   2.735   4.273  0.1117 -0.0626  0.3017
  180DOPC   H9R22066   6.631   2.739   4.170 -2.0697 -2.0655  0.9398
  180DOPC  C21022067   6.602   2.650   4.357 -0.0911 -0.0291  0.2734
  180DOPC  H10R22068   6.503   2.614   4.325 -0.5674  1.0810  0.4423
  180DOPC  C21122069   6.634   2.631   4.510 -0.3205 -0.1872  1.1035
  180DOPC  H11R22070   6.744   2.641   4.522 -0.1440  2.5861 -1.5890
  180DOPC  H11S22071   6.603   2.529   4.541  1.2210 -0.7878  0.7447
  180DOPC  C21222072   6.570   2.724   4.614 -0.0611  0.4078  0.0105
  180DOPC  H12R22073   6.460   2.714   4.608  0.1019 -0.8022 -2.3247
  180DOPC  H12S22074   6.605   2.825   4.583  1.1224 -0.4106 -1.5163
  180DOPC  C21322075   6.618   2.695   4.757  1.0971 -0.2523 -0.2480
  180DOPC  H13R22076   6.729   2.698   4.762  1.2547  0.2600 -2.6587
  180DOPC  H13S22077   6.578   2.596   4.787 -1.4902  0.5403 -0.7800
  180DOPC  C21422078   6.555   2.803   4.853 -0.5021  0.6642  0.0595
  180DOPC  H14R22079   6.446   2.784   4.852 -0.6945  0.8602 -4.5616
  180DOPC  H14S22080   6.571   2.903   4.806  2.7508 -0.7043 -2.1331
  180DOPC  C21522081   6.597   2.807   5.002  0.3618  0.3338 -0.0293
  180DOPC  H15R22082   6.563   2.900   5.052 -2.1876 -0.5721  0.1044
  180DOPC  H15S22083   6.708   2.806   5.009  0.3080 -1.9306  2.3703
  180DOPC  C21622084   6.545   2.684   5.078 -0.4508 -0.3452  0.6973
  180DOPC  H16R22085   6.563   2.590   5.023 -4.4865 -0.3844 -0.9076
  180DOPC  H16S22086   6.435   2.701   5.073 -0.4930 -0.6552  0.5545
  180DOPC  C21722087   6.603   2.679   5.219  0.1835 -0.8481  0.1032
  180DOPC  H17R22088   6.604   2.780   5.265 -0.9787 -1.2604  1.0795
  180DOPC  H17S22089   6.712   2.662   5.205  0.8252  3.0231 -0.9389
  180DOPC  C21822090   6.534   2.577   5.305  0.3555  0.1076  0.7617
  180DOPC  H18R22091   6.437   2.619   5.339  0.4077 -0.9532  2.3245
  180DOPC  H18S22092   6.581   2.527   5.392  0.4981 -0.4653  0.3620
  180DOPC  H18T22093   6.509   2.490   5.240 -1.0388 -0.1309  1.5725
  180DOPC   C3322094   6.859   3.464   3.769  0.4704 -0.3892  0.4473
  180DOPC   H3X22095   6.815   3.500   3.674 -1.0415  3.5469  2.4320
  180DOPC   H3Y22096   6.923   3.545   3.810 -0.7740  1.8844 -1.7784
  180DOPC   C3422097   6.741   3.454   3.865 -0.3647  0.4424  0.1059
  180DOPC   H4X22098   6.764   3.385   3.948  0.0732  1.0883  0.5338
  180DOPC   H4Y22099   6.648   3.413   3.820 -1.0797  2.0176  0.0695
  180DOPC   C3522100   6.692   3.584   3.930 -0.3236 -0.3331 -0.0993
  180DOPC   H5X22101   6.598   3.556   3.982 -0.2180  1.1038  0.9274
  180DOPC   H5Y22102   6.665   3.653   3.848  0.5873 -1.4079 -1.3592
  180DOPC   C3622103   6.790   3.648   4.023 -1.1595  0.1876 -0.6207
  180DOPC   H6X22104   6.815   3.569   4.097 -2.0901  0.7381  0.3094
  180DOPC   H6Y22105   6.884   3.680   3.973 -0.7249 -0.2563 -0.0961
  180DOPC   C3722106   6.739   3.770   4.102 -0.5322 -0.0396 -0.5177
  180DOPC   H7X22107   6.684   3.835   4.031 -0.7593 -0.8664 -1.1117
  180DOPC   H7Y22108   6.676   3.729   4.184  0.8969  0.1590  0.7256
  180DOPC   C3822109   6.844   3.844   4.182  0.6003  0.4376  0.3641
  180DOPC   H8X22110   6.798   3.909   4.260  1.0029 -0.1309  1.0885
  180DOPC   H8Y22111   6.898   3.918   4.119  0.2108 -0.2533 -0.7942
  180DOPC   C3922112   6.947   3.763   4.247 -0.2164 -0.4147  0.7113
  180DOPC   H9X22113   7.039   3.743   4.190 -2.4168 -4.9510 -1.8170
  180DOPC  C31022114   6.940   3.715   4.376  0.7042 -0.5450  0.2792
  180DOPC  H10X22115   7.019   3.657   4.425  0.4899 -0.2938  0.9344
  180DOPC  C31122116   6.822   3.729   4.469 -0.5160 -0.5331 -0.2671
  180DOPC  H11X22117   6.735   3.779   4.420 -0.5508 -0.1876  0.1368
  180DOPC  H11Y22118   6.853   3.796   4.552 -2.6851  0.5009 -0.2148
  180DOPC  C31222119   6.780   3.587   4.528 -0.1075  0.1213 -0.7347
  180DOPC  H12X22120   6.712   3.604   4.614  2.0238  1.3739  0.7716
  180DOPC  H12Y22121   6.872   3.538   4.566 -0.6292 -0.5442 -0.3111
  180DOPC  C31322122   6.714   3.495   4.426 -0.1306  0.1527  0.1986
  180DOPC  H13X22123   6.629   3.554   4.385 -0.2587  0.0993  0.3881
  180DOPC  H13Y22124   6.782   3.481   4.339  1.5710  2.3848  1.1009
  180DOPC  C31422125   6.648   3.360   4.476  0.2290 -0.6131  0.1869
  180DOPC  H14X22126   6.556   3.393   4.529  0.4012  1.8087 -0.9113
  180DOPC  H14Y22127   6.621   3.309   4.381 -0.7490  1.1581 -0.5210
  180DOPC  C31522128   6.759   3.278   4.555  0.6553 -0.4061  0.1650
  180DOPC  H15X22129   6.783   3.324   4.653  1.0685 -0.9467  0.3183
  180DOPC  H15Y22130   6.847   3.286   4.488 -0.2413  2.9922 -0.8046
  180DOPC  C31622131   6.719   3.131   4.573  0.1245  0.2962  0.2531
  180DOPC  H16X22132   6.642   3.119   4.652  2.8991  1.6664  3.4367
  180DOPC  H16Y22133   6.695   3.079   4.477 -0.0646  1.9101 -0.6143
  180DOPC  C31722134   6.838   3.048   4.625  0.1842 -0.1040  0.9411
  180DOPC  H17X22135   6.807   2.943   4.605 -0.9106  0.4134 -0.2055
  180DOPC  H17Y22136   6.926   3.072   4.563  0.3174 -0.3914  1.0174
  180DOPC  C31822137   6.877   3.058   4.774 -0.2587  0.1667 -0.0694
  180DOPC  H18X22138   6.794   3.040   4.845  1.7768  1.2269  2.7483
  180DOPC  H18Y22139   6.954   2.985   4.806 -0.2142  0.0010 -0.5384
  180DOPC  H18Z22140   6.914   3.162   4.791 -1.6661  1.1654 -2.4936
  181DOPC     N22141   1.021   2.751   2.899 -0.0102  0.5272  0.4954
  181DOPC   C1222142   0.884   2.685   2.889  0.2100  0.3621 -0.2414
  181DOPC  H12A22143   0.903   2.579   2.885  0.8911  0.4445  0.6164
  181DOPC  H12B22144   0.831   2.716   2.800  0.3150 -1.1899 -0.8648
  181DOPC   C1322145   1.083   2.723   3.031  0.5575 -0.1920  0.0584
  181DOPC  H13A22146   1.180   2.770   3.029  0.5741 -0.2514 -0.8850
  181DOPC  H13B22147   1.019   2.783   3.094 -1.0335  0.2730 -1.8685
  181DOPC  H13C22148   1.092   2.621   3.064 -0.3293 -0.1218  0.5468
  181DOPC   C1422149   1.005   2.895   2.881  0.8217 -0.5564 -0.3649
  181DOPC  H14A22150   0.946   2.921   2.794  1.3377  0.0296 -0.5433
  181DOPC  H14B22151   0.948   2.940   2.961  2.0212  1.8379 -0.7736
  181DOPC  H14C22152   1.102   2.941   2.871  0.0722  1.3200  0.4655
  181DOPC   C1522153   1.113   2.703   2.787 -0.6237 -0.6454 -0.8213
  181DOPC  H15A22154   1.121   2.595   2.790 -4.1201 -1.0216  0.2728
  181DOPC  H15B22155   1.211   2.748   2.788 -1.2344  0.7730  1.5088
  181DOPC  H15C22156   1.073   2.744   2.695 -1.9742 -0.2182 -0.0690
  181DOPC   C1122157   0.775   2.723   2.995 -0.2594  0.3163  0.3811
  181DOPC  H11A22158   0.745   2.826   2.969 -0.6788  0.6186  1.9128
  181DOPC  H11B22159   0.680   2.667   2.985 -0.7938  0.8218  2.1819
  181DOPC     P22160   0.772   2.782   3.245  0.4082  0.0597 -0.4220
  181DOPC   O1322161   0.628   2.823   3.216  0.1006  0.0400  0.1070
  181DOPC   O1422162   0.865   2.895   3.254 -0.2047  0.3407 -0.6755
  181DOPC   O1222163   0.826   2.686   3.131 -0.0059  0.1638 -0.2931
  181DOPC   O1122164   0.780   2.697   3.371  0.1988  0.7771 -0.3888
  181DOPC    C122165   0.905   2.663   3.430 -0.1213 -0.3356  0.2949
  181DOPC    HA22166   0.994   2.712   3.386  0.2809 -1.7678 -0.5664
  181DOPC    HB22167   0.928   2.559   3.400  0.3738 -0.6496  1.6878
  181DOPC    C222168   0.899   2.692   3.584 -0.3196  0.2930 -0.3821
  181DOPC    HS22169   1.001   2.678   3.626 -0.2373  0.2395 -0.6002
  181DOPC   O2122170   0.785   2.621   3.647  0.0089 -0.0416  0.3096
  181DOPC   C2122171   0.812   2.560   3.758 -0.5694 -0.4243 -0.0031
  181DOPC   O2222172   0.922   2.577   3.812 -0.0893 -1.0696 -0.4688
  181DOPC   C2222173   0.693   2.476   3.807 -0.0599 -0.4423  0.1157
  181DOPC   H2R22174   0.671   2.405   3.725  0.6802  1.3705 -1.7500
  181DOPC   H2S22175   0.606   2.544   3.819 -0.7985 -1.0140 -1.6610
  181DOPC    C322176   0.871   2.846   3.611  0.5431  0.2152  0.2437
  181DOPC    HX22177   0.776   2.879   3.564  0.4733 -0.2143  0.0782
  181DOPC    HY22178   0.945   2.900   3.549  0.5578 -0.0331  0.0422
  181DOPC   O3122179   0.865   2.900   3.742  0.1411 -0.3313 -0.8107
  181DOPC   C3122180   0.981   2.947   3.789  0.2208 -0.2798 -0.6961
  181DOPC   O3222181   1.091   2.936   3.743  0.0823  0.3852  0.6703
  181DOPC   C3222182   0.960   3.012   3.924 -0.0189  0.1093 -0.0982
  181DOPC   H2X22183   1.055   3.042   3.974 -0.1714  2.6609 -1.1864
  181DOPC   H2Y22184   0.903   3.104   3.900 -2.4666 -1.2880  0.0291
  181DOPC   C2322185   0.715   2.389   3.930 -0.3953 -0.4762 -0.5099
  181DOPC   H3R22186   0.748   2.443   4.021  0.6705 -0.2040 -1.0412
  181DOPC   H3S22187   0.803   2.325   3.905  0.0952 -0.6200  1.4347
  181DOPC   C2422188   0.591   2.308   3.977  0.2901  0.3856  0.6844
  181DOPC   H4R22189   0.627   2.232   4.050 -1.5930 -1.0661  0.2076
  181DOPC   H4S22190   0.552   2.251   3.890 -2.2785  1.5622  0.9790
  181DOPC   C2522191   0.475   2.390   4.050 -0.0136  0.5664  0.2501
  181DOPC   H5R22192   0.416   2.439   3.970  1.7747  0.7124 -1.0555
  181DOPC   H5S22193   0.523   2.461   4.121  0.9038  0.2952 -0.0845
  181DOPC   C2622194   0.393   2.285   4.133 -0.0626 -0.7660  0.2460
  181DOPC   H6R22195   0.305   2.332   4.182  1.4864  2.1385  0.4606
  181DOPC   H6S22196   0.458   2.244   4.212 -0.6534 -1.2342  0.4920
  181DOPC   C2722197   0.324   2.171   4.054 -0.3449 -0.1898  0.6158
  181DOPC   H7R22198   0.403   2.125   3.991 -0.3179  0.6825 -0.0020
  181DOPC   H7S22199   0.245   2.216   3.991  0.2744  0.8010  0.5219
  181DOPC   C2822200   0.265   2.066   4.143 -0.4650  0.2076 -0.2690
  181DOPC   H8R22201   0.217   2.111   4.232  1.2676  0.2642  0.6842
  181DOPC   H8S22202   0.353   2.011   4.184 -1.2340 -0.1192  1.0005
  181DOPC   C2922203   0.176   1.958   4.078  0.8546 -0.1889 -0.6875
  181DOPC   H9R22204   0.148   1.971   3.972  1.3556  0.8833 -0.7002
  181DOPC  C21022205   0.115   1.858   4.137 -0.1802 -0.3686  0.1447
  181DOPC  H10R22206   0.059   1.790   4.072 -2.9742  2.8600 -1.0559
  181DOPC  C21122207   0.118   1.819   4.283  0.0940 -0.1498  0.7278
  181DOPC  H11R22208   0.174   1.895   4.342  1.4634  1.1966 -2.1178
  181DOPC  H11S22209   0.169   1.721   4.286  1.1819  0.3004 -1.4663
  181DOPC  C21222210  -0.024   1.825   4.344  0.6806  0.0835 -0.3677
  181DOPC  H12R22211  -0.087   1.779   4.264 -0.9327 -1.7998  1.8464
  181DOPC  H12S22212  -0.049   1.931   4.361 -1.3441 -0.6837  2.0869
  181DOPC  C21322213  -0.051   1.740   4.469 -0.2826  0.5391  0.8390
  181DOPC  H13R22214  -0.015   1.637   4.444 -0.5136  0.3730  1.1786
  181DOPC  H13S22215  -0.160   1.736   4.491 -0.4690 -0.3675 -0.1534
  181DOPC  C21422216   0.021   1.789   4.593 -0.6708 -0.4260 -0.1469
  181DOPC  H14R22217  -0.014   1.891   4.619  1.2798  0.8100 -2.0790
  181DOPC  H14S22218   0.127   1.801   4.562 -0.6644 -2.4403 -1.0554
  181DOPC  C21522219  -0.005   1.700   4.717 -0.0577  0.3399 -0.7979
  181DOPC  H15R22220   0.031   1.597   4.693  1.4933  0.7267 -0.2424
  181DOPC  H15S22221  -0.111   1.692   4.747 -0.3409 -1.0306 -2.0270
  181DOPC  C21622222   0.075   1.737   4.843 -0.3858  0.5339 -0.2612
  181DOPC  H16R22223   0.061   1.839   4.884 -1.0229  0.0229  0.8433
  181DOPC  H16S22224   0.183   1.716   4.826 -1.0374 -3.1851 -0.6225
  181DOPC  C21722225   0.040   1.638   4.955 -0.5277 -0.3315  0.2946
  181DOPC  H17R22226   0.039   1.533   4.917 -0.2240 -0.2737  0.1220
  181DOPC  H17S22227  -0.061   1.667   4.991 -0.7504  1.1445 -1.4030
  181DOPC  C21822228   0.128   1.656   5.079 -0.9370  0.0241  0.0422
  181DOPC  H18R22229   0.097   1.741   5.142  1.0370  1.4253 -0.7710
  181DOPC  H18S22230   0.232   1.677   5.045 -1.2821 -0.6160 -1.4969
  181DOPC  H18T22231   0.125   1.567   5.145  3.2153  1.5160  2.6396
  181DOPC   C3322232   0.882   2.920   4.019 -0.0663 -0.1403 -0.6316
  181DOPC   H3X22233   0.801   2.861   3.972 -0.5591 -1.2796  1.5134
  181DOPC   H3Y22234   0.844   2.987   4.099  1.3151  1.6041 -1.3681
  181DOPC   C3422235   0.974   2.814   4.082  0.2141 -0.7258  0.2709
  181DOPC   H4X22236   1.058   2.862   4.138  0.0774 -0.4729  0.2572
  181DOPC   H4Y22237   1.019   2.757   3.998  0.6909 -0.4988  0.3680
  181DOPC   C3522238   0.891   2.723   4.179  0.8455  0.1301 -0.6222
  181DOPC   H5X22239   0.803   2.678   4.128  0.8009 -0.3490 -0.1272
  181DOPC   H5Y22240   0.854   2.786   4.262 -1.2101 -0.7610 -0.7976
  181DOPC   C3622241   0.970   2.610   4.247  0.1484  0.2850  0.7501
  181DOPC   H6X22242   1.031   2.552   4.174  3.5575  0.0031  3.5795
  181DOPC   H6Y22243   1.035   2.656   4.324 -1.6402  1.0106  1.9083
  181DOPC   C3722244   0.886   2.508   4.322  0.4577 -1.0849  0.4729
  181DOPC   H7X22245   0.832   2.549   4.411 -0.7261  0.1987 -0.7961
  181DOPC   H7Y22246   0.810   2.474   4.248 -0.9738  0.8691  0.9554
  181DOPC   C3822247   0.984   2.396   4.362  0.7221 -0.2132  0.2921
  181DOPC   H8X22248   1.061   2.444   4.425  1.3358 -1.5601  0.6207
  181DOPC   H8Y22249   1.033   2.357   4.270  1.3390  0.1616  0.4592
  181DOPC   C3922250   0.903   2.282   4.435 -0.3863  0.2703  0.7135
  181DOPC   H9X22251   0.814   2.245   4.382 -1.5805 -0.9587  3.3889
  181DOPC  C31022252   0.913   2.233   4.556  0.4008 -0.2935  0.4079
  181DOPC  H10X22253   0.844   2.152   4.585 -0.1541 -0.2742 -0.7739
  181DOPC  C31122254   1.013   2.274   4.656 -0.4937 -0.9743  0.0487
  181DOPC  H11X22255   1.099   2.328   4.610 -0.1526 -1.2947  0.3102
  181DOPC  H11Y22256   1.061   2.194   4.717 -4.0781 -1.9632  1.8202
  181DOPC  C31222257   0.933   2.363   4.755 -0.4094  0.2547 -0.1534
  181DOPC  H12X22258   0.929   2.457   4.694  0.7200  0.6803  0.3889
  181DOPC  H12Y22259   0.995   2.390   4.843  0.1889  1.9360 -1.0253
  181DOPC  C31322260   0.797   2.322   4.818 -0.1419  1.0043  0.6269
  181DOPC  H13X22261   0.724   2.310   4.735  0.8807 -0.2207 -0.1268
  181DOPC  H13Y22262   0.821   2.224   4.865 -1.6745  0.2753 -0.0441
  181DOPC  C31422263   0.758   2.420   4.927 -0.4478  0.2307  0.0351
  181DOPC  H14X22264   0.852   2.438   4.985 -0.1702  2.1209 -0.9343
  181DOPC  H14Y22265   0.741   2.524   4.891 -0.9065  0.0942 -0.1439
  181DOPC  C31522266   0.648   2.379   5.014  0.5146 -0.2104 -0.3341
  181DOPC  H15X22267   0.555   2.370   4.954 -1.5769  1.1350  2.4807
  181DOPC  H15Y22268   0.615   2.451   5.092 -2.6950 -0.0502 -1.7025
  181DOPC  C31622269   0.665   2.247   5.090  0.9599 -0.3863  0.1870
  181DOPC  H16X22270   0.695   2.170   5.015 -1.6408 -0.5947 -0.7270
  181DOPC  H16Y22271   0.744   2.263   5.167 -0.8716 -0.4156  2.1891
  181DOPC  C31722272   0.529   2.219   5.158  0.2739  0.1891  0.1013
  181DOPC  H17X22273   0.496   2.308   5.216  0.7479 -1.5293  3.2312
  181DOPC  H17Y22274   0.447   2.202   5.084 -2.8385 -0.6082  3.4128
  181DOPC  C31822275   0.537   2.105   5.252 -0.1166  0.2379 -0.3509
  181DOPC  H18X22276   0.433   2.084   5.284 -0.2339 -0.7164 -1.2856
  181DOPC  H18Y22277   0.560   2.016   5.188 -0.2438  0.3704 -0.5823
  181DOPC  H18Z22278   0.605   2.119   5.338  0.2390  2.6348 -0.9700
  182DOPC     N22279   1.551   0.119   2.263  0.9789  0.2411  0.0396
  182DOPC   C1222280   1.470   0.208   2.363 -0.0458 -0.8106  0.3993
  182DOPC  H12A22281   1.389   0.250   2.307  0.1782  0.4068  0.9629
  182DOPC  H12B22282   1.533   0.288   2.401  1.2383 -1.2556 -0.6974
  182DOPC   C1322283   1.649   0.039   2.334  0.4973 -0.3893  0.2882
  182DOPC  H13A22284   1.604  -0.018   2.414  1.0783  0.6995  1.4231
  182DOPC  H13B22285   1.688  -0.036   2.267 -0.7694 -1.0136  0.2152
  182DOPC  H13C22286   1.722   0.105   2.378  0.1503  0.3677 -0.2562
  182DOPC   C1422287   1.612   0.206   2.155  0.4585  0.3704 -0.3779
  182DOPC  H14A22288   1.534   0.242   2.089 -1.8549  0.7155  2.3216
  182DOPC  H14B22289   1.671   0.284   2.199 -0.4152  0.9553 -0.2101
  182DOPC  H14C22290   1.675   0.137   2.100  1.3776  0.0548  1.0255
  182DOPC   C1522291   1.446   0.034   2.188  0.1453 -0.0570 -0.4634
  182DOPC  H15A22292   1.498  -0.018   2.108  1.8399 -0.5250  0.8989
  182DOPC  H15B22293   1.366   0.096   2.150 -1.1405 -1.7369 -0.5866
  182DOPC  H15C22294   1.399  -0.040   2.250  0.8607  0.6855  1.0003
  182DOPC   C1122295   1.405   0.140   2.484  0.4479  0.2658  0.5797
  182DOPC  H11A22296   1.336   0.213   2.531  1.1683  0.1269  1.8958
  182DOPC  H11B22297   1.354   0.045   2.458  0.6369 -0.6380  3.2034
  182DOPC     P22298   1.577   0.228   2.656 -0.2762 -0.4245 -0.2614
  182DOPC   O1322299   1.525   0.352   2.607  0.0697 -0.0245  0.0142
  182DOPC   O1422300   1.721   0.208   2.648 -0.0455  0.0759 -0.0735
  182DOPC   O1222301   1.499   0.111   2.582 -0.3646  0.1954  0.4038
  182DOPC   O1122302   1.541   0.208   2.812  0.1062  0.1319 -0.1704
  182DOPC    C122303   1.489   0.089   2.874  0.2447 -0.0030  0.0702
  182DOPC    HA22304   1.396   0.048   2.829 -0.7355  0.7459  1.3560
  182DOPC    HB22305   1.457   0.114   2.977 -0.0748  2.1600 -0.5160
  182DOPC    C222306   1.601  -0.015   2.894  0.4519 -0.2099 -0.0620
  182DOPC    HS22307   1.628  -0.050   2.792 -1.8785 -0.1914 -0.7493
  182DOPC   O2122308   1.539  -0.113   2.984  0.2183  0.3830 -0.0896
  182DOPC   C2122309   1.593  -0.230   2.977 -0.3865  0.8477 -0.1922
  182DOPC   O2222310   1.687  -0.266   2.906  0.2614  0.2986  0.1766
  182DOPC   C2222311   1.494  -0.333   3.040 -0.2139  0.6124 -0.1204
  182DOPC   H2R22312   1.519  -0.435   3.003  3.1770  1.0179  0.7466
  182DOPC   H2S22313   1.396  -0.305   2.995  0.2530 -0.6219 -1.9895
  182DOPC    C322314   1.721   0.044   2.973 -0.3095  0.8440  1.4802
  182DOPC    HX22315   1.774   0.129   2.925  2.7570 -1.7022 -0.0319
  182DOPC    HY22316   1.800  -0.034   2.966  1.4354  2.6287  0.5206
  182DOPC   O3122317   1.673   0.090   3.101  0.0147  0.1997 -0.0969
  182DOPC   C3122318   1.748   0.048   3.209 -0.7969  0.1564 -0.1334
  182DOPC   O3222319   1.857  -0.008   3.199 -0.4949  0.1210  0.3008
  182DOPC   C3222320   1.684   0.083   3.342  0.7732 -0.0343  0.1187
  182DOPC   H2X22321   1.650   0.189   3.339 -0.8283 -0.4650  1.4842
  182DOPC   H2Y22322   1.593   0.019   3.344  0.6250  0.1806  0.2917
  182DOPC   C2322323   1.479  -0.340   3.187 -0.3911 -0.1586  0.5870
  182DOPC   H3R22324   1.403  -0.417   3.211  0.3633 -0.6804  1.3330
  182DOPC   H3S22325   1.449  -0.237   3.218  1.3931  0.9496 -1.0918
  182DOPC   C2422326   1.616  -0.370   3.247  0.0124  0.2385 -0.7974
  182DOPC   H4R22327   1.684  -0.284   3.228  0.1952  0.1423 -0.5796
  182DOPC   H4S22328   1.660  -0.461   3.202  0.8676  0.9556 -1.4577
  182DOPC   C2522329   1.605  -0.369   3.402  0.3217 -0.7750 -0.3203
  182DOPC   H5R22330   1.558  -0.279   3.446  0.7869  0.7087 -2.6921
  182DOPC   H5S22331   1.711  -0.368   3.434  0.2520 -1.2724 -0.0594
  182DOPC   C2622332   1.531  -0.496   3.454  0.4019 -1.1483 -0.4071
  182DOPC   H6R22333   1.573  -0.585   3.402 -1.2404 -1.8858 -0.5363
  182DOPC   H6S22334   1.421  -0.485   3.445  0.4642  1.7535  1.2032
  182DOPC   C2722335   1.556  -0.510   3.606  0.6463  0.1591  0.5064
  182DOPC   H7R22336   1.520  -0.426   3.668 -1.2704 -2.1047  2.6676
  182DOPC   H7S22337   1.666  -0.520   3.624  1.0300  2.5307 -0.1252
  182DOPC   C2822338   1.495  -0.640   3.664  0.1437  0.2321 -0.6938
  182DOPC   H8R22339   1.390  -0.655   3.629 -0.1613  0.8110 -0.0703
  182DOPC   H8S22340   1.498  -0.613   3.772  0.9773 -1.3943 -0.2855
  182DOPC   C2922341   1.576  -0.760   3.646  0.1694 -0.0511 -0.3204
  182DOPC   H9R22342   1.581  -0.793   3.542 -1.4336  2.2667 -1.2025
  182DOPC  C21022343   1.639  -0.816   3.752 -0.3314  0.8618  0.3587
  182DOPC  H10R22344   1.704  -0.902   3.732 -0.0656  1.4829 -1.7803
  182DOPC  C21122345   1.638  -0.776   3.898 -0.1966 -0.3706  0.1900
  182DOPC  H11R22346   1.557  -0.837   3.943 -0.8791  2.1406  2.6938
  182DOPC  H11S22347   1.613  -0.670   3.920  0.5173 -0.1345 -0.0985
  182DOPC  C21222348   1.773  -0.803   3.972 -0.2223 -0.3649 -0.1858
  182DOPC  H12R22349   1.767  -0.747   4.068 -2.7381 -0.7777 -0.0258
  182DOPC  H12S22350   1.863  -0.765   3.918  0.3572 -0.8829  0.4044
  182DOPC  C21322351   1.802  -0.949   4.007  0.0160  0.8339 -0.4176
  182DOPC  H13R22352   1.892  -0.965   4.070  0.0983 -0.5847 -0.8735
  182DOPC  H13S22353   1.820  -1.003   3.911  1.0019  0.0103  0.2129
  182DOPC  C21422354   1.688  -1.025   4.079 -0.6617  0.0701 -0.8646
  182DOPC  H14R22355   1.712  -1.126   4.118  0.4823  0.8088  0.4048
  182DOPC  H14S22356   1.612  -1.038   3.999 -1.3339  0.0060 -0.2187
  182DOPC  C21522357   1.635  -0.943   4.203  0.2554  0.0741  0.2810
  182DOPC  H15R22358   1.558  -1.003   4.257  1.4228 -0.5687  1.2930
  182DOPC  H15S22359   1.598  -0.841   4.178  1.7039  0.8176  1.0873
  182DOPC  C21622360   1.738  -0.912   4.310  0.1944  0.0687  0.0678
  182DOPC  H16R22361   1.685  -0.863   4.395  2.6419  1.6855  0.7494
  182DOPC  H16S22362   1.802  -0.829   4.276 -0.7494  0.8772  0.2225
  182DOPC  C21722363   1.837  -1.030   4.341 -0.0377  0.0633 -0.1710
  182DOPC  H17R22364   1.906  -1.060   4.260  1.3198 -1.3275  1.4471
  182DOPC  H17S22365   1.770  -1.118   4.355 -0.1662  0.3614  1.1668
  182DOPC  C21822366   1.911  -0.998   4.474 -0.5285 -0.5587  0.0590
  182DOPC  H18R22367   1.846  -0.984   4.563  1.6946  0.3948  1.6292
  182DOPC  H18S22368   1.975  -0.907   4.475  0.8137 -1.4460  2.4638
  182DOPC  H18T22369   1.984  -1.080   4.490 -0.1462 -0.3891 -0.7186
  182DOPC   C3322370   1.777   0.076   3.461  0.1289 -0.2622  0.5605
  182DOPC   H3X22371   1.724   0.112   3.552 -1.6315  0.7933 -0.8330
  182DOPC   H3Y22372   1.866   0.142   3.452 -0.5564  1.1069  2.8735
  182DOPC   C3422373   1.812  -0.069   3.490  0.3755 -0.6550 -0.2164
  182DOPC   H4X22374   1.879  -0.115   3.414  1.1515  2.1413 -1.3677
  182DOPC   H4Y22375   1.719  -0.129   3.484 -0.5095  0.8161 -2.8075
  182DOPC   C3522376   1.885  -0.085   3.624 -0.1709 -0.3531  0.1271
  182DOPC   H5X22377   1.844  -0.023   3.707  2.2823  1.2665  0.2394
  182DOPC   H5Y22378   1.988  -0.050   3.603  0.1630 -0.4735  1.4475
  182DOPC   C3622379   1.885  -0.236   3.667  0.4438 -0.0701  0.5235
  182DOPC   H6X22380   1.780  -0.272   3.672  0.8035 -1.9417 -2.3886
  182DOPC   H6Y22381   1.923  -0.305   3.588  2.3460 -0.6992  1.9353
  182DOPC   C3722382   1.960  -0.256   3.801  0.9305 -0.2648 -0.0201
  182DOPC   H7X22383   2.062  -0.211   3.799  0.3232  1.3607  2.0179
  182DOPC   H7Y22384   1.908  -0.198   3.880  1.6298  0.7635 -0.2903
  182DOPC   C3822385   1.955  -0.405   3.844  0.0687 -0.2667  0.0042
  182DOPC   H8X22386   2.051  -0.432   3.894  0.4434 -0.5771 -0.8726
  182DOPC   H8Y22387   1.958  -0.452   3.743  1.3862  0.4737 -0.3285
  182DOPC   C3922388   1.829  -0.435   3.918  0.9015 -0.1861 -0.3294
  182DOPC   H9X22389   1.760  -0.479   3.844  0.0288  0.0657  0.3231
  182DOPC  C31022390   1.813  -0.437   4.053  0.5127  0.0397 -0.1637
  182DOPC  H10X22391   1.712  -0.464   4.087  0.9746  0.9067  2.1273
  182DOPC  C31122392   1.927  -0.409   4.150  0.3432  0.5070 -0.3266
  182DOPC  H11X22393   1.885  -0.355   4.237 -0.8334  0.0132 -0.5760
  182DOPC  H11Y22394   2.002  -0.336   4.111  0.1426  1.5871  1.2229
  182DOPC  C31222395   1.990  -0.543   4.198 -0.4740  0.1885  0.1251
  182DOPC  H12X22396   2.036  -0.601   4.114  2.1666  2.0612  0.1294
  182DOPC  H12Y22397   1.912  -0.605   4.245 -0.0941 -1.0364 -0.8007
  182DOPC  C31322398   2.093  -0.506   4.302 -0.1869 -0.6334 -0.3910
  182DOPC  H13X22399   2.186  -0.470   4.252  1.8268 -1.9026  2.1773
  182DOPC  H13Y22400   2.045  -0.423   4.358 -1.4370 -0.1521 -2.0902
  182DOPC  C31422401   2.130  -0.622   4.409  0.2001 -0.6073 -0.0612
  182DOPC  H14X22402   2.132  -0.723   4.361  1.0308 -1.1427  1.0452
  182DOPC  H14Y22403   2.231  -0.607   4.453 -0.3172  0.1226  0.9004
  182DOPC  C31522404   2.031  -0.627   4.529  0.5001  0.5683  0.5594
  182DOPC  H15X22405   1.937  -0.654   4.478  1.7492  0.3686 -1.7643
  182DOPC  H15Y22406   2.018  -0.525   4.570 -0.0418  0.0470  1.7294
  182DOPC  C31622407   2.077  -0.701   4.652  0.1416 -0.0214  0.7142
  182DOPC  H16X22408   2.111  -0.800   4.616 -0.6463 -0.6386  1.6362
  182DOPC  H16Y22409   2.155  -0.633   4.693 -0.5987  0.8182  0.7540
  182DOPC  C31722410   1.976  -0.704   4.769 -0.3303 -0.4557 -0.4093
  182DOPC  H17X22411   2.012  -0.770   4.851  2.0114  1.1066 -0.0801
  182DOPC  H17Y22412   1.975  -0.602   4.814 -2.1363 -0.8002  0.4181
  182DOPC  C31822413   1.832  -0.732   4.719 -0.2862  0.4022  0.0196
  182DOPC  H18X22414   1.768  -0.708   4.807 -1.1142  1.5644 -0.8734
  182DOPC  H18Y22415   1.808  -0.671   4.629  1.1328  0.7769 -0.1348
  182DOPC  H18Z22416   1.813  -0.838   4.693 -0.7948  0.3287  0.6626
  183DOPC     N22417   5.698   5.332   2.794  0.0283  0.0597  0.4634
  183DOPC   C1222418   5.611   5.444   2.854 -0.5815 -0.0947 -0.5215
  183DOPC  H12A22419   5.505   5.427   2.843 -0.9345  1.5134  0.1108
  183DOPC  H12B22420   5.629   5.538   2.804 -0.9013  0.2885  0.0717
  183DOPC   C1322421   5.683   5.328   2.647 -0.1629 -0.4472  0.0569
  183DOPC  H13A22422   5.579   5.314   2.620  0.2038  1.6149 -2.9994
  183DOPC  H13B22423   5.692   5.424   2.598 -0.4128  0.1570  1.1682
  183DOPC  H13C22424   5.753   5.257   2.604 -0.7729 -0.4772 -0.9232
  183DOPC   C1422425   5.651   5.198   2.846  0.0918 -0.3745  0.0310
  183DOPC  H14A22426   5.656   5.198   2.954  0.3498  0.7328  0.0343
  183DOPC  H14B22427   5.557   5.163   2.807  0.8008 -0.3292 -1.7739
  183DOPC  H14C22428   5.719   5.127   2.801 -0.3750 -1.0853  0.4425
  183DOPC   C1522429   5.841   5.345   2.833  0.6480 -0.1774 -0.0636
  183DOPC  H15A22430   5.884   5.433   2.787 -2.0742  0.0554 -2.5091
  183DOPC  H15B22431   5.897   5.262   2.791  0.8030  0.1336 -0.4816
  183DOPC  H15C22432   5.844   5.355   2.940 -0.7523 -0.1345 -0.0036
  183DOPC   C1122433   5.636   5.484   3.000 -0.1136 -0.1770 -0.7510
  183DOPC  H11A22434   5.555   5.557   3.019 -2.7577 -3.2796  0.8559
  183DOPC  H11B22435   5.610   5.396   3.061 -1.3246  0.5514 -0.1742
  183DOPC     P22436   5.817   5.672   3.005 -0.1109  0.2344 -0.0479
  183DOPC   O1322437   5.713   5.782   2.987  0.3128  0.2316 -0.7044
  183DOPC   O1422438   5.931   5.672   2.904 -0.8197 -0.5631  0.1832
  183DOPC   O1222439   5.770   5.527   3.028  0.3645  0.3928 -0.1675
  183DOPC   O1122440   5.887   5.704   3.145  0.6181  0.4715 -0.5408
  183DOPC    C122441   5.835   5.638   3.259 -0.3406 -0.0115  1.0227
  183DOPC    HA22442   5.730   5.605   3.246 -1.4882  3.5696 -0.0947
  183DOPC    HB22443   5.824   5.709   3.344  2.5484  0.8019  0.8070
  183DOPC    C222444   5.931   5.537   3.315  0.2856  0.2820  0.6027
  183DOPC    HS22445   5.883   5.492   3.405  0.6311  1.2479  1.2925
  183DOPC   O2122446   6.055   5.608   3.347  0.4136  0.5107  0.3586
  183DOPC   C2122447   6.135   5.551   3.436 -0.3565 -0.0541  0.0832
  183DOPC   O2222448   6.104   5.460   3.510  0.3757  0.0272  0.2420
  183DOPC   C2222449   6.282   5.602   3.421  0.6522  0.2032  0.2156
  183DOPC   H2R22450   6.282   5.711   3.402  2.6675  0.2517  0.3156
  183DOPC   H2S22451   6.333   5.559   3.332  0.5525 -0.4892  0.4864
  183DOPC    C322452   5.960   5.416   3.216  0.4550 -0.0759 -0.4451
  183DOPC    HX22453   6.025   5.464   3.139 -0.6247  2.1695 -0.0494
  183DOPC    HY22454   5.863   5.381   3.174  1.5774 -2.5534 -1.1447
  183DOPC   O3122455   6.010   5.297   3.281 -0.8642  0.0115  0.0365
  183DOPC   C3122456   6.136   5.270   3.254  0.3758 -0.3041  0.1208
  183DOPC   O3222457   6.205   5.335   3.177  0.3628 -0.1798 -0.2234
  183DOPC   C3222458   6.186   5.145   3.329 -0.7162 -0.0722 -0.6977
  183DOPC   H2X22459   6.175   5.153   3.440  1.2646 -1.4116 -0.3382
  183DOPC   H2Y22460   6.129   5.061   3.284  1.6510 -0.8798 -2.4332
  183DOPC   C2322461   6.360   5.565   3.548 -0.0774  0.4259  0.2234
  183DOPC   H3R22462   6.469   5.584   3.542  0.2926 -1.5236 -0.1780
  183DOPC   H3S22463   6.359   5.454   3.560 -0.0515  0.2069 -1.5868
  183DOPC   C2422464   6.308   5.637   3.671 -0.1550 -0.7646  0.0480
  183DOPC   H4R22465   6.203   5.601   3.675  0.3074 -2.1141  1.0946
  183DOPC   H4S22466   6.311   5.747   3.657 -0.6758 -0.7912 -0.2719
  183DOPC   C2522467   6.376   5.606   3.805 -0.3548 -0.3869 -0.2423
  183DOPC   H5R22468   6.473   5.660   3.806 -0.7796  0.6052 -3.0046
  183DOPC   H5S22469   6.379   5.495   3.813 -0.1302 -0.5224 -1.8196
  183DOPC   C2622470   6.280   5.648   3.917 -0.5423 -0.8564  0.1872
  183DOPC   H6R22471   6.335   5.629   4.011 -2.0228  0.5611  1.4049
  183DOPC   H6S22472   6.190   5.584   3.933 -1.5058  0.8673  2.2167
  183DOPC   C2722473   6.235   5.795   3.915 -0.2475 -0.5664 -0.2034
  183DOPC   H7R22474   6.180   5.804   3.819  1.1460  1.0238 -0.9070
  183DOPC   H7S22475   6.322   5.863   3.902 -0.6755 -0.2358 -1.4446
  183DOPC   C2822476   6.157   5.839   4.039 -0.5539  0.1346 -0.0348
  183DOPC   H8R22477   6.215   5.812   4.130  0.1713  0.5971 -0.3492
  183DOPC   H8S22478   6.067   5.774   4.035 -1.2619  1.0325  0.7907
  183DOPC   C2922479   6.125   5.984   4.048 -0.1947  0.0204 -0.6081
  183DOPC   H9R22480   6.144   6.036   3.952 -0.8903 -1.4693 -1.5953
  183DOPC  C21022481   6.105   6.058   4.163  0.6097 -0.2242 -0.1910
  183DOPC  H10R22482   6.094   6.166   4.150  1.9120  0.0034  0.4221
  183DOPC  C21122483   6.107   6.015   4.309 -0.2521  0.0100 -0.2948
  183DOPC  H11R22484   6.136   6.093   4.383  0.4913  0.9235 -1.5008
  183DOPC  H11S22485   6.173   5.926   4.313 -2.6435 -1.8504  0.6117
  183DOPC  C21222486   5.978   5.955   4.371  0.8597  0.1845  0.4933
  183DOPC  H12R22487   5.986   5.913   4.474  0.4340 -1.6695 -0.2001
  183DOPC  H12S22488   5.951   5.867   4.310 -0.4630  1.6376 -1.1150
  183DOPC  C21322489   5.855   6.048   4.376  0.5456  0.1025  0.3975
  183DOPC  H13R22490   5.857   6.101   4.278 -0.0545 -2.8573 -1.3480
  183DOPC  H13S22491   5.857   6.113   4.466 -0.3670  0.5923  0.0734
  183DOPC  C21422492   5.721   5.980   4.369 -0.4441 -0.5431 -0.7897
  183DOPC  H14R22493   5.717   5.923   4.273 -0.5816 -0.8656 -0.5956
  183DOPC  H14S22494   5.643   6.058   4.381  1.2012  1.4463 -2.2056
  183DOPC  C21522495   5.699   5.869   4.476 -0.6981 -0.4724  0.9268
  183DOPC  H15R22496   5.748   5.902   4.570 -0.5453  1.5621  0.1641
  183DOPC  H15S22497   5.744   5.776   4.435  0.4411  0.1778  0.6638
  183DOPC  C21622498   5.551   5.841   4.512 -0.0104 -0.1280  0.3782
  183DOPC  H16R22499   5.514   5.937   4.555  0.7967 -0.2365  1.3429
  183DOPC  H16S22500   5.542   5.769   4.596  1.7874 -1.9373 -0.8928
  183DOPC  C21722501   5.472   5.784   4.396 -0.1380  0.2303 -0.3084
  183DOPC  H17R22502   5.416   5.695   4.430 -0.4080  0.6908  0.4889
  183DOPC  H17S22503   5.544   5.746   4.321 -0.2278 -0.3958 -0.0793
  183DOPC  C21822504   5.381   5.886   4.335  0.1503 -0.3033 -0.1718
  183DOPC  H18R22505   5.439   5.964   4.282  1.8004  0.9690  3.2045
  183DOPC  H18S22506   5.306   5.937   4.399  0.9679 -0.3662  0.8603
  183DOPC  H18T22507   5.319   5.835   4.259  0.2314 -0.3009 -0.2393
  183DOPC   C3322508   6.341   5.119   3.303 -0.0418  0.7139  0.5648
  183DOPC   H3X22509   6.365   5.137   3.196 -0.9224  1.9996  0.5587
  183DOPC   H3Y22510   6.357   5.010   3.316  0.2318  0.9300  2.2709
  183DOPC   C3422511   6.432   5.206   3.394  0.2413 -1.1368 -0.0363
  183DOPC   H4X22512   6.397   5.311   3.400  3.2121  0.1161 -2.2057
  183DOPC   H4Y22513   6.537   5.206   3.357 -0.2420 -0.8702 -1.4724
  183DOPC   C3522514   6.447   5.141   3.535 -0.5077  0.1850  0.7675
  183DOPC   H5X22515   6.551   5.151   3.574  0.1743 -1.3800 -0.5452
  183DOPC   H5Y22516   6.430   5.032   3.523  3.1222 -0.3734 -0.7560
  183DOPC   C3622517   6.356   5.200   3.643 -0.6228  0.2710  0.0508
  183DOPC   H6X22518   6.407   5.286   3.693  1.7519 -1.4662  0.8070
  183DOPC   H6Y22519   6.264   5.242   3.596 -0.6673  0.4384  0.2818
  183DOPC   C3722520   6.322   5.088   3.742  0.6357  0.6286  0.8209
  183DOPC   H7X22521   6.249   5.018   3.697 -0.7999  3.5820 -1.9332
  183DOPC   H7Y22522   6.410   5.030   3.776 -0.3423 -0.4427  1.5879
  183DOPC   C3822523   6.266   5.149   3.875 -0.7917  0.2202  0.5291
  183DOPC   H8X22524   6.348   5.202   3.928 -0.9503  1.5153 -0.4870
  183DOPC   H8Y22525   6.239   5.066   3.944 -2.5213  2.3516  2.5759
  183DOPC   C3922526   6.144   5.229   3.869  0.4071  0.0236  0.3409
  183DOPC   H9X22527   6.070   5.203   3.792  0.1833  1.4201  0.0473
  183DOPC  C31022528   6.112   5.322   3.961  0.5375 -0.1492  0.0792
  183DOPC  H10X22529   6.019   5.377   3.942 -0.1719 -1.7328 -1.2360
  183DOPC  C31122530   6.198   5.359   4.083 -0.0132  0.4708 -0.0647
  183DOPC  H11X22531   6.293   5.405   4.048  0.3561  0.2337  0.6147
  183DOPC  H11Y22532   6.233   5.269   4.138 -0.2216 -0.2674 -1.0985
  183DOPC  C31222533   6.128   5.455   4.182  0.0018 -0.0669 -0.2515
  183DOPC  H12X22534   6.035   5.401   4.209 -0.0490 -0.6676 -1.5545
  183DOPC  H12Y22535   6.095   5.547   4.129 -1.0539 -0.7653 -0.8475
  183DOPC  C31322536   6.215   5.493   4.302 -0.0068  0.4751  0.2124
  183DOPC  H13X22537   6.256   5.397   4.340 -1.4191 -0.0645  0.4680
  183DOPC  H13Y22538   6.296   5.553   4.255  1.0779 -2.2001 -1.5931
  183DOPC  C31422539   6.143   5.565   4.415  0.2515  0.4582 -0.0703
  183DOPC  H14X22540   6.222   5.601   4.485  0.4131 -2.5188  1.4096
  183DOPC  H14Y22541   6.094   5.650   4.364 -1.5990 -1.0536 -0.9085
  183DOPC  C31522542   6.046   5.488   4.516 -0.3141  0.1257  0.4962
  183DOPC  H15X22543   6.108   5.428   4.585  1.6063 -0.3016 -1.4921
  183DOPC  H15Y22544   5.980   5.421   4.455 -0.8272 -1.6555  2.8436
  183DOPC  C31622545   5.966   5.584   4.610 -0.5572  0.1219  0.9147
  183DOPC  H16X22546   6.039   5.652   4.660 -2.0563  3.2071 -0.7992
  183DOPC  H16Y22547   5.905   5.651   4.545  0.7511  1.5356  1.0647
  183DOPC  C31722548   5.881   5.511   4.712 -0.0637 -1.6107 -0.0981
  183DOPC  H17X22549   5.800   5.455   4.660  0.4153 -0.7553 -1.8399
  183DOPC  H17Y22550   5.941   5.437   4.769  2.3541 -0.5528 -1.1449
  183DOPC  C31822551   5.818   5.616   4.803 -0.0157 -0.2339 -0.2958
  183DOPC  H18X22552   5.785   5.567   4.898 -0.7108  0.5857 -0.1065
  183DOPC  H18Y22553   5.894   5.689   4.838  0.6339  0.8739 -3.7017
  183DOPC  H18Z22554   5.736   5.679   4.764 -0.9653 -1.0712  0.2892
  184DOPC     N22555   5.001   2.687   2.847 -0.0546  0.1324  0.7297
  184DOPC   C1222556   5.092   2.798   2.883 -0.8561 -0.3150 -0.4466
  184DOPC  H12A22557   5.029   2.886   2.875 -0.2964  0.2602  1.2033
  184DOPC  H12B22558   5.168   2.812   2.808 -0.8682  0.8951 -0.2659
  184DOPC   C1322559   4.917   2.717   2.728  0.3730 -0.1104  0.6967
  184DOPC  H13A22560   4.898   2.637   2.658  0.6991  0.6756 -0.3004
  184DOPC  H13B22561   4.829   2.768   2.764  0.1781 -1.1101  1.7163
  184DOPC  H13C22562   4.964   2.792   2.667 -3.5911  2.2099  0.1623
  184DOPC   C1422563   4.911   2.645   2.957 -0.1415  0.0227  0.3259
  184DOPC  H14A22564   4.962   2.650   3.051  1.8212  1.0336 -0.7243
  184DOPC  H14B22565   4.828   2.713   2.967  0.1669  0.5056 -0.2963
  184DOPC  H14C22566   4.862   2.550   2.944 -0.5449  0.2608  0.0654
  184DOPC   C1522567   5.090   2.568   2.831  0.3406 -0.0713 -0.6758
  184DOPC  H15A22568   5.167   2.563   2.907  1.7928  0.8245 -2.0362
  184DOPC  H15B22569   5.143   2.569   2.737 -0.0075 -0.1699 -0.8741
  184DOPC  H15C22570   5.031   2.478   2.831  1.8704 -1.1130 -0.5942
  184DOPC   C1122571   5.160   2.805   3.023  0.5930  0.7470 -0.7847
  184DOPC  H11A22572   5.212   2.901   3.044 -1.0041  0.9132  3.2554
  184DOPC  H11B22573   5.084   2.803   3.105  0.1188 -2.0805 -1.2126
  184DOPC     P22574   5.342   2.674   3.166  0.1242  0.5545  0.3305
  184DOPC   O1322575   5.414   2.794   3.199 -0.5900 -0.0242 -0.2106
  184DOPC   O1422576   5.419   2.551   3.147 -0.2014 -0.2763 -0.6041
  184DOPC   O1222577   5.254   2.695   3.040  0.3536 -0.2613  0.0898
  184DOPC   O1122578   5.228   2.650   3.267 -0.6495 -0.8794 -0.1015
  184DOPC    C122579   5.145   2.537   3.258 -0.0341 -0.1715 -0.3524
  184DOPC    HA22580   5.172   2.459   3.183  1.4792 -0.3554  0.3630
  184DOPC    HB22581   5.042   2.567   3.229 -0.2424  1.8041  2.1743
  184DOPC    C222582   5.137   2.456   3.397  0.4750 -0.6392 -0.3821
  184DOPC    HS22583   5.072   2.367   3.381 -2.2687  0.9312  1.3050
  184DOPC   O2122584   5.087   2.550   3.484  0.2336  0.0600 -0.1207
  184DOPC   C2122585   4.983   2.511   3.555  0.3561  0.3368  0.6470
  184DOPC   O2222586   4.932   2.403   3.559  0.5458  0.3750 -0.3367
  184DOPC   C2222587   4.935   2.640   3.634  0.3056 -0.4545 -0.0037
  184DOPC   H2R22588   4.875   2.705   3.566  0.6795 -0.9659 -0.8301
  184DOPC   H2S22589   5.020   2.707   3.656 -0.5631  1.2111 -1.4318
  184DOPC    C322590   5.277   2.427   3.450 -0.6530  0.2089 -0.6310
  184DOPC    HX22591   5.328   2.525   3.456  0.2220 -0.1120 -2.1698
  184DOPC    HY22592   5.349   2.363   3.394  1.4345  0.5341  1.4981
  184DOPC   O3122593   5.268   2.376   3.588  0.1754  0.0305  0.5512
  184DOPC   C3122594   5.216   2.253   3.590 -0.0709 -0.1359 -0.3759
  184DOPC   O3222595   5.209   2.176   3.499 -0.0161 -0.4567 -0.2426
  184DOPC   C3222596   5.163   2.235   3.732  0.4222 -0.0057 -0.7062
  184DOPC   H2X22597   5.210   2.306   3.803  0.3693 -1.1598  0.5117
  184DOPC   H2Y22598   5.056   2.266   3.722  0.2213 -0.6420 -0.5360
  184DOPC   C2322599   4.843   2.606   3.751  0.2284 -0.9459 -0.0393
  184DOPC   H3R22600   4.762   2.543   3.709 -1.0319  0.7140 -0.2199
  184DOPC   H3S22601   4.791   2.701   3.776 -0.6173 -0.9210 -1.7518
  184DOPC   C2422602   4.905   2.527   3.873  0.0704 -0.1111 -0.8071
  184DOPC   H4R22603   4.965   2.444   3.830  0.8203 -0.2617  0.4823
  184DOPC   H4S22604   4.820   2.489   3.933  2.0298 -0.6696  1.7567
  184DOPC   C2522605   4.986   2.620   3.959 -0.1521  0.0853  0.4350
  184DOPC   H5R22606   4.927   2.653   4.047 -1.7069 -1.3267 -0.0343
  184DOPC   H5S22607   5.017   2.706   3.895  0.1069 -0.1853  0.1976
  184DOPC   C2622608   5.111   2.546   4.006 -0.7705 -0.1299 -0.1887
  184DOPC   H6R22609   5.178   2.529   3.919  0.5214 -2.0203  1.0972
  184DOPC   H6S22610   5.085   2.443   4.039 -0.8721  0.3313  1.2058
  184DOPC   C2722611   5.186   2.611   4.124 -0.0257  0.3312  0.0032
  184DOPC   H7R22612   5.130   2.607   4.220  1.4468  1.0663  0.9303
  184DOPC   H7S22613   5.189   2.719   4.098 -2.5994  0.1566 -1.3700
  184DOPC   C2822614   5.325   2.559   4.149  0.7346 -0.9011  0.5013
  184DOPC   H8R22615   5.375   2.621   4.226  0.1956 -0.0295  0.1689
  184DOPC   H8S22616   5.389   2.576   4.060  1.6106 -0.0371  1.2667
  184DOPC   C2922617   5.331   2.418   4.185 -0.2377 -0.1841  0.4532
  184DOPC   H9R22618   5.340   2.350   4.099 -0.4543  1.0432 -0.5662
  184DOPC  C21022619   5.326   2.366   4.312  0.8314 -0.1411  0.1016
  184DOPC  H10R22620   5.311   2.257   4.313  0.1926 -0.0665 -0.4532
  184DOPC  C21122621   5.307   2.450   4.437 -0.4831  0.3057  0.4976
  184DOPC  H11R22622   5.318   2.560   4.424 -0.7593  0.2277 -0.5341
  184DOPC  H11S22623   5.385   2.416   4.508 -0.5577  0.7474  0.7952
  184DOPC  C21222624   5.167   2.443   4.506 -0.2372 -0.5903  0.4460
  184DOPC  H12R22625   5.082   2.454   4.436  0.7951  2.6149 -0.4662
  184DOPC  H12S22626   5.147   2.524   4.580  0.2480  0.0731 -0.1330
  184DOPC  C21322627   5.158   2.305   4.573 -0.0608  0.1117 -0.0786
  184DOPC  H13R22628   5.251   2.280   4.628 -0.4714  1.7175  1.4602
  184DOPC  H13S22629   5.141   2.222   4.502  0.7132  0.4949 -0.7261
  184DOPC  C21422630   5.037   2.299   4.666  0.4726  0.2859 -0.3571
  184DOPC  H14R22631   4.971   2.210   4.658 -0.7402  1.0954  0.3067
  184DOPC  H14S22632   4.971   2.387   4.649  0.6814  0.3312 -0.9534
  184DOPC  C21522633   5.087   2.315   4.812 -1.1103  1.0258  0.3811
  184DOPC  H15R22634   5.138   2.413   4.822 -3.9154  2.5546  0.8839
  184DOPC  H15S22635   5.161   2.237   4.840 -1.7102  1.3232  3.0887
  184DOPC  C21622636   4.981   2.325   4.911 -0.3324  0.2393 -0.6439
  184DOPC  H16R22637   4.924   2.230   4.913 -2.7050  1.5928  0.1820
  184DOPC  H16S22638   4.913   2.406   4.877  0.5357  1.8018  1.1253
  184DOPC  C21722639   5.016   2.345   5.057 -0.7976  0.0328  0.8560
  184DOPC  H17R22640   5.082   2.432   5.077  1.7831 -2.0275  1.8686
  184DOPC  H17S22641   5.071   2.261   5.102  1.8962  1.6076  0.7062
  184DOPC  C21822642   4.887   2.378   5.142 -0.2956  0.1286 -0.5559
  184DOPC  H18R22643   4.916   2.361   5.247  0.1989  0.3437 -0.6577
  184DOPC  H18S22644   4.805   2.305   5.122 -0.2830 -0.7749  2.3001
  184DOPC  H18T22645   4.848   2.481   5.124  1.9082  1.0184 -0.4704
  184DOPC   C3322646   5.161   2.092   3.781 -1.1678  0.1818 -0.0847
  184DOPC   H3X22647   5.263   2.050   3.786 -0.9305  0.5480 -1.4338
  184DOPC   H3Y22648   5.099   2.037   3.706  1.3032 -1.4145 -1.0632
  184DOPC   C3422649   5.109   2.074   3.925  0.7867  0.3276 -0.1757
  184DOPC   H4X22650   5.191   2.107   3.992  0.6329 -0.7841  0.5834
  184DOPC   H4Y22651   5.089   1.964   3.926  0.1515  0.4422 -0.1612
  184DOPC   C3522652   4.985   2.144   3.977  0.7490 -0.9851  0.3176
  184DOPC   H5X22653   4.891   2.101   3.937  1.7787 -3.0298 -0.0091
  184DOPC   H5Y22654   4.990   2.247   3.934 -0.4405 -1.0717 -0.0716
  184DOPC   C3622655   4.988   2.137   4.130  0.9244  0.1080  0.0454
  184DOPC   H6X22656   4.993   2.035   4.173  2.7213  0.9172  1.9850
  184DOPC   H6Y22657   5.068   2.203   4.170 -2.0410  1.4077  4.6578
  184DOPC   C3722658   4.860   2.209   4.185  0.6698 -0.6815 -0.4108
  184DOPC   H7X22659   4.831   2.304   4.135 -1.1716  0.1813  2.1066
  184DOPC   H7Y22660   4.774   2.143   4.163  0.8578 -2.1188  2.6668
  184DOPC   C3822661   4.853   2.236   4.342  0.5091  0.6925  0.1389
  184DOPC   H8X22662   4.789   2.327   4.352 -0.3159 -0.0851  2.6314
  184DOPC   H8Y22663   4.951   2.270   4.380  0.0524 -1.2956  3.5283
  184DOPC   C3922664   4.798   2.121   4.425 -0.0543  0.4508  0.3782
  184DOPC   H9X22665   4.843   2.022   4.406 -1.3878 -0.2236  0.5507
  184DOPC  C31022666   4.701   2.122   4.520 -0.6447  0.2814  0.1749
  184DOPC  H10X22667   4.666   2.035   4.577  0.0314 -0.3444 -0.3511
  184DOPC  C31122668   4.636   2.247   4.563 -0.3078 -0.4032 -0.2257
  184DOPC  H11X22669   4.527   2.234   4.551 -0.4037  0.9104 -0.9384
  184DOPC  H11Y22670   4.660   2.340   4.507 -0.2184  1.8027  3.1814
  184DOPC  C31222671   4.649   2.289   4.710 -0.7659 -0.2423 -0.4020
  184DOPC  H12X22672   4.754   2.310   4.739 -1.4413  1.7402  0.8653
  184DOPC  H12Y22673   4.620   2.200   4.769  0.1332 -0.9184 -0.9689
  184DOPC  C31322674   4.560   2.408   4.747 -0.2442 -0.0796  0.8599
  184DOPC  H13X22675   4.593   2.495   4.685 -1.8431  0.8432  1.2607
  184DOPC  H13Y22676   4.459   2.389   4.707 -0.5997  0.2655  1.5745
  184DOPC  C31422677   4.558   2.453   4.889  0.3033  0.3259 -0.1727
  184DOPC  H14X22678   4.646   2.514   4.917  1.4094 -0.1261 -2.4329
  184DOPC  H14Y22679   4.467   2.517   4.899  0.4954  0.5272  0.3135
  184DOPC  C31522680   4.540   2.335   4.990 -0.4656 -0.0015 -0.4158
  184DOPC  H15X22681   4.624   2.262   4.987 -0.0036  0.4295  1.0142
  184DOPC  H15Y22682   4.455   2.269   4.963  0.7731 -1.5562 -0.6579
  184DOPC  C31622683   4.516   2.384   5.135  0.3322 -0.0561 -0.0787
  184DOPC  H16X22684   4.535   2.294   5.198  2.0046  0.5611  0.3197
  184DOPC  H16Y22685   4.593   2.458   5.162  0.2241 -0.1452  0.4874
  184DOPC  C31722686   4.373   2.440   5.161 -0.2897 -0.1955 -0.5842
  184DOPC  H17X22687   4.346   2.516   5.084 -0.1674 -0.5070 -0.9382
  184DOPC  H17Y22688   4.290   2.372   5.134  0.0211 -0.6667 -0.3689
  184DOPC  C31822689   4.341   2.483   5.304  0.0650 -0.8143 -0.3224
  184DOPC  H18X22690   4.410   2.569   5.319 -0.2575 -0.8013  1.1800
  184DOPC  H18Y22691   4.239   2.521   5.328  0.7338  0.9443 -0.1576
  184DOPC  H18Z22692   4.385   2.414   5.378  0.3461 -1.2698 -0.9120
  185DOPC     N22693   4.887   7.257   2.694 -0.6323  0.0617 -0.2405
  185DOPC   C1222694   4.958   7.131   2.726 -0.4311  0.3141 -0.0421
  185DOPC  H12A22695   5.065   7.140   2.710 -0.4255 -0.2888 -0.3889
  185DOPC  H12B22696   4.930   7.069   2.643  3.4599  1.2355 -2.3405
  185DOPC   C1322697   4.877   7.280   2.550 -0.6019  0.0188  0.1304
  185DOPC  H13A22698   4.975   7.288   2.506 -0.8959  3.3308 -0.1410
  185DOPC  H13B22699   4.827   7.203   2.493 -1.6436  1.0217 -0.3383
  185DOPC  H13C22700   4.831   7.375   2.530  1.3448  0.7485 -1.2290
  185DOPC   C1422701   4.957   7.375   2.768  0.2048  0.4498  0.7551
  185DOPC  H14A22702   4.893   7.460   2.751  0.4973  0.6215  0.5038
  185DOPC  H14B22703   4.957   7.358   2.875 -1.9200  2.8665  1.2358
  185DOPC  H14C22704   5.054   7.390   2.724  0.3274  1.7805  1.4360
  185DOPC   C1522705   4.739   7.251   2.736  0.1702  0.5020  0.0364
  185DOPC  H15A22706   4.688   7.170   2.686  0.6292 -2.2213  3.5486
  185DOPC  H15B22707   4.684   7.340   2.708  0.4027  0.8788  0.7570
  185DOPC  H15C22708   4.740   7.227   2.841  2.7605 -2.2734 -0.4683
  185DOPC   C1122709   4.945   7.068   2.875  0.1485  0.1935  0.1458
  185DOPC  H11A22710   4.844   7.028   2.897  0.6517 -0.3319  1.6214
  185DOPC  H11B22711   5.011   6.979   2.866 -1.1998 -0.6443 -2.7750
  185DOPC     P22712   5.033   7.127   3.120 -0.0552  0.4111  0.2028
  185DOPC   O1322713   5.041   7.253   3.200  0.7370  0.3943  0.1490
  185DOPC   O1422714   5.156   7.041   3.122  0.0547 -0.2403  0.0634
  185DOPC   O1222715   4.988   7.166   2.976 -0.5862  1.1399 -0.3342
  185DOPC   O1122716   4.920   7.031   3.170  0.1172 -0.4591 -0.5726
  185DOPC    C122717   4.780   7.075   3.178 -0.7002  0.0327  0.0152
  185DOPC    HA22718   4.717   6.992   3.139 -0.7525  0.9940 -2.0650
  185DOPC    HB22719   4.757   7.165   3.117 -0.5606  0.7489  0.9911
  185DOPC    C222720   4.735   7.104   3.324  0.2117 -0.9557  0.1996
  185DOPC    HS22721   4.807   7.173   3.373 -0.2117 -0.9903  0.8794
  185DOPC   O2122722   4.713   6.982   3.400 -0.2684  0.1884 -0.6406
  185DOPC   C2122723   4.764   6.972   3.522  0.8118  1.0370  0.3004
  185DOPC   O2222724   4.806   7.068   3.581 -0.3778  0.2461 -0.0988
  185DOPC   C2222725   4.748   6.836   3.581 -0.6053  0.2943  0.8777
  185DOPC   H2R22726   4.792   6.763   3.510 -0.3307  1.7065 -0.4524
  185DOPC   H2S22727   4.641   6.810   3.600  0.0308 -2.0386  1.5548
  185DOPC    C322728   4.599   7.175   3.320  0.4795  1.0866 -0.2435
  185DOPC    HX22729   4.517   7.102   3.301 -0.7222  1.8873  1.6283
  185DOPC    HY22730   4.588   7.247   3.236 -0.9980  1.4242  0.2131
  185DOPC   O3122731   4.568   7.238   3.441  0.1461  0.2372 -0.2673
  185DOPC   C3122732   4.441   7.244   3.487 -0.3959  0.3673 -0.5117
  185DOPC   O3222733   4.343   7.208   3.418  0.2289 -0.0285  0.5765
  185DOPC   C3222734   4.440   7.284   3.638 -0.5703  0.3647 -0.2211
  185DOPC   H2X22735   4.439   7.395   3.636  0.4837  0.3758 -0.7526
  185DOPC   H2Y22736   4.351   7.249   3.695  1.0749 -1.5726  1.3178
  185DOPC   C2322737   4.802   6.829   3.724 -0.6824  0.7628  0.1267
  185DOPC   H3R22738   4.767   6.903   3.799  2.7230 -0.3845  3.0871
  185DOPC   H3S22739   4.912   6.831   3.710 -0.5190 -2.7462  0.1421
  185DOPC   C2422740   4.772   6.696   3.805 -0.1435 -0.2179  0.4041
  185DOPC   H4R22741   4.838   6.616   3.765 -1.0465 -1.5423  1.5152
  185DOPC   H4S22742   4.662   6.679   3.805 -0.5104  1.8866  0.7902
  185DOPC   C2522743   4.818   6.721   3.951  0.3784 -0.2010  0.0062
  185DOPC   H5R22744   4.753   6.803   3.989  1.3961  1.4013 -1.5831
  185DOPC   H5S22745   4.923   6.756   3.954 -0.3771  2.2360  0.1904
  185DOPC   C2622746   4.792   6.609   4.043  0.0183  0.1046  0.0928
  185DOPC   H6R22747   4.840   6.522   3.995  0.4439 -0.5820  1.6751
  185DOPC   H6S22748   4.682   6.599   4.049 -0.1234  1.6561  0.5881
  185DOPC   C2722749   4.849   6.637   4.189  0.4310 -0.7254  0.1179
  185DOPC   H7R22750   4.812   6.731   4.238 -1.9919 -0.5918 -1.7571
  185DOPC   H7S22751   4.957   6.644   4.163  0.6426  0.0969  1.1142
  185DOPC   C2822752   4.818   6.518   4.286 -0.1883 -0.2530 -0.0927
  185DOPC   H8R22753   4.789   6.428   4.227 -0.8807  0.3065 -0.6298
  185DOPC   H8S22754   4.724   6.538   4.343 -1.0999 -0.0581 -1.6135
  185DOPC   C2922755   4.942   6.488   4.373  0.3712 -0.5994  0.3514
  185DOPC   H9R22756   5.035   6.459   4.321  0.6903 -0.9266  1.0931
  185DOPC  C21022757   4.951   6.509   4.509  0.5097 -0.6516 -0.1988
  185DOPC  H10R22758   5.047   6.490   4.559  1.3435  1.7262 -0.7191
  185DOPC  C21122759   4.856   6.566   4.596 -0.3630  0.2891 -0.4448
  185DOPC  H11R22760   4.805   6.482   4.649  0.2648  0.4618  0.4548
  185DOPC  H11S22761   4.778   6.622   4.541 -1.2735  0.0070  0.5106
  185DOPC  C21222762   4.915   6.651   4.710 -0.5346 -0.2659 -0.2750
  185DOPC  H12R22763   4.829   6.705   4.756 -0.2421  1.0768 -1.2539
  185DOPC  H12S22764   4.977   6.729   4.660 -2.3126 -0.2083 -2.5697
  185DOPC  C21322765   4.998   6.572   4.812 -0.2665  0.0994 -0.1371
  185DOPC  H13R22766   5.067   6.503   4.758  0.0502 -0.3465  0.8071
  185DOPC  H13S22767   4.943   6.518   4.891  0.7495  0.8654  1.1385
  185DOPC  C21422768   5.097   6.660   4.884  0.7121 -0.5735 -0.0805
  185DOPC  H14R22769   5.038   6.748   4.920  1.1092 -0.0800 -0.6161
  185DOPC  H14S22770   5.160   6.708   4.806  0.1851  0.1120 -0.0970
  185DOPC  C21522771   5.194   6.600   4.986 -0.0878 -0.4714 -0.1914
  185DOPC  H15R22772   5.146   6.548   5.072  1.1136 -1.5158 -0.1132
  185DOPC  H15S22773   5.254   6.681   5.033  0.5677 -1.2695  0.3879
  185DOPC  C21622774   5.288   6.504   4.920  0.1562 -0.1214  0.4438
  185DOPC  H16R22775   5.348   6.554   4.841 -0.5409 -0.1793 -0.1350
  185DOPC  H16S22776   5.246   6.411   4.874  1.8489  0.4375 -2.4825
  185DOPC  C21722777   5.404   6.461   5.017 -0.8330 -0.4750 -0.3657
  185DOPC  H17R22778   5.445   6.559   5.050 -0.8185 -0.5075 -0.2881
  185DOPC  H17S22779   5.487   6.405   4.969  1.2229 -0.4506  2.8196
  185DOPC  C21822780   5.369   6.394   5.147  0.1156  0.5300  0.3803
  185DOPC  H18R22781   5.297   6.448   5.213 -2.4776 -1.0244 -1.0286
  185DOPC  H18S22782   5.459   6.385   5.212  0.9613  1.5670 -0.6176
  185DOPC  H18T22783   5.314   6.298   5.141 -0.4664  0.7599  1.6812
  185DOPC   C3322784   4.558   7.226   3.709  0.6407 -0.4059 -0.0624
  185DOPC   H3X22785   4.657   7.261   3.673 -0.9562  1.3128 -3.1721
  185DOPC   H3Y22786   4.574   7.117   3.699  0.6910 -0.1974 -2.9592
  185DOPC   C3422787   4.538   7.254   3.854 -0.3751  0.1682  0.4284
  185DOPC   H4X22788   4.431   7.251   3.882 -0.6591  0.2873 -0.6302
  185DOPC   H4Y22789   4.563   7.357   3.886  0.0272  0.4140 -0.6506
  185DOPC   C3522790   4.617   7.158   3.947 -0.4204 -0.4034 -0.1509
  185DOPC   H5X22791   4.713   7.151   3.891 -1.7619 -0.9219 -2.5272
  185DOPC   H5Y22792   4.567   7.059   3.943 -1.1794  0.0163 -1.8369
  185DOPC   C3622793   4.627   7.193   4.094  0.2172  0.1094 -1.1401
  185DOPC   H6X22794   4.522   7.222   4.116  0.8127  2.4696 -1.1546
  185DOPC   H6Y22795   4.639   7.096   4.147  0.7046  0.7068 -0.1315
  185DOPC   C3722796   4.721   7.310   4.139 -0.7590  0.1694 -1.1092
  185DOPC   H7X22797   4.824   7.284   4.109 -0.8277 -1.6455  0.0464
  185DOPC   H7Y22798   4.673   7.401   4.096 -2.7944 -0.0953  0.4324
  185DOPC   C3822799   4.719   7.325   4.296 -0.3820 -0.3482  0.4364
  185DOPC   H8X22800   4.669   7.236   4.340 -2.2953 -0.1269 -1.1411
  185DOPC   H8Y22801   4.654   7.415   4.306 -1.3437 -0.9823  0.0121
  185DOPC   C3922802   4.843   7.372   4.371  0.4575 -0.1614  0.3130
  185DOPC   H9X22803   4.938   7.385   4.316  0.8847 -1.6579  0.6497
  185DOPC  C31022804   4.846   7.365   4.507 -0.1783  0.0403  0.4559
  185DOPC  H10X22805   4.937   7.385   4.566 -0.1662 -1.5094  1.0301
  185DOPC  C31122806   4.736   7.313   4.591  0.0873 -0.5643 -0.1581
  185DOPC  H11X22807   4.770   7.265   4.685 -3.0858 -1.6539  0.5857
  185DOPC  H11Y22808   4.677   7.240   4.531 -2.1810  2.3075 -1.7068
  185DOPC  C31222809   4.644   7.427   4.635 -0.1200 -0.7455  0.0690
  185DOPC  H12X22810   4.582   7.476   4.557 -0.5538 -0.5588  0.5221
  185DOPC  H12Y22811   4.706   7.500   4.692 -1.5836 -0.3624  1.2298
  185DOPC  C31322812   4.542   7.385   4.737  0.0211  0.0078  0.3378
  185DOPC  H13X22813   4.471   7.469   4.751  0.5207  1.0081 -2.3885
  185DOPC  H13Y22814   4.479   7.299   4.707 -0.1649 -0.1816  1.2583
  185DOPC  C31422815   4.597   7.352   4.874 -0.3552  0.7181  0.6089
  185DOPC  H14X22816   4.651   7.255   4.863 -2.7366 -0.9710  2.5686
  185DOPC  H14Y22817   4.683   7.419   4.895  2.2300 -1.8151 -1.1016
  185DOPC  C31522818   4.490   7.339   4.987 -0.3510 -0.3253  0.0950
  185DOPC  H15X22819   4.438   7.436   4.998 -0.8718 -0.6053  0.1033
  185DOPC  H15Y22820   4.540   7.311   5.082 -1.3444 -1.1395  0.3929
  185DOPC  C31622821   4.387   7.235   4.950  0.2292  0.0783  0.3232
  185DOPC  H16X22822   4.323   7.263   4.864 -0.2604  0.4856  0.8099
  185DOPC  H16Y22823   4.446   7.148   4.914 -0.5884 -1.1259  1.7706
  185DOPC  C31722824   4.302   7.177   5.063 -0.0208  0.0231 -0.1027
  185DOPC  H17X22825   4.358   7.125   5.143 -0.5721  0.1360  0.3645
  185DOPC  H17Y22826   4.252   7.264   5.112  1.2372  1.2663 -0.9468
  185DOPC  C31822827   4.191   7.080   5.020  0.4483  0.0122  0.4892
  185DOPC  H18X22828   4.249   6.998   4.972  0.4598 -1.0609  2.2150
  185DOPC  H18Y22829   4.123   7.047   5.101 -1.8143 -0.2111 -1.4122
  185DOPC  H18Z22830   4.129   7.125   4.940  3.0420  0.6491 -1.2944
  186DOPC     N22831   7.465   2.361   3.022 -0.4903 -0.4802  0.2553
  186DOPC   C1222832   7.551   2.363   3.148 -0.1005  0.5001 -0.1461
  186DOPC  H12A22833   7.516   2.451   3.201 -1.8660 -0.1258 -0.2012
  186DOPC  H12B22834   7.651   2.388   3.115 -0.2433  0.9155 -0.2641
  186DOPC   C1322835   7.465   2.232   2.949  0.4786 -0.1101  0.1850
  186DOPC  H13A22836   7.564   2.197   2.924  0.3189 -0.6726  0.3103
  186DOPC  H13B22837   7.409   2.160   3.008  0.4659 -1.5440 -1.4831
  186DOPC  H13C22838   7.409   2.246   2.858  1.4374 -1.0317 -0.5598
  186DOPC   C1422839   7.514   2.477   2.926  0.0646  0.5962 -0.1882
  186DOPC  H14A22840   7.479   2.570   2.968 -2.6410 -0.9019  1.1829
  186DOPC  H14B22841   7.622   2.482   2.926  0.0209  2.3116 -1.0034
  186DOPC  H14C22842   7.472   2.450   2.830 -0.2823 -3.1586  0.8541
  186DOPC   C1522843   7.330   2.396   3.067  0.4026  0.0984 -0.1734
  186DOPC  H15A22844   7.313   2.501   3.088 -1.9183 -0.1033 -0.8013
  186DOPC  H15B22845   7.308   2.339   3.156  0.2704  1.1619  0.4985
  186DOPC  H15C22846   7.257   2.374   2.991  2.6172 -0.4968 -2.2806
  186DOPC   C1122847   7.558   2.232   3.231  0.0299 -0.0556  0.0787
  186DOPC  H11A22848   7.605   2.155   3.166  0.6417  1.7034 -1.6824
  186DOPC  H11B22849   7.634   2.258   3.307  0.8106 -2.5674  0.2400
  186DOPC     P22850   7.404   2.054   3.327 -0.5180 -0.3477 -0.2148
  186DOPC   O1322851   7.404   1.970   3.202  0.0886  0.7584 -0.3607
  186DOPC   O1422852   7.282   2.043   3.407  0.2799  0.0937 -0.0798
  186DOPC   O1222853   7.430   2.205   3.295 -1.1096 -0.1544  0.3145
  186DOPC   O1122854   7.531   2.015   3.418  0.1573  0.0478  0.0369
  186DOPC    C122855   7.560   2.095   3.530 -0.1012 -0.1784  0.0945
  186DOPC    HA22856   7.483   2.174   3.538  1.3188  1.9086 -4.1314
  186DOPC    HB22857   7.659   2.144   3.521  2.6518 -5.1436 -0.6594
  186DOPC    C222858   7.567   2.006   3.657  0.6763 -0.2811  0.5103
  186DOPC    HS22859   7.595   2.075   3.740 -2.5194 -0.1837  1.6535
  186DOPC   O2122860   7.657   1.892   3.639  0.7957  0.5288 -0.6972
  186DOPC   C2122861   7.784   1.933   3.630  0.0418  0.1636  0.4258
  186DOPC   O2222862   7.830   2.043   3.650 -0.1225 -0.1502  0.8128
  186DOPC   C2222863   7.868   1.807   3.630 -0.4742  0.2928 -0.4517
  186DOPC   H2R22864   7.952   1.806   3.558  0.2271  0.8320  0.3358
  186DOPC   H2S22865   7.798   1.732   3.589 -2.2755  1.5509  0.2055
  186DOPC    C322866   7.431   1.948   3.696  0.3932  0.1954  0.0833
  186DOPC    HX22867   7.409   1.879   3.612  0.5751  2.5003 -1.9778
  186DOPC    HY22868   7.356   2.029   3.701  0.6334  0.5028 -0.9692
  186DOPC   O3122869   7.439   1.887   3.823  0.1146 -0.4960 -0.0500
  186DOPC   C3122870   7.314   1.839   3.853 -0.1165  1.0799  0.6947
  186DOPC   O3222871   7.219   1.833   3.773 -0.3151  0.8707  0.1287
  186DOPC   C3222872   7.309   1.812   4.004 -0.5641 -0.5490 -0.1612
  186DOPC   H2X22873   7.347   1.710   4.024  1.5966  0.4314  1.0117
  186DOPC   H2Y22874   7.376   1.890   4.046 -0.0993 -0.1397 -1.6019
  186DOPC   C2322875   7.931   1.782   3.772  0.9342 -0.0929  0.4210
  186DOPC   H3R22876   7.848   1.764   3.843  0.8853 -1.8610 -0.0433
  186DOPC   H3S22877   7.994   1.866   3.808 -1.5086  2.0377 -0.0204
  186DOPC   C2422878   8.020   1.661   3.783 -0.0445 -0.1900  0.1580
  186DOPC   H4R22879   8.099   1.665   3.705  1.3852  0.8426  1.5733
  186DOPC   H4S22880   7.964   1.567   3.765  0.6122 -0.2414 -1.9016
  186DOPC   C2522881   8.102   1.650   3.913 -0.8766  0.1133 -0.5587
  186DOPC   H5R22882   8.022   1.652   3.990 -0.2568  0.0922  0.0879
  186DOPC   H5S22883   8.163   1.739   3.935 -0.2986 -0.7823  1.7196
  186DOPC   C2622884   8.192   1.521   3.923 -0.8644 -0.2499  0.6266
  186DOPC   H6R22885   8.268   1.540   3.844 -2.0783 -0.4693 -0.6310
  186DOPC   H6S22886   8.132   1.435   3.889  0.5159 -1.0092  0.0602
  186DOPC   C2722887   8.252   1.499   4.063 -0.2059 -0.3025  1.0864
  186DOPC   H7R22888   8.300   1.590   4.106  1.3260 -1.3752  1.7764
  186DOPC   H7S22889   8.333   1.425   4.044  0.9242  0.8204  1.4130
  186DOPC   C2822890   8.142   1.446   4.157  0.4673  0.6541  0.1197
  186DOPC   H8R22891   8.104   1.352   4.112 -0.5523  1.1265 -0.0375
  186DOPC   H8S22892   8.060   1.522   4.154  2.0311  2.4640  0.8569
  186DOPC   C2922893   8.187   1.406   4.298  0.2260  0.6487 -0.1308
  186DOPC   H9R22894   8.274   1.338   4.299 -1.2488 -1.3211 -0.6212
  186DOPC  C21022895   8.127   1.436   4.416  0.1280  0.2042 -0.5974
  186DOPC  H10R22896   8.183   1.411   4.508  1.0718  0.4066 -1.1080
  186DOPC  C21122897   7.998   1.519   4.430  0.0579  0.3382 -0.1240
  186DOPC  H11R22898   7.936   1.508   4.338  0.1448 -0.2268 -0.1230
  186DOPC  H11S22899   8.029   1.625   4.433  0.3596  0.2364  0.3486
  186DOPC  C21222900   7.921   1.478   4.549 -0.1852  0.2262 -0.3480
  186DOPC  H12R22901   7.892   1.372   4.532 -1.3081  0.5894 -0.7967
  186DOPC  H12S22902   7.825   1.534   4.548 -0.1309  0.3243 -0.1785
  186DOPC  C21322903   7.988   1.482   4.695 -0.3781  0.7288  0.7460
  186DOPC  H13R22904   7.982   1.591   4.714 -2.5544  0.6240  0.8308
  186DOPC  H13S22905   8.094   1.448   4.689 -0.2094  1.3553 -0.0314
  186DOPC  C21422906   7.910   1.401   4.804 -0.4924  0.3243 -0.2881
  186DOPC  H14R22907   7.812   1.451   4.819 -0.7918 -0.8526  2.1222
  186DOPC  H14S22908   7.951   1.432   4.903  0.2765  0.8079 -0.7504
  186DOPC  C21522909   7.911   1.247   4.799 -0.0522  0.4244 -0.8336
  186DOPC  H15R22910   8.009   1.211   4.839 -0.0220 -0.0393 -1.3116
  186DOPC  H15S22911   7.904   1.216   4.693 -0.4486  0.5677 -0.8482
  186DOPC  C21622912   7.800   1.181   4.870  0.4234  0.3444  0.0137
  186DOPC  H16R22913   7.703   1.215   4.826 -1.1165 -0.9237  2.2340
  186DOPC  H16S22914   7.799   1.214   4.976 -0.1980 -1.5405  0.6418
  186DOPC  C21722915   7.802   1.023   4.873 -0.5443  0.0573 -0.1855
  186DOPC  H17R22916   7.757   0.993   4.776  1.0932  1.6316 -1.4927
  186DOPC  H17S22917   7.734   0.988   4.953 -1.2787  0.0567 -0.7924
  186DOPC  C21822918   7.944   0.967   4.898 -0.2674 -0.2079  0.8991
  186DOPC  H18R22919   8.008   0.986   4.809 -2.0107 -2.0122 -0.8349
  186DOPC  H18S22920   7.936   0.857   4.914 -0.1507 -0.6635 -1.7082
  186DOPC  H18T22921   7.982   1.007   4.995 -1.6992  1.4353  0.8205
  186DOPC   C3322922   7.168   1.815   4.063 -0.3327  0.1277  0.5066
  186DOPC   H3X22923   7.091   1.760   4.004 -1.1640 -0.8494  2.3966
  186DOPC   H3Y22924   7.154   1.924   4.049  2.0919  0.2500 -1.6510
  186DOPC   C3422925   7.179   1.759   4.207 -0.2208 -0.2804 -0.4455
  186DOPC   H4X22926   7.245   1.817   4.275  0.3436 -2.4534  0.9374
  186DOPC   H4Y22927   7.226   1.659   4.206 -1.0402 -0.7911  2.6677
  186DOPC   C3522928   7.044   1.751   4.272  0.4267  0.3437  0.0124
  186DOPC   H5X22929   6.976   1.693   4.206 -0.3991 -1.3143  2.2080
  186DOPC   H5Y22930   7.011   1.857   4.273  0.5226  0.4794 -2.8075
  186DOPC   C3622931   7.040   1.691   4.412 -0.2354  0.6625 -0.0019
  186DOPC   H6X22932   7.020   1.582   4.405  0.6616  0.5956 -2.0294
  186DOPC   H6Y22933   7.140   1.703   4.460 -0.8371  2.4897  0.9023
  186DOPC   C3722934   6.944   1.762   4.509  0.1405  0.0767 -0.7594
  186DOPC   H7X22935   6.980   1.861   4.542 -1.4318  0.0392  1.2095
  186DOPC   H7Y22936   6.844   1.780   4.463  0.9043 -0.2394 -2.6315
  186DOPC   C3822937   6.934   1.679   4.640 -0.5653 -0.7471 -0.0035
  186DOPC   H8X22938   6.874   1.587   4.623 -1.0061 -0.4816  0.1059
  186DOPC   H8Y22939   6.867   1.731   4.712 -1.4247 -2.1436  0.2356
  186DOPC   C3922940   7.067   1.652   4.708  0.3519  0.1066 -0.0487
  186DOPC   H9X22941   7.130   1.742   4.720 -1.2670  1.2648  0.1228
  186DOPC  C31022942   7.119   1.530   4.745 -0.0676  0.7198 -0.1078
  186DOPC  H10X22943   7.225   1.518   4.774 -0.2879 -1.9843 -0.1454
  186DOPC  C31122944   7.045   1.404   4.724 -0.0800 -0.2041 -0.0049
  186DOPC  H11X22945   7.117   1.327   4.689 -0.5082 -0.4292 -0.4027
  186DOPC  H11Y22946   6.972   1.405   4.641 -2.3210 -1.2669  1.8561
  186DOPC  C31222947   6.973   1.344   4.850 -0.1880  1.0205 -0.3593
  186DOPC  H12X22948   6.907   1.421   4.896  1.0580  1.5401  0.6294
  186DOPC  H12Y22949   7.052   1.325   4.926  0.9422 -2.5777 -2.2351
  186DOPC  C31322950   6.908   1.208   4.837 -0.6132 -0.1566 -0.3128
  186DOPC  H13X22951   6.815   1.221   4.777 -1.4989 -1.4561  0.7134
  186DOPC  H13Y22952   6.982   1.137   4.796 -0.0163  0.5411 -0.4433
  186DOPC  C31422953   6.878   1.147   4.979  0.0323  0.5201  0.5196
  186DOPC  H14X22954   6.976   1.158   5.031  1.1248 -1.5877 -0.9189
  186DOPC  H14Y22955   6.802   1.203   5.038  0.4689  0.3141  1.2986
  186DOPC  C31522956   6.837   1.002   4.962 -0.1487 -0.0650  0.2348
  186DOPC  H15X22957   6.877   0.965   4.865  0.3629  0.9559  0.0507
  186DOPC  H15Y22958   6.729   0.988   4.985  0.0700  1.8159  2.8584
  186DOPC  C31622959   6.908   0.916   5.063 -0.4470 -0.0570  0.4266
  186DOPC  H16X22960   7.014   0.949   5.056 -1.0808  2.3123  1.2943
  186DOPC  H16Y22961   6.884   0.937   5.169  1.1885  0.7653  0.6713
  186DOPC  C31722962   6.883   0.762   5.035 -0.0394 -0.1861 -0.3093
  186DOPC  H17X22963   6.775   0.738   5.042 -0.0511  0.3005  2.8010
  186DOPC  H17Y22964   6.930   0.749   4.935  3.0834 -0.1943  1.0375
  186DOPC  C31822965   6.949   0.666   5.137  0.2049 -0.0206  0.2742
  186DOPC  H18X22966   6.954   0.565   5.089 -1.6732  0.9095 -2.1055
  186DOPC  H18Y22967   7.050   0.709   5.156  0.4660  0.2054 -1.4561
  186DOPC  H18Z22968   6.894   0.659   5.233  0.4142 -0.6847  0.3479
  187DOPC     N22969   5.788   1.316   2.974  0.7810  0.1767 -0.7156
  187DOPC   C1222970   5.858   1.192   2.928 -0.5743 -0.2393 -0.6641
  187DOPC  H12A22971   5.933   1.170   3.003 -0.7124  1.3861 -0.0035
  187DOPC  H12B22972   5.914   1.210   2.838 -0.7949 -2.1637 -1.2335
  187DOPC   C1322973   5.695   1.303   3.097  0.1295 -0.8448  0.0698
  187DOPC  H13A22974   5.748   1.261   3.181 -0.3923 -1.8450 -0.0808
  187DOPC  H13B22975   5.663   1.400   3.133  0.2306 -0.1604 -1.5987
  187DOPC  H13C22976   5.608   1.240   3.083 -0.9866 -0.3860  3.8896
  187DOPC   C1422977   5.706   1.367   2.859 -0.4415 -0.2010 -0.4198
  187DOPC  H14A22978   5.770   1.380   2.772  1.0645 -0.2030  0.6533
  187DOPC  H14B22979   5.625   1.300   2.830  0.3522 -1.5167  0.2895
  187DOPC  H14C22980   5.661   1.463   2.877  0.8291  0.0326  1.8975
  187DOPC   C1522981   5.884   1.432   2.990  0.6980  0.6021 -0.9088
  187DOPC  H15A22982   5.826   1.519   3.015 -2.3021 -0.9795 -1.7442
  187DOPC  H15B22983   5.938   1.459   2.900 -0.5533 -0.2871 -1.9783
  187DOPC  H15C22984   5.966   1.406   3.055 -0.0261  0.3747 -0.0702
  187DOPC   C1122985   5.769   1.064   2.906 -0.2290 -0.1270 -0.2032
  187DOPC  H11A22986   5.663   1.094   2.892 -0.0988  1.0108  1.0634
  187DOPC  H11B22987   5.796   1.011   2.812 -1.5592 -0.4382 -0.4271
  187DOPC     P22988   5.719   0.839   3.034 -0.0398  0.2981  0.5156
  187DOPC   O1322989   5.761   0.762   2.915 -0.1870 -0.5672 -0.4146
  187DOPC   O1422990   5.570   0.852   3.054 -0.3983  0.0604  0.4635
  187DOPC   O1222991   5.779   0.982   3.022 -0.1634 -0.3085 -0.5572
  187DOPC   O1122992   5.800   0.792   3.160 -0.2875 -0.3659 -0.3777
  187DOPC    C122993   5.735   0.830   3.284 -0.2316 -0.0208  0.2401
  187DOPC    HA22994   5.667   0.753   3.326 -0.6594  1.3456  2.2075
  187DOPC    HB22995   5.674   0.923   3.274  1.0566  0.7196 -1.0999
  187DOPC    C222996   5.849   0.852   3.393 -0.0091  0.5280  0.0610
  187DOPC    HS22997   5.921   0.767   3.389  1.2359  1.5614 -0.2690
  187DOPC   O2122998   5.785   0.866   3.522 -0.4105 -0.2141  0.4972
  187DOPC   C2122999   5.761   0.746   3.579 -0.0428 -0.3279  0.2971
  187DOPC   O2223000   5.791   0.636   3.536  0.2870 -0.2116  0.1817
  187DOPC   C2223001   5.709   0.768   3.718 -0.3741 -0.2885  0.7100
  187DOPC   H2R23002   5.615   0.827   3.703 -0.3626 -0.0591  1.4841
  187DOPC   H2S23003   5.781   0.831   3.775 -0.1603  0.1626 -0.0464
  187DOPC    C323004   5.935   0.979   3.365 -0.3743 -0.4811  0.4167
  187DOPC    HX23005   5.862   1.060   3.346  0.2725 -0.0679 -0.3524
  187DOPC    HY23006   5.994   0.959   3.273  2.2805  0.8446  1.6971
  187DOPC   O3123007   6.022   1.017   3.466  0.0054 -0.6245 -0.1595
  187DOPC   C3123008   6.113   0.921   3.490 -0.2568 -0.4623 -0.2618
  187DOPC   O3223009   6.143   0.832   3.413 -0.3184 -0.0126  0.5093
  187DOPC   C3223010   6.170   0.933   3.628 -0.0029 -0.9039 -0.1496
  187DOPC   H2X23011   6.241   1.018   3.645 -0.6282 -0.7902  2.1979
  187DOPC   H2Y23012   6.079   0.949   3.688 -0.3362  0.9106 -1.0484
  187DOPC   C2323013   5.705   0.632   3.797  0.2286  0.6943  0.3317
  187DOPC   H3R23014   5.789   0.569   3.760 -0.6141  0.3409 -1.0842
  187DOPC   H3S23015   5.613   0.573   3.775  2.1332 -2.2502 -0.2658
  187DOPC   C2423016   5.742   0.655   3.949 -1.0789 -0.1151  0.3189
  187DOPC   H4R23017   5.696   0.752   3.978 -1.0490  0.4261 -1.3541
  187DOPC   H4S23018   5.852   0.672   3.955 -1.0653  0.8922 -1.9866
  187DOPC   C2523019   5.689   0.545   4.045 -0.2298  0.5278 -0.7004
  187DOPC   H5R23020   5.578   0.542   4.041 -0.2406 -0.4438 -0.0974
  187DOPC   H5S23021   5.733   0.573   4.143 -1.1497 -0.5403  0.0499
  187DOPC   C2623022   5.744   0.403   4.025 -0.2462 -0.4583 -0.4211
  187DOPC   H6R23023   5.693   0.359   3.936 -1.0272 -1.2585  0.3942
  187DOPC   H6S23024   5.705   0.349   4.114 -0.8414 -0.5435 -0.7286
  187DOPC   C2723025   5.896   0.379   3.997  0.2846 -0.1343 -0.1643
  187DOPC   H7R23026   5.939   0.440   3.914  0.0093 -0.3545 -0.4722
  187DOPC   H7S23027   5.905   0.272   3.966 -1.1159 -1.0615  2.3661
  187DOPC   C2823028   5.978   0.389   4.131  0.8391 -0.2374  0.5520
  187DOPC   H8R23029   5.908   0.351   4.208  0.7960  0.1553  0.7051
  187DOPC   H8S23030   6.000   0.493   4.160  0.5107 -0.4743  1.6999
  187DOPC   C2923031   6.117   0.323   4.126 -0.3168 -0.0761 -0.6067
  187DOPC   H9R23032   6.158   0.312   4.024 -1.3228 -0.4800 -0.9734
  187DOPC  C21023033   6.174   0.262   4.233 -0.1690  0.0779 -0.5055
  187DOPC  H10R23034   6.276   0.221   4.232  0.2118  1.0235 -1.3621
  187DOPC  C21123035   6.124   0.243   4.375  0.0899 -0.2791  0.4259
  187DOPC  H11R23036   6.171   0.148   4.406  1.1671  0.1125  0.0484
  187DOPC  H11S23037   6.013   0.231   4.372 -0.0437  0.8894 -0.2050
  187DOPC  C21223038   6.159   0.348   4.487  0.1920 -0.1104  0.8341
  187DOPC  H12R23039   6.097   0.436   4.461  0.2914 -0.3691 -0.3359
  187DOPC  H12S23040   6.267   0.371   4.474 -0.3093  1.9206 -0.0292
  187DOPC  C21323041   6.141   0.294   4.630  0.1773 -0.1358 -0.9270
  187DOPC  H13R23042   6.178   0.190   4.632  0.8071  0.0735  0.9741
  187DOPC  H13S23043   6.034   0.292   4.662  1.3250 -0.7644  3.5808
  187DOPC  C21423044   6.232   0.367   4.725  0.3591 -0.1993  0.2806
  187DOPC  H14R23045   6.243   0.473   4.693 -0.9168 -0.3003 -0.5743
  187DOPC  H14S23046   6.331   0.318   4.711  0.6274  0.1533  0.9161
  187DOPC  C21523047   6.184   0.350   4.871  0.1857 -0.4586 -0.2015
  187DOPC  H15R23048   6.075   0.368   4.872  0.2021 -0.3422  0.4621
  187DOPC  H15S23049   6.240   0.421   4.936 -0.6854 -1.1131  1.3031
  187DOPC  C21623050   6.200   0.213   4.928 -0.1537 -0.3122  0.0692
  187DOPC  H16R23051   6.306   0.179   4.920 -0.9540 -2.5896 -1.6529
  187DOPC  H16S23052   6.148   0.131   4.875  1.5811 -2.3234  1.3220
  187DOPC  C21723053   6.162   0.215   5.078 -0.4223  0.7562  0.8554
  187DOPC  H17R23054   6.055   0.245   5.082 -0.9944 -1.1076  0.3683
  187DOPC  H17S23055   6.219   0.295   5.130  0.1761 -1.3258  3.5862
  187DOPC  C21823056   6.182   0.076   5.146 -0.2220  0.4945  0.1466
  187DOPC  H18R23057   6.282   0.030   5.127  0.6184  1.8447  1.1602
  187DOPC  H18S23058   6.105   0.008   5.103  1.9181 -0.9424 -1.7055
  187DOPC  H18T23059   6.173   0.083   5.256 -0.2017  2.1238  0.0622
  187DOPC   C3323060   6.244   0.807   3.666  0.3926  0.4221 -0.2140
  187DOPC   H3X23061   6.335   0.804   3.602 -0.0106  0.6254 -0.8091
  187DOPC   H3Y23062   6.172   0.728   3.634 -2.0384  1.6437  1.9028
  187DOPC   C3423063   6.272   0.783   3.813 -0.2711 -0.1497  0.0435
  187DOPC   H4X23064   6.173   0.772   3.864 -1.8503 -5.1883 -3.3069
  187DOPC   H4Y23065   6.325   0.872   3.852 -0.5730  0.2255 -0.3893
  187DOPC   C3523066   6.361   0.660   3.839  0.2935 -0.5328  0.1571
  187DOPC   H5X23067   6.466   0.697   3.838 -0.0353  0.4781  0.9971
  187DOPC   H5Y23068   6.342   0.593   3.753 -2.6867  1.3496 -0.7863
  187DOPC   C3623069   6.346   0.588   3.979 -0.1797  0.2144  0.1220
  187DOPC   H6X23070   6.246   0.539   3.986 -0.3258  0.1547 -1.8417
  187DOPC   H6Y23071   6.419   0.505   3.993 -0.8334 -0.2377  0.9756
  187DOPC   C3723072   6.362   0.680   4.099  0.2393 -0.2867  0.4798
  187DOPC   H7X23073   6.445   0.748   4.069 -1.0873  1.0914 -0.2071
  187DOPC   H7Y23074   6.274   0.748   4.103 -0.3836 -1.0855  0.4621
  187DOPC   C3823075   6.370   0.612   4.231 -0.1525 -0.3923 -0.0020
  187DOPC   H8X23076   6.279   0.552   4.252 -1.4523  0.7935 -1.8850
  187DOPC   H8Y23077   6.350   0.678   4.317  2.1266 -1.9942  1.8800
  187DOPC   C3923078   6.490   0.522   4.242  0.2554 -0.0409  0.2386
  187DOPC   H9X23079   6.542   0.489   4.151 -0.3764  1.5573 -0.7472
  187DOPC  C31023080   6.555   0.498   4.362 -0.0796  0.7283  0.4958
  187DOPC  H10X23081   6.640   0.429   4.357 -1.8650 -1.5617 -0.2011
  187DOPC  C31123082   6.524   0.544   4.503  0.4876  0.3709 -0.0698
  187DOPC  H11X23083   6.501   0.456   4.567  0.9477  1.1791  1.2448
  187DOPC  H11Y23084   6.436   0.612   4.501 -0.9086 -1.3933 -1.1906
  187DOPC  C31223085   6.642   0.618   4.570  0.1882  0.2798  0.4867
  187DOPC  H12X23086   6.669   0.699   4.498 -2.7877 -0.4972 -1.7134
  187DOPC  H12Y23087   6.724   0.543   4.578 -2.6584 -2.9260  2.2925
  187DOPC  C31323088   6.602   0.664   4.712  0.4995  0.3410 -0.1243
  187DOPC  H13X23089   6.685   0.720   4.760  0.8957  0.4614 -0.9262
  187DOPC  H13Y23090   6.512   0.728   4.706  0.5521  0.3335 -1.2565
  187DOPC  C31423091   6.575   0.548   4.818 -0.3582 -0.6398 -0.4161
  187DOPC  H14X23092   6.522   0.589   4.906 -1.7518  0.1431 -1.5881
  187DOPC  H14Y23093   6.515   0.470   4.768  0.2930 -2.5044  1.5535
  187DOPC  C31523094   6.706   0.483   4.868 -0.3463  0.2305  0.5904
  187DOPC  H15X23095   6.801   0.540   4.873 -0.4973  0.4237  1.3196
  187DOPC  H15Y23096   6.733   0.406   4.793 -1.0605  1.2348 -0.7515
  187DOPC  C31623097   6.683   0.416   5.003 -0.6223  0.2779 -0.3769
  187DOPC  H16X23098   6.766   0.353   5.042 -2.0543 -0.6420  1.3594
  187DOPC  H16Y23099   6.663   0.482   5.090  0.1992  1.4693 -1.0777
  187DOPC  C31723100   6.569   0.311   5.001 -0.0416 -0.1373  0.1324
  187DOPC  H17X23101   6.476   0.369   4.984  0.8978  1.7999  1.2015
  187DOPC  H17Y23102   6.580   0.239   4.918 -1.7598 -3.5661  2.6100
  187DOPC  C31823103   6.556   0.231   5.129  0.0944  0.1621 -0.3861
  187DOPC  H18X23104   6.533   0.297   5.215  0.1781  1.1877 -1.1339
  187DOPC  H18Y23105   6.475   0.156   5.121  0.3463 -0.1432 -0.1265
  187DOPC  H18Z23106   6.651   0.176   5.148  0.7327  1.9168  1.9800
  188DOPC     N23107   0.923   0.612   2.850 -0.4284  0.1301 -0.2973
  188DOPC   C1223108   0.881   0.470   2.886  0.4150 -0.5080 -0.8084
  188DOPC  H12A23109   0.885   0.476   2.994 -2.8926 -0.7606 -0.5607
  188DOPC  H12B23110   0.953   0.397   2.854  1.1241 -1.1600  1.9692
  188DOPC   C1323111   1.062   0.637   2.908  0.4289  0.5196 -0.2050
  188DOPC  H13A23112   1.137   0.568   2.874 -1.7106 -0.9844 -2.1806
  188DOPC  H13B23113   1.098   0.735   2.882  2.0108  0.3750  1.2539
  188DOPC  H13C23114   1.036   0.630   3.013  0.1121 -0.2205 -0.3223
  188DOPC   C1423115   0.821   0.717   2.894 -0.0333  0.3211 -0.6160
  188DOPC  H14A23116   0.804   0.706   3.000 -0.0617 -0.1452 -0.6677
  188DOPC  H14B23117   0.842   0.818   2.860  1.7903 -0.6002 -2.4153
  188DOPC  H14C23118   0.726   0.694   2.848 -0.9234 -0.0400  1.2837
  188DOPC   C1523119   0.936   0.629   2.700  0.0092  0.4389  0.2873
  188DOPC  H15A23120   0.834   0.622   2.666  0.0382  0.3401  0.2177
  188DOPC  H15B23121   0.994   0.549   2.655 -0.5914 -0.6123  1.3294
  188DOPC  H15C23122   0.968   0.728   2.673  0.4375 -0.2320 -1.8679
  188DOPC   C1123123   0.743   0.425   2.829 -0.0483 -0.5665  0.0646
  188DOPC  H11A23124   0.713   0.344   2.899 -1.4718 -0.0948  0.0411
  188DOPC  H11B23125   0.669   0.508   2.832  2.0188  1.3908  3.0551
  188DOPC     P23126   0.813   0.235   2.647 -0.4606  0.2968 -0.2183
  188DOPC   O1323127   0.818   0.226   2.499  0.2837  0.0434 -0.1652
  188DOPC   O1423128   0.730   0.134   2.716 -0.2202 -0.6580  0.1533
  188DOPC   O1223129   0.753   0.376   2.692 -0.8066 -0.2219  0.1741
  188DOPC   O1123130   0.962   0.227   2.706 -0.0453  0.1881 -0.1421
  188DOPC    C123131   1.029   0.103   2.737  0.2652 -0.6889 -0.4362
  188DOPC    HA23132   1.139   0.115   2.727  0.5554  0.7189  3.0657
  188DOPC    HB23133   0.988   0.024   2.669  0.0919 -1.2340  0.2829
  188DOPC    C223134   1.013   0.065   2.888  0.3361  0.2088  1.4973
  188DOPC    HS23135   0.907   0.062   2.920  0.5333 -0.3277  2.1239
  188DOPC   O2123136   1.103   0.149   2.967 -0.2212  0.4314  0.4220
  188DOPC   C2123137   1.046   0.188   3.080 -0.2796  0.7052 -0.2464
  188DOPC   O2223138   0.933   0.157   3.113 -0.2784  0.0466 -0.5445
  188DOPC   C2223139   1.148   0.275   3.152 -0.6604  0.4299 -0.9525
  188DOPC   H2R23140   1.135   0.382   3.124 -1.7583  1.0536  1.6480
  188DOPC   H2S23141   1.244   0.236   3.112 -1.6154 -0.4507 -2.4899
  188DOPC    C323142   1.060  -0.082   2.898 -0.2466  0.0921  0.2731
  188DOPC    HX23143   1.143  -0.090   2.824 -0.5860  0.4740 -0.1527
  188DOPC    HY23144   0.974  -0.142   2.863 -0.2356  0.2302  0.0063
  188DOPC   O3123145   1.110  -0.117   3.032  0.2260  0.5497 -0.0615
  188DOPC   C3123146   1.043  -0.210   3.092 -0.5299 -0.0470  0.7162
  188DOPC   O3223147   0.943  -0.265   3.058 -0.2985 -0.1373  0.0998
  188DOPC   C3223148   1.116  -0.239   3.225 -0.0184 -0.2813  0.3344
  188DOPC   H2X23149   1.225  -0.233   3.204  0.1271  1.7124  1.4079
  188DOPC   H2Y23150   1.085  -0.169   3.306  0.1606 -0.6886  0.7592
  188DOPC   C2323151   1.142   0.266   3.315  0.3439 -0.6045  0.1907
  188DOPC   H3R23152   1.038   0.263   3.353  1.5600  0.3144  4.0529
  188DOPC   H3S23153   1.183   0.362   3.352  0.1401 -0.6121  0.4393
  188DOPC   C2423154   1.224   0.143   3.360 -0.2379 -0.2997 -0.3224
  188DOPC   H4R23155   1.325   0.153   3.315  0.9858 -1.3061  2.0354
  188DOPC   H4S23156   1.172   0.051   3.324 -0.5357  0.1967 -1.1975
  188DOPC   C2523157   1.233   0.137   3.513 -0.2964 -0.1441  0.4701
  188DOPC   H5R23158   1.130   0.152   3.553 -2.1035 -0.3441 -3.6353
  188DOPC   H5S23159   1.288   0.228   3.545 -0.3844  0.5024 -1.1089
  188DOPC   C2623160   1.299   0.000   3.562 -0.6366 -0.0543 -0.4031
  188DOPC   H6R23161   1.407   0.013   3.536 -0.6927  3.9850  0.6137
  188DOPC   H6S23162   1.251  -0.093   3.527 -2.8402  1.1905 -0.8496
  188DOPC   C2723163   1.294  -0.009   3.715 -0.6929 -0.0952 -0.4671
  188DOPC   H7R23164   1.187  -0.016   3.744 -0.9812 -0.3795 -1.5826
  188DOPC   H7S23165   1.327   0.087   3.760 -1.7055 -0.3388  0.8882
  188DOPC   C2823166   1.369  -0.125   3.774 -0.0320 -0.5159  0.2962
  188DOPC   H8R23167   1.393  -0.102   3.880  1.1301  1.0517 -0.2594
  188DOPC   H8S23168   1.471  -0.137   3.731  0.3508 -1.9415  1.5355
  188DOPC   C2923169   1.289  -0.251   3.769 -0.0431  0.3332 -0.0924
  188DOPC   H9R23170   1.211  -0.245   3.691  1.6548 -2.7279 -2.2123
  188DOPC  C21023171   1.292  -0.359   3.848  0.9376  0.2451 -0.1944
  188DOPC  H10R23172   1.212  -0.435   3.835  0.4543  1.1111 -2.9421
  188DOPC  C21123173   1.375  -0.383   3.967  0.1067 -0.2882  0.1733
  188DOPC  H11R23174   1.433  -0.298   4.010 -2.4661  0.1788  2.9871
  188DOPC  H11S23175   1.447  -0.462   3.935 -1.0851 -0.7080 -1.5810
  188DOPC  C21223176   1.303  -0.456   4.080 -0.1667 -0.0444  0.7930
  188DOPC  H12R23177   1.263  -0.551   4.040 -0.2626  0.2166  0.2595
  188DOPC  H12S23178   1.228  -0.391   4.130  0.3936  1.7300 -0.5875
  188DOPC  C21323179   1.400  -0.485   4.188  0.2188 -0.1009 -0.2762
  188DOPC  H13R23180   1.433  -0.392   4.238 -2.8039  0.4349  0.9055
  188DOPC  H13S23181   1.493  -0.520   4.139  0.8700  0.7050  0.3505
  188DOPC  C21423182   1.352  -0.594   4.287  0.2633 -0.5087 -0.2173
  188DOPC  H14R23183   1.331  -0.691   4.238  0.5325 -2.1170  2.6288
  188DOPC  H14S23184   1.260  -0.565   4.342  0.6839 -0.6656  0.5936
  188DOPC  C21523185   1.461  -0.610   4.396  0.7222 -0.3611 -0.4630
  188DOPC  H15R23186   1.477  -0.510   4.440 -0.6514  0.1102 -0.9796
  188DOPC  H15S23187   1.560  -0.642   4.358  0.1311 -0.5736 -1.8992
  188DOPC  C21623188   1.406  -0.704   4.500  0.3269  0.0367  0.2020
  188DOPC  H16R23189   1.422  -0.811   4.472  0.9274  0.1843 -0.0260
  188DOPC  H16S23190   1.296  -0.697   4.509  0.3998 -0.6187  2.1304
  188DOPC  C21723191   1.448  -0.688   4.647 -0.1359 -0.2420  0.1958
  188DOPC  H17R23192   1.554  -0.719   4.665  0.2321 -0.3242 -1.8355
  188DOPC  H17S23193   1.391  -0.768   4.698  1.1036 -2.1469 -1.2473
  188DOPC  C21823194   1.425  -0.549   4.708  0.3081 -0.7636  0.2391
  188DOPC  H18R23195   1.512  -0.480   4.707 -0.1631 -0.1583  0.2976
  188DOPC  H18S23196   1.404  -0.557   4.817 -0.9785 -0.5335  0.0266
  188DOPC  H18T23197   1.341  -0.495   4.658  2.4472  0.1033 -2.6751
  188DOPC   C3323198   1.094  -0.378   3.279 -0.1012  0.0766  0.6182
  188DOPC   H3X23199   1.145  -0.457   3.220 -0.5521  0.5246 -0.3931
  188DOPC   H3Y23200   0.987  -0.403   3.266  0.3104 -2.0409  0.9513
  188DOPC   C3423201   1.127  -0.390   3.426 -0.9701 -1.0737 -0.3508
  188DOPC   H4X23202   1.097  -0.295   3.474 -0.1920 -1.5461  1.1331
  188DOPC   H4Y23203   1.237  -0.382   3.437 -0.8279  1.7785 -2.6012
  188DOPC   C3523204   1.072  -0.509   3.504 -0.9204 -0.6123  0.2804
  188DOPC   H5X23205   0.962  -0.519   3.495 -1.2326  0.9229  1.7918
  188DOPC   H5Y23206   1.098  -0.499   3.612  1.7972  0.5132 -0.4035
  188DOPC   C3623207   1.129  -0.646   3.457  0.8326  0.1405 -0.3523
  188DOPC   H6X23208   1.079  -0.661   3.360  0.5945  0.1751 -0.2350
  188DOPC   H6Y23209   1.238  -0.636   3.436  0.5048  0.3203 -2.1227
  188DOPC   C3723210   1.094  -0.745   3.562  0.1414  0.3219 -0.2436
  188DOPC   H7X23211   1.139  -0.727   3.662  0.4338 -1.5255 -0.0227
  188DOPC   H7Y23212   0.984  -0.738   3.574  0.1400 -0.4006  0.1994
  188DOPC   C3823213   1.144  -0.884   3.515 -0.1087  0.5059  1.0421
  188DOPC   H8X23214   1.110  -0.956   3.592 -3.8017  2.0579  1.0406
  188DOPC   H8Y23215   1.255  -0.879   3.513 -0.1519  1.6618 -0.0601
  188DOPC   C3923216   1.100  -0.924   3.376  0.0858 -0.1868 -0.2894
  188DOPC   H9X23217   1.153  -0.885   3.288  0.6654  4.2239  1.7531
  188DOPC  C31023218   0.998  -1.011   3.359  0.4294  0.2368  0.0183
  188DOPC  H10X23219   0.974  -1.023   3.253  0.0434 -0.4832  0.1844
  188DOPC  C31123220   0.902  -1.091   3.449 -0.4133 -0.2806 -0.3433
  188DOPC  H11X23221   0.895  -1.041   3.548  1.2547 -1.3799  0.3810
  188DOPC  H11Y23222   0.946  -1.192   3.465 -1.0974 -0.8695 -1.9651
  188DOPC  C31223223   0.762  -1.095   3.388  0.2574  0.7963 -0.2210
  188DOPC  H12X23224   0.756  -1.149   3.291  0.0055  0.2241  0.1028
  188DOPC  H12Y23225   0.740  -0.992   3.352  0.9637  1.0166 -0.0281
  188DOPC  C31323226   0.648  -1.134   3.484 -0.4836  0.3523 -0.2273
  188DOPC  H13X23227   0.651  -1.077   3.579  0.1332 -0.9571  0.5717
  188DOPC  H13Y23228   0.546  -1.129   3.442 -0.1764 -0.9905 -1.2065
  188DOPC  C31423229   0.666  -1.274   3.532 -0.4975  0.0323 -0.1711
  188DOPC  H14X23230   0.695  -1.334   3.443 -0.4427 -0.0014 -0.1310
  188DOPC  H14Y23231   0.758  -1.284   3.594 -1.6183 -2.4110  1.2615
  188DOPC  C31523232   0.545  -1.324   3.613 -0.1409  0.3203 -0.1411
  188DOPC  H15X23233   0.535  -1.433   3.597 -0.6559  0.4161 -0.5063
  188DOPC  H15Y23234   0.449  -1.289   3.570 -0.7257  1.3153  1.8499
  188DOPC  C31623235   0.553  -1.290   3.766 -0.6420  0.3053  0.0531
  188DOPC  H16X23236   0.513  -1.187   3.774 -0.1457  0.4481  0.8244
  188DOPC  H16Y23237   0.484  -1.365   3.810  1.7339 -1.6535  0.6496
  188DOPC  C31723238   0.689  -1.299   3.827 -1.1058  0.4207 -0.8278
  188DOPC  H17X23239   0.746  -1.383   3.782  0.7535  0.8851  0.5392
  188DOPC  H17Y23240   0.750  -1.206   3.822 -1.1312  0.7121  2.1547
  188DOPC  C31823241   0.690  -1.326   3.979  0.5125 -0.0639 -0.2096
  188DOPC  H18X23242   0.655  -1.429   4.000  0.2211  0.2267  0.7656
  188DOPC  H18Y23243   0.789  -1.305   4.024  0.2025  1.5151 -0.2257
  188DOPC  H18Z23244   0.613  -1.258   4.022 -0.8499 -0.5680 -1.7116
  189DOPC     N23245   3.189   0.230   2.162  0.0901  0.6121 -0.0543
  189DOPC   C1223246   3.222   0.230   2.308 -0.6469 -0.2324  0.5548
  189DOPC  H12A23247   3.207   0.332   2.341 -3.1551 -0.5507  0.6271
  189DOPC  H12B23248   3.324   0.197   2.324  0.3108  0.7533 -2.7645
  189DOPC   C1323249   3.050   0.264   2.135  0.3168 -0.3693 -0.1868
  189DOPC  H13A23250   2.982   0.199   2.187  1.5055 -0.7652  0.8994
  189DOPC  H13B23251   3.026   0.365   2.164  0.3244 -0.4613  0.1378
  189DOPC  H13C23252   3.035   0.249   2.029  0.6857 -0.2927 -0.2517
  189DOPC   C1423253   3.211   0.094   2.111 -0.4091 -0.3307  0.0350
  189DOPC  H14A23254   3.214   0.100   2.004  1.2562  0.8540  0.1057
  189DOPC  H14B23255   3.295   0.044   2.157 -0.1270  0.5124  0.4571
  189DOPC  H14C23256   3.124   0.034   2.133 -1.9490  1.1267 -1.8171
  189DOPC   C1523257   3.284   0.320   2.093 -0.5093 -0.2411  0.4565
  189DOPC  H15A23258   3.386   0.289   2.111 -0.7018 -1.1058  0.1481
  189DOPC  H15B23259   3.281   0.420   2.133  0.0782 -0.8440  2.0996
  189DOPC  H15C23260   3.276   0.327   1.985  2.9157  1.2910  0.1621
  189DOPC   C1123261   3.126   0.153   2.401 -0.2102 -0.2144  0.4302
  189DOPC  H11A23262   3.116   0.057   2.346  3.9886 -0.1601 -0.7796
  189DOPC  H11B23263   3.168   0.134   2.502 -1.6927  0.0348  1.1236
  189DOPC     P23264   2.984   0.360   2.489 -0.2563 -0.6150  0.0650
  189DOPC   O1323265   2.839   0.406   2.488 -0.3862 -0.1180 -0.4155
  189DOPC   O1423266   3.082   0.454   2.424 -0.3165 -0.0116  0.2616
  189DOPC   O1223267   3.004   0.223   2.421 -0.0160 -0.1559 -0.3052
  189DOPC   O1123268   3.038   0.320   2.634 -0.0049  0.5621 -0.2629
  189DOPC    C123269   2.984   0.205   2.701  0.3899 -0.3064 -0.5801
  189DOPC    HA23270   3.077   0.162   2.745 -1.6671 -2.3199  2.1734
  189DOPC    HB23271   2.925   0.129   2.646 -0.0630 -0.6834  0.4049
  189DOPC    C223272   2.892   0.251   2.819 -0.2501 -0.5846  0.1775
  189DOPC    HS23273   2.807   0.304   2.771 -0.7146 -1.8742 -0.4621
  189DOPC   O2123274   2.971   0.328   2.907  0.1145  0.1203  0.1244
  189DOPC   C2123275   2.906   0.434   2.950  0.3925 -0.0780  0.2053
  189DOPC   O2223276   2.783   0.454   2.942 -0.1396  0.1298  0.9401
  189DOPC   C2223277   3.007   0.531   3.001 -0.3570 -0.1251 -0.5716
  189DOPC   H2R23278   3.066   0.560   2.912  1.2930 -1.6727 -0.0282
  189DOPC   H2S23279   3.075   0.471   3.066  0.0580  0.2457 -0.6602
  189DOPC    C323280   2.835   0.130   2.893 -0.1416  0.3057 -0.4648
  189DOPC    HX23281   2.772   0.066   2.826 -0.8578  1.0932 -0.5612
  189DOPC    HY23282   2.756   0.172   2.960  0.2203 -0.0096  0.1628
  189DOPC   O3123283   2.935   0.051   2.966 -0.0475 -0.3074 -0.6398
  189DOPC   C3123284   2.964   0.101   3.092 -0.1694  0.6420  0.0504
  189DOPC   O3223285   2.891   0.176   3.154 -0.0610  0.1069 -0.5637
  189DOPC   C3223286   3.078   0.022   3.152  0.0776 -0.3663 -0.3962
  189DOPC   H2X23287   3.036  -0.052   3.223 -1.9907  1.0626 -0.0465
  189DOPC   H2Y23288   3.140  -0.013   3.066 -0.5385 -1.3828 -0.4453
  189DOPC   C2323289   2.944   0.652   3.061 -0.6486  0.4760 -0.7121
  189DOPC   H3R23290   2.874   0.705   2.992 -0.8884  2.6579  1.0762
  189DOPC   H3S23291   3.029   0.719   3.088 -0.6866  1.0428 -1.9125
  189DOPC   C2423292   2.859   0.622   3.185  0.3886  0.8055  0.3324
  189DOPC   H4R23293   2.763   0.574   3.160  0.2874  1.1953 -0.0445
  189DOPC   H4S23294   2.833   0.717   3.237 -3.7811 -0.4064  0.8091
  189DOPC   C2523295   2.924   0.530   3.288 -0.1631 -0.0300  0.0075
  189DOPC   H5R23296   3.025   0.570   3.313 -0.1360 -0.6704  0.9910
  189DOPC   H5S23297   2.935   0.424   3.259  1.7618  0.2005 -0.2405
  189DOPC   C2623298   2.845   0.531   3.415  0.1066 -0.3916  0.0149
  189DOPC   H6R23299   2.757   0.469   3.386 -1.5134  1.9761 -0.4695
  189DOPC   H6S23300   2.805   0.634   3.429 -0.1209 -0.8149  3.0203
  189DOPC   C2723301   2.917   0.478   3.536 -0.0823 -0.1202  0.2573
  189DOPC   H7R23302   2.998   0.550   3.560  1.1947 -0.8917 -1.4796
  189DOPC   H7S23303   2.975   0.383   3.530  1.8936  1.0367  0.0492
  189DOPC   C2823304   2.830   0.461   3.660  0.0815  0.1312  0.9685
  189DOPC   H8R23305   2.730   0.421   3.633 -0.6350  0.9731  2.2502
  189DOPC   H8S23306   2.802   0.568   3.672 -0.0290  0.2442 -0.1502
  189DOPC   C2923307   2.890   0.398   3.784  0.3558 -0.1019  0.2043
  189DOPC   H9R23308   2.970   0.327   3.760  1.8352  0.1418  3.8445
  189DOPC  C21023309   2.866   0.429   3.916 -0.3395 -0.2010  1.0280
  189DOPC  H10R23310   2.931   0.385   3.993  0.7157  1.0940  0.9169
  189DOPC  C21123311   2.773   0.542   3.960 -0.1047 -0.1190 -0.1737
  189DOPC  H11R23312   2.798   0.642   3.918 -0.9446  0.3821  0.4826
  189DOPC  H11S23313   2.787   0.549   4.070  2.5421  1.4413 -0.5209
  189DOPC  C21223314   2.626   0.511   3.928 -0.4044  0.0931  0.1511
  189DOPC  H12R23315   2.622   0.500   3.817  2.9425 -2.6551  0.1257
  189DOPC  H12S23316   2.569   0.599   3.963  1.9276  3.3313 -3.3880
  189DOPC  C21323317   2.568   0.382   3.988 -0.3656  0.9299  0.3905
  189DOPC  H13R23318   2.603   0.296   3.928 -3.1732 -0.6981  0.9400
  189DOPC  H13S23319   2.458   0.392   4.000 -0.3856 -0.0206  1.0661
  189DOPC  C21423320   2.610   0.349   4.130  0.2318 -0.2975 -0.5753
  189DOPC  H14R23321   2.589   0.436   4.197  0.8822  0.2260 -1.0396
  189DOPC  H14S23322   2.721   0.344   4.130  0.2347 -1.0821  1.2773
  189DOPC  C21523323   2.540   0.231   4.193  0.3604  0.6994  0.6095
  189DOPC  H15R23324   2.575   0.144   4.134 -0.0086 -1.1005  2.9019
  189DOPC  H15S23325   2.430   0.246   4.187  0.6440  2.3868 -1.5119
  189DOPC  C21623326   2.584   0.219   4.342 -0.0297 -0.4984  0.4762
  189DOPC  H16R23327   2.688   0.259   4.349 -0.3156  0.1375  1.1606
  189DOPC  H16S23328   2.577   0.111   4.367  0.3239 -1.0762 -1.6845
  189DOPC  C21723329   2.511   0.307   4.441 -0.2866  0.1704 -0.5062
  189DOPC  H17R23330   2.417   0.261   4.478  0.3932 -1.1483 -0.3664
  189DOPC  H17S23331   2.489   0.406   4.396  3.5211  2.1911  1.5857
  189DOPC  C21823332   2.599   0.334   4.568  0.4485 -0.7834  0.6121
  189DOPC  H18R23333   2.707   0.338   4.540  0.2091 -2.3682 -0.7519
  189DOPC  H18S23334   2.583   0.254   4.643 -2.2742 -0.1711  0.7697
  189DOPC  H18T23335   2.570   0.426   4.621  1.1713 -2.2387  3.7594
  189DOPC   C3323336   3.167   0.117   3.233 -0.4883  0.2967  0.3506
  189DOPC   H3X23337   3.188   0.204   3.168  2.0005 -1.2343 -1.0394
  189DOPC   H3Y23338   3.264   0.065   3.246 -0.4555 -0.4132 -2.2458
  189DOPC   C3423339   3.124   0.162   3.367  0.1307  0.2520 -1.0778
  189DOPC   H4X23340   3.017   0.191   3.368  0.2793  0.8611  0.8875
  189DOPC   H4Y23341   3.177   0.255   3.394  0.2026 -0.1063  0.0524
  189DOPC   C3523342   3.151   0.054   3.473  0.3620  0.2255  0.5395
  189DOPC   H5X23343   3.261   0.037   3.469  0.4547  0.9663 -2.3459
  189DOPC   H5Y23344   3.103  -0.042   3.443 -1.0126  1.1317 -0.2479
  189DOPC   C3623345   3.100   0.092   3.611 -0.4774  0.6963 -0.2709
  189DOPC   H6X23346   3.151   0.188   3.635 -0.7649  0.4784  1.2907
  189DOPC   H6Y23347   2.989   0.105   3.616 -0.4410  0.9594 -0.1348
  189DOPC   C3723348   3.132  -0.018   3.714  0.3173 -0.8407 -0.3607
  189DOPC   H7X23349   3.060  -0.102   3.700 -0.2629 -0.7722  1.8243
  189DOPC   H7Y23350   3.223  -0.075   3.684  0.4263 -1.1155  0.4542
  189DOPC   C3823351   3.135   0.037   3.854  0.1016 -0.2710 -0.1987
  189DOPC   H8X23352   3.187   0.135   3.856 -0.8432  0.2394  0.2987
  189DOPC   H8Y23353   3.207  -0.019   3.917  1.8705  2.8367  0.7255
  189DOPC   C3923354   2.999   0.038   3.915  0.0573  0.1768 -0.2799
  189DOPC   H9X23355   2.923   0.018   3.838  1.8334 -0.0433 -2.0714
  189DOPC  C31023356   2.968   0.066   4.042  0.1636  0.4980 -0.2023
  189DOPC  H10X23357   2.860   0.075   4.065  0.2550 -1.0988  1.0809
  189DOPC  C31123358   3.070   0.101   4.146 -0.4111 -0.8207 -0.1218
  189DOPC  H11X23359   3.051   0.205   4.180 -1.5301 -0.8208 -0.7036
  189DOPC  H11Y23360   3.170   0.094   4.099 -0.4457  2.2777 -0.8705
  189DOPC  C31223361   3.070  -0.003   4.256 -0.5504 -1.1452  0.3199
  189DOPC  H12X23362   3.163   0.027   4.309  0.3563  0.0876 -1.8120
  189DOPC  H12Y23363   3.070  -0.099   4.200 -0.2546  0.0970 -1.9276
  189DOPC  C31323364   2.950   0.005   4.357 -0.0870  0.1327  0.0447
  189DOPC  H13X23365   2.937   0.110   4.392 -2.9481 -0.5663  1.4124
  189DOPC  H13Y23366   2.857  -0.017   4.302 -0.4003  1.8661 -0.1585
  189DOPC  C31423367   2.968  -0.082   4.488  0.4119  0.3946  0.5274
  189DOPC  H14X23368   2.984  -0.188   4.460  0.4079  0.2860  0.9285
  189DOPC  H14Y23369   3.058  -0.047   4.543  0.6270 -0.4078  0.6931
  189DOPC  C31523370   2.849  -0.071   4.576 -0.3120  0.7016 -0.1776
  189DOPC  H15X23371   2.760  -0.115   4.526 -1.6182  1.6704  1.1638
  189DOPC  H15Y23372   2.818   0.033   4.603  0.7275  0.3889  2.6019
  189DOPC  C31623373   2.879  -0.124   4.721  0.6898  0.0119 -0.0607
  189DOPC  H16X23374   2.886  -0.234   4.728 -4.5428 -0.5587  0.2478
  189DOPC  H16Y23375   2.975  -0.085   4.761  1.7428 -2.6891  0.2451
  189DOPC  C31723376   2.760  -0.100   4.817 -0.4470  0.0487 -0.0116
  189DOPC  H17X23377   2.751   0.011   4.826  0.2420  0.3074 -1.9820
  189DOPC  H17Y23378   2.667  -0.136   4.768 -0.7541 -0.4499  0.9299
  189DOPC  C31823379   2.777  -0.160   4.960 -0.0984  0.2352 -0.8488
  189DOPC  H18X23380   2.688  -0.147   5.025  2.8794  1.2881  3.4857
  189DOPC  H18Y23381   2.796  -0.268   4.945 -1.9357  0.0769 -2.4553
  189DOPC  H18Z23382   2.852  -0.107   5.022 -1.8616  0.5175  1.1692
  190DOPC     N23383   0.982   7.000   2.292 -0.1864  0.1756 -0.2100
  190DOPC   C1223384   0.907   7.127   2.337  0.2727  0.8477  0.2336
  190DOPC  H12A23385   0.870   7.168   2.245  2.1823  1.6360 -0.2353
  190DOPC  H12B23386   0.987   7.192   2.370  2.1798 -1.1397 -0.2070
  190DOPC   C1323387   1.085   7.040   2.197  0.2005 -0.2018  0.5055
  190DOPC  H13A23388   1.141   6.957   2.156 -0.4482  0.7769 -2.6234
  190DOPC  H13B23389   1.046   7.095   2.113  1.1462  1.5481  1.1610
  190DOPC  H13C23390   1.146   7.112   2.250 -2.1580  0.7567  2.0630
  190DOPC   C1423391   0.888   6.897   2.225 -0.8122 -0.0408 -1.1324
  190DOPC  H14A23392   0.806   6.864   2.287  0.5145 -0.3332  0.5388
  190DOPC  H14B23393   0.863   6.951   2.135  1.1477  3.0568  0.0354
  190DOPC  H14C23394   0.941   6.805   2.203 -3.2273 -1.7214 -0.3227
  190DOPC   C1523395   1.036   6.934   2.418 -0.1680  0.0558  0.1518
  190DOPC  H15A23396   1.061   6.830   2.401  2.5856  0.2714  2.1324
  190DOPC  H15B23397   0.969   6.941   2.502 -0.9661  1.1510 -0.5577
  190DOPC  H15C23398   1.131   6.982   2.433 -0.6465  1.6811 -1.6755
  190DOPC   C1123399   0.795   7.118   2.437  0.6108 -0.1000 -0.4019
  190DOPC  H11A23400   0.751   7.219   2.437  0.1164 -0.3077 -1.5383
  190DOPC  H11B23401   0.706   7.059   2.405 -0.1702 -0.6459  2.4355
  190DOPC     P23402   0.911   7.188   2.649 -0.1953 -0.2061 -0.0823
  190DOPC   O1323403   0.812   7.291   2.683 -0.3690 -0.2291 -1.0500
  190DOPC   O1423404   1.036   7.230   2.583 -0.9169 -0.2905  0.4559
  190DOPC   O1223405   0.829   7.080   2.567 -0.2413  0.3261  0.3556
  190DOPC   O1123406   0.941   7.117   2.782  0.2562 -0.1172 -0.2857
  190DOPC    C123407   0.948   6.976   2.799  0.2051  0.8498  0.0333
  190DOPC    HA23408   0.995   6.918   2.717 -1.0716 -2.5348  1.4903
  190DOPC    HB23409   0.842   6.947   2.815  0.8514 -1.8683 -0.0113
  190DOPC    C223410   1.034   6.939   2.926  1.0337 -0.3354  0.0541
  190DOPC    HS23411   1.073   6.835   2.918  2.1106  0.1501 -1.5897
  190DOPC   O2123412   0.962   6.970   3.043 -0.2721  0.6741 -0.4322
  190DOPC   C2123413   0.866   6.881   3.073 -0.4029  0.0472 -0.0165
  190DOPC   O2223414   0.863   6.771   3.017 -0.1703  0.2773  0.3325
  190DOPC   C2223415   0.790   6.950   3.184  0.0062  1.0331  0.0516
  190DOPC   H2R23416   0.748   7.043   3.141 -0.4166  0.0118 -1.8540
  190DOPC   H2S23417   0.855   6.965   3.273  0.9874 -3.3689  0.3079
  190DOPC    C323418   1.168   7.022   2.941 -0.2900 -0.2830  0.7804
  190DOPC    HX23419   1.144   7.130   2.955  1.7880  0.3376 -0.0097
  190DOPC    HY23420   1.211   7.017   2.839 -1.8008  0.4858  0.0603
  190DOPC   O3123421   1.256   6.980   3.048  0.8206  0.2537  0.4297
  190DOPC   C3123422   1.347   6.890   3.015 -0.3907 -0.1378  0.3138
  190DOPC   O3223423   1.359   6.831   2.911  0.2145 -0.1553 -0.1484
  190DOPC   C3223424   1.426   6.854   3.137 -0.3315 -0.4334 -0.5084
  190DOPC   H2X23425   1.416   6.939   3.209  2.0032 -0.0188 -0.5982
  190DOPC   H2Y23426   1.378   6.769   3.190 -0.6990 -1.5338 -2.5174
  190DOPC   C2323427   0.660   6.880   3.232  0.0624  0.4064 -0.7959
  190DOPC   H3R23428   0.673   6.776   3.270 -0.5039 -0.2608 -2.3462
  190DOPC   H3S23429   0.599   6.864   3.140  0.9322 -2.9188 -0.9353
  190DOPC   C2423430   0.591   6.966   3.338 -0.5453 -0.0335 -0.2350
  190DOPC   H4R23431   0.677   7.000   3.400  0.0602 -0.3932 -0.8575
  190DOPC   H4S23432   0.528   6.899   3.400  0.8740 -0.1323  1.1752
  190DOPC   C2523433   0.508   7.076   3.273  0.8806 -0.7792  0.1433
  190DOPC   H5R23434   0.428   7.020   3.220  2.3230 -4.4513  1.4752
  190DOPC   H5S23435   0.569   7.140   3.206  0.1749  1.0493  1.1880
  190DOPC   C2623436   0.436   7.171   3.374 -0.1250  0.3108  0.3598
  190DOPC   H6R23437   0.522   7.204   3.436  0.1107  2.3711 -0.9240
  190DOPC   H6S23438   0.356   7.114   3.425 -1.0143 -0.3756 -1.6796
  190DOPC   C2723439   0.369   7.282   3.293 -0.2180  0.2275  0.2616
  190DOPC   H7R23440   0.317   7.241   3.204  3.1443 -1.9612 -0.8582
  190DOPC   H7S23441   0.450   7.344   3.248  0.9766 -1.6092 -0.1991
  190DOPC   C2823442   0.285   7.382   3.379  0.4784  0.9509  0.1686
  190DOPC   H8R23443   0.208   7.316   3.424  0.7054  0.1636 -0.5747
  190DOPC   H8S23444   0.231   7.439   3.300  0.3331  0.9958  0.2977
  190DOPC   C2923445   0.339   7.488   3.476 -0.2257  0.1004  0.2813
  190DOPC   H9R23446   0.425   7.545   3.439 -0.5127 -0.9229 -2.1366
  190DOPC  C21023447   0.296   7.501   3.602  0.5052  0.2232  0.4965
  190DOPC  H10R23448   0.334   7.589   3.657  0.0528  0.5438  0.3016
  190DOPC  C21123449   0.186   7.422   3.668 -0.9042 -0.4164  0.2083
  190DOPC  H11R23450   0.148   7.345   3.598  1.2996 -1.6602  0.2685
  190DOPC  H11S23451   0.097   7.476   3.706 -0.1811  1.0374 -0.1075
  190DOPC  C21223452   0.243   7.326   3.772  0.3528 -0.5734 -0.4133
  190DOPC  H12R23453   0.151   7.274   3.807  0.4975  0.0655  0.9780
  190DOPC  H12S23454   0.301   7.383   3.848  0.3134 -0.5661 -0.3883
  190DOPC  C21323455   0.334   7.219   3.714  0.6577 -0.3794  0.4462
  190DOPC  H13R23456   0.440   7.243   3.691  1.5226 -3.2790  0.9320
  190DOPC  H13S23457   0.296   7.187   3.614 -3.9514 -0.1283  1.8758
  190DOPC  C21423458   0.358   7.091   3.801  0.4172 -0.2172 -0.6235
  190DOPC  H14R23459   0.257   7.046   3.800  1.2543 -2.2630 -2.2811
  190DOPC  H14S23460   0.397   7.118   3.901 -1.3805  0.6766 -0.1306
  190DOPC  C21523461   0.465   7.003   3.727  0.2640 -0.6932 -0.2832
  190DOPC  H15R23462   0.559   7.055   3.700 -0.4569  1.3966  0.9646
  190DOPC  H15S23463   0.430   6.967   3.628  0.5847 -1.1440 -0.2370
  190DOPC  C21623464   0.528   6.886   3.808  0.4796  1.1803 -0.0439
  190DOPC  H16R23465   0.456   6.827   3.867  2.4725 -1.1401  0.2063
  190DOPC  H16S23466   0.603   6.919   3.883  0.5591 -0.3048  0.5485
  190DOPC  C21723467   0.614   6.798   3.716 -0.4732 -0.1772 -0.3498
  190DOPC  H17R23468   0.697   6.838   3.654  0.9182  0.3497  1.7586
  190DOPC  H17S23469   0.548   6.757   3.637 -0.2486 -1.0410 -0.1024
  190DOPC  C21823470   0.681   6.688   3.803  0.6355 -0.1454  0.1417
  190DOPC  H18R23471   0.762   6.723   3.870  0.0795 -0.0199  0.7680
  190DOPC  H18S23472   0.732   6.624   3.728  0.8899  1.9629 -1.5900
  190DOPC  H18T23473   0.607   6.626   3.858 -0.3433  1.1510  0.3370
  190DOPC   C3323474   1.575   6.824   3.103  0.6489  0.2634 -0.3797
  190DOPC   H3X23475   1.626   6.906   3.048  1.2945  0.0937 -0.0546
  190DOPC   H3Y23476   1.574   6.735   3.036  1.5470 -0.0914  0.0575
  190DOPC   C3423477   1.662   6.783   3.228  0.5839  0.6985 -0.3688
  190DOPC   H4X23478   1.610   6.704   3.287  0.6633  1.0603  0.1958
  190DOPC   H4Y23479   1.682   6.865   3.300  1.3990  2.3814 -2.3948
  190DOPC   C3523480   1.796   6.718   3.189  0.7393 -0.1395 -0.2638
  190DOPC   H5X23481   1.872   6.797   3.169  1.5919 -0.8796  0.0402
  190DOPC   H5Y23482   1.784   6.662   3.094 -0.6257 -0.4541  0.0653
  190DOPC   C3623483   1.855   6.623   3.299 -0.2785 -0.2386  0.1150
  190DOPC   H6X23484   1.884   6.683   3.387  0.4833 -0.4746  0.0303
  190DOPC   H6Y23485   1.776   6.552   3.333  2.3958 -3.0997  0.7574
  190DOPC   C3723486   1.974   6.544   3.250  0.3094 -0.3403 -0.2431
  190DOPC   H7X23487   1.952   6.478   3.163 -0.4891  0.6680 -0.8173
  190DOPC   H7Y23488   2.044   6.623   3.216 -0.0444 -0.0311 -0.2548
  190DOPC   C3823489   2.052   6.473   3.362 -0.2890 -0.6938  0.6193
  190DOPC   H8X23490   2.067   6.558   3.432  0.5668  1.2428 -1.7780
  190DOPC   H8Y23491   2.150   6.447   3.318 -0.8145 -0.0970 -0.9568
  190DOPC   C3923492   1.976   6.359   3.416 -0.6365  0.4202  0.0124
  190DOPC   H9X23493   1.937   6.294   3.336 -0.9937 -1.7847  1.8448
  190DOPC  C31023494   1.955   6.317   3.541  0.4796 -0.6208  0.2875
  190DOPC  H10X23495   1.894   6.228   3.564 -0.3350 -0.2361 -0.3035
  190DOPC  C31123496   2.004   6.394   3.658 -0.1453  0.7595  0.1287
  190DOPC  H11X23497   1.922   6.456   3.700  0.9240  1.7266  0.8302
  190DOPC  H11Y23498   2.081   6.470   3.635  0.7352 -0.0352  0.3769
  190DOPC  C31223499   2.059   6.292   3.761 -0.1222 -0.1974 -0.3279
  190DOPC  H12X23500   2.165   6.271   3.735  0.6033  0.0200  2.1392
  190DOPC  H12Y23501   1.999   6.198   3.764 -2.6368  1.3137 -0.5866
  190DOPC  C31323502   2.062   6.354   3.905  0.2458 -0.5272 -0.8416
  190DOPC  H13X23503   2.119   6.449   3.901 -0.1010 -0.3504 -1.7129
  190DOPC  H13Y23504   1.959   6.381   3.936  1.5082  2.5153  1.2003
  190DOPC  C31423505   2.123   6.268   4.022 -0.0196 -0.6428  0.3558
  190DOPC  H14X23506   2.230   6.244   4.001  0.4361  0.5748  1.1462
  190DOPC  H14Y23507   2.124   6.329   4.115 -1.2881 -0.8391  0.5171
  190DOPC  C31523508   2.033   6.146   4.048 -0.3963 -0.1259  0.7555
  190DOPC  H15X23509   2.092   6.069   4.102 -1.4800  0.1315  2.3821
  190DOPC  H15Y23510   1.997   6.094   3.957  0.9626  0.6016 -0.2314
  190DOPC  C31623511   1.914   6.176   4.139 -0.1826 -0.0663  0.1827
  190DOPC  H16X23512   1.856   6.257   4.089  0.2955 -0.6708 -1.4187
  190DOPC  H16Y23513   1.847   6.086   4.135 -1.2739  0.7499 -0.4746
  190DOPC  C31723514   1.949   6.199   4.288  0.1412 -0.7157  0.0728
  190DOPC  H17X23515   2.028   6.276   4.299 -1.8577  1.0980  3.3677
  190DOPC  H17Y23516   1.859   6.238   4.339  0.8743 -1.3407  1.9284
  190DOPC  C31823517   1.990   6.076   4.361  0.3394 -0.2905 -0.9854
  190DOPC  H18X23518   1.919   5.992   4.344  2.6409 -2.5086 -0.1834
  190DOPC  H18Y23519   2.088   6.037   4.328  1.1466 -0.0749  0.9907
  190DOPC  H18Z23520   1.998   6.105   4.468 -1.3278 -4.0804  0.3469
  191DOPC     N23521   2.875   1.106   2.566  0.1056 -0.4179 -0.5155
  191DOPC   C1223522   3.015   1.170   2.558  0.2743  0.1988  0.7402
  191DOPC  H12A23523   3.003   1.269   2.600 -4.8534 -0.0738  0.5754
  191DOPC  H12B23524   3.034   1.196   2.455  1.9491 -1.2434  0.6455
  191DOPC   C1323525   2.775   1.202   2.515 -0.0818 -0.0455 -0.2593
  191DOPC  H13A23526   2.812   1.270   2.439  0.3162 -0.2996 -0.2946
  191DOPC  H13B23527   2.687   1.160   2.470  0.0525  1.4539 -2.0383
  191DOPC  H13C23528   2.739   1.259   2.600 -2.6457 -0.6918 -0.8357
  191DOPC   C1423529   2.841   1.056   2.698  0.6984 -0.0933 -0.1349
  191DOPC  H14A23530   2.745   1.008   2.712  0.3078  0.9310  0.9195
  191DOPC  H14B23531   2.913   0.979   2.721 -0.5220 -0.7308  1.7298
  191DOPC  H14C23532   2.851   1.142   2.762 -0.6225  0.2974 -0.4210
  191DOPC   C1523533   2.873   1.001   2.458 -0.6514  0.4211 -0.3807
  191DOPC  H15A23534   2.774   0.960   2.444  0.3270 -1.2106 -3.4609
  191DOPC  H15B23535   2.936   0.919   2.488 -1.5380  0.2028  0.9673
  191DOPC  H15C23536   2.905   1.045   2.365  0.4447 -0.8610 -0.6291
  191DOPC   C1123537   3.136   1.096   2.623  0.2451  0.2362  0.6281
  191DOPC  H11A23538   3.137   0.995   2.575 -2.1319  0.5814 -0.3061
  191DOPC  H11B23539   3.226   1.152   2.592  1.1229 -1.4684 -0.0244
  191DOPC     P23540   3.128   1.203   2.861  0.4171  0.1474 -0.2767
  191DOPC   O1323541   3.069   1.153   2.988 -0.0253 -0.4092 -0.1195
  191DOPC   O1423542   3.064   1.323   2.805 -0.3469 -0.8245 -0.5629
  191DOPC   O1223543   3.132   1.081   2.768  0.4289  0.0227  0.2732
  191DOPC   O1123544   3.274   1.242   2.909  0.1165 -0.1903  0.5185
  191DOPC    C123545   3.369   1.139   2.906  0.5534  0.2706  0.1637
  191DOPC    HA23546   3.452   1.158   2.834  2.4548  1.4758  2.5052
  191DOPC    HB23547   3.330   1.038   2.882  1.3474  0.2186 -0.9969
  191DOPC    C223548   3.443   1.119   3.040  0.5368  0.2745 -0.5350
  191DOPC    HS23549   3.500   1.024   3.041  1.7435  0.9775  0.8357
  191DOPC   O2123550   3.346   1.114   3.140 -0.2111 -0.0654 -0.1258
  191DOPC   C2123551   3.266   1.004   3.155  0.2327 -0.4318  0.3201
  191DOPC   O2223552   3.252   0.909   3.083  0.3887 -0.3081  0.4457
  191DOPC   C2223553   3.177   1.028   3.280  0.2597  0.6462 -0.2756
  191DOPC   H2R23554   3.115   1.112   3.243  0.0911 -0.1246 -1.8509
  191DOPC   H2S23555   3.241   1.063   3.364  1.3639 -1.4373 -0.1787
  191DOPC    C323556   3.540   1.240   3.066 -0.0361 -0.0274 -0.3514
  191DOPC    HX23557   3.486   1.336   3.074  0.9392  0.3849  2.5778
  191DOPC    HY23558   3.599   1.222   2.974  0.2214 -0.1904 -0.1577
  191DOPC   O3123559   3.612   1.227   3.189 -0.1912  0.2408  0.4676
  191DOPC   C3123560   3.728   1.294   3.196 -0.1089  0.0702 -0.6759
  191DOPC   O3223561   3.784   1.353   3.109  0.2047 -0.1527  0.3859
  191DOPC   C3223562   3.789   1.272   3.340  0.2095 -0.2328  0.2176
  191DOPC   H2X23563   3.737   1.349   3.400 -2.2076 -1.9129  0.4361
  191DOPC   H2Y23564   3.760   1.170   3.374  0.6053  0.0393  1.4502
  191DOPC   C2323565   3.076   0.918   3.307 -0.4290  0.2825  0.5633
  191DOPC   H3R23566   3.125   0.822   3.280  1.7157  1.3603  0.4079
  191DOPC   H3S23567   2.992   0.931   3.236  0.4594  1.0292 -0.3811
  191DOPC   C2423568   3.014   0.911   3.439  0.5453  0.6395 -0.5608
  191DOPC   H4R23569   2.924   0.847   3.440  0.8380  0.1748  1.3783
  191DOPC   H4S23570   2.976   1.011   3.470  0.6085  0.5153 -0.0680
  191DOPC   C2523571   3.116   0.856   3.547  0.4606 -0.1538 -0.1704
  191DOPC   H5R23572   3.204   0.924   3.549 -0.1229  0.7349 -2.3455
  191DOPC   H5S23573   3.143   0.758   3.503 -0.9510 -0.8618  0.4980
  191DOPC   C2623574   3.064   0.848   3.689 -0.4814  0.5678 -0.4031
  191DOPC   H6R23575   2.989   0.768   3.706  2.3271 -2.1116  0.3066
  191DOPC   H6S23576   3.021   0.946   3.718  1.0630  0.8291  1.1436
  191DOPC   C2723577   3.174   0.816   3.795 -0.5502 -0.2873  0.2278
  191DOPC   H7R23578   3.256   0.890   3.794 -1.5724  0.8624 -0.2202
  191DOPC   H7S23579   3.212   0.718   3.759  0.6329  0.5618 -0.9147
  191DOPC   C2823580   3.111   0.807   3.933  0.5332 -0.3597 -0.0472
  191DOPC   H8R23581   3.053   0.712   3.924 -0.1617  0.0310  0.2343
  191DOPC   H8S23582   3.050   0.896   3.962 -0.9696 -1.9195  1.9156
  191DOPC   C2923583   3.206   0.782   4.049  0.6832  0.0115  0.4601
  191DOPC   H9R23584   3.300   0.839   4.042  1.3984 -0.7319  3.0594
  191DOPC  C21023585   3.197   0.693   4.148 -0.0626  0.0403 -0.4571
  191DOPC  H10R23586   3.274   0.693   4.226  0.7747 -0.1307 -1.2618
  191DOPC  C21123587   3.090   0.594   4.172 -0.3996  0.0623 -0.5566
  191DOPC  H11R23588   3.113   0.494   4.130 -1.0127 -0.6808  0.7903
  191DOPC  H11S23589   2.991   0.620   4.129 -0.7518 -0.7475 -0.2513
  191DOPC  C21223590   3.056   0.576   4.322 -0.4309  0.3297 -0.7551
  191DOPC  H12R23591   3.150   0.529   4.357  1.2228  2.5571 -1.9188
  191DOPC  H12S23592   2.964   0.514   4.327  1.1893 -2.1673  3.0550
  191DOPC  C21323593   3.043   0.702   4.403  0.2028 -0.6168  0.2318
  191DOPC  H13R23594   2.985   0.779   4.348  0.2622  1.4955  2.8883
  191DOPC  H13S23595   3.150   0.734   4.409 -0.2112  1.0153 -0.5745
  191DOPC  C21423596   2.983   0.676   4.540 -0.2246 -0.3027 -0.3653
  191DOPC  H14R23597   2.874   0.655   4.536 -0.8749  2.6186 -0.3988
  191DOPC  H14S23598   2.981   0.758   4.615 -2.2068 -0.5447 -0.1003
  191DOPC  C21523599   3.060   0.554   4.610  0.2748  0.5436  0.4999
  191DOPC  H15R23600   3.165   0.554   4.573  0.5436 -2.1739  1.0167
  191DOPC  H15S23601   3.018   0.463   4.563  1.0295  1.2013 -1.5399
  191DOPC  C21623602   3.052   0.552   4.763  0.7997 -0.0854 -0.8903
  191DOPC  H16R23603   2.954   0.590   4.799  0.5081 -1.3425 -0.2899
  191DOPC  H16S23604   3.113   0.637   4.801 -0.2243 -0.0365  0.7057
  191DOPC  C21723605   3.085   0.420   4.833 -0.7593 -0.1488  0.6105
  191DOPC  H17R23606   3.100   0.440   4.941  0.5041 -0.4388  0.4964
  191DOPC  H17S23607   3.179   0.378   4.792  0.5091  2.1929  0.9090
  191DOPC  C21823608   2.961   0.326   4.827  0.0832  0.6393  0.2550
  191DOPC  H18R23609   2.952   0.287   4.723 -2.2694  0.5099  0.4508
  191DOPC  H18S23610   2.864   0.377   4.848 -0.9708 -1.1033 -0.1611
  191DOPC  H18T23611   2.983   0.239   4.893 -0.4267 -0.0555 -0.4795
  191DOPC   C3323612   3.944   1.281   3.318 -0.0888  0.5114  0.4922
  191DOPC   H3X23613   3.959   1.379   3.268  2.1161  0.4495  0.9390
  191DOPC   H3Y23614   3.971   1.205   3.241 -2.4798 -0.5163  0.5983
  191DOPC   C3423615   4.029   1.250   3.447 -0.1607  0.1447 -0.2017
  191DOPC   H4X23616   4.005   1.326   3.524 -1.0851 -0.5804  0.2530
  191DOPC   H4Y23617   4.136   1.268   3.425  0.4691  0.7356  2.9403
  191DOPC   C3523618   4.024   1.098   3.472 -0.7543  0.5264 -0.4503
  191DOPC   H5X23619   4.052   1.054   3.374 -3.1786 -0.9321 -0.5775
  191DOPC   H5Y23620   3.920   1.068   3.497 -0.6729  2.0238  1.9669
  191DOPC   C3623621   4.107   1.059   3.599 -0.1352  1.1029  0.0505
  191DOPC   H6X23622   4.212   1.092   3.586 -0.4430  2.3547  0.6275
  191DOPC   H6Y23623   4.063   1.117   3.682 -1.6732  0.8696 -0.5490
  191DOPC   C3723624   4.097   0.911   3.653  0.0998  0.4015 -0.1661
  191DOPC   H7X23625   3.999   0.866   3.626  0.5745 -0.5751 -0.2750
  191DOPC   H7Y23626   4.177   0.848   3.610 -0.9615 -0.8413 -0.3811
  191DOPC   C3823627   4.119   0.899   3.801 -0.3180  0.1321  0.2862
  191DOPC   H8X23628   4.064   0.810   3.841 -1.7435  0.8900  0.0711
  191DOPC   H8Y23629   4.070   0.985   3.852 -0.9474 -0.2936  0.4194
  191DOPC   C3923630   4.261   0.896   3.837 -0.4049 -0.0740 -0.0612
  191DOPC   H9X23631   4.301   0.998   3.845 -3.1194  0.9204  3.4123
  191DOPC  C31023632   4.329   0.787   3.863  0.2832  0.4378  0.7136
  191DOPC  H10X23633   4.432   0.803   3.897  1.7115 -1.6843 -2.1905
  191DOPC  C31123634   4.292   0.641   3.870 -0.0263 -0.2983  0.0529
  191DOPC  H11X23635   4.328   0.609   3.769 -1.2165 -0.3994 -0.3567
  191DOPC  H11Y23636   4.185   0.613   3.864  0.3929 -2.0519  0.1672
  191DOPC  C31223637   4.358   0.558   3.983  0.1757 -0.4399 -0.2996
  191DOPC  H12X23638   4.468   0.565   3.973 -0.0232  0.1214 -2.5273
  191DOPC  H12Y23639   4.327   0.451   3.990  0.2084 -0.5383 -1.5067
  191DOPC  C31323640   4.331   0.622   4.124 -0.6717  0.6041 -0.0607
  191DOPC  H13X23641   4.371   0.725   4.132 -1.3577  0.9346 -0.8109
  191DOPC  H13Y23642   4.221   0.631   4.129 -0.7704 -0.7216  0.6924
  191DOPC  C31423643   4.393   0.534   4.232 -0.0055  0.3171 -0.1136
  191DOPC  H14X23644   4.360   0.429   4.219 -1.3396  0.7367 -0.3223
  191DOPC  H14Y23645   4.502   0.548   4.216  0.2677 -0.5306  0.9014
  191DOPC  C31523646   4.357   0.580   4.379  0.1443  0.4666  1.1030
  191DOPC  H15X23647   4.252   0.565   4.409 -0.5460  0.2328 -1.2589
  191DOPC  H15Y23648   4.389   0.684   4.401  0.4696  0.7705 -0.6664
  191DOPC  C31623649   4.428   0.484   4.473  0.4670  0.0366 -0.4813
  191DOPC  H16X23650   4.403   0.376   4.461 -0.5259  0.2007 -0.0179
  191DOPC  H16Y23651   4.538   0.496   4.468  0.3947  1.9846  1.3840
  191DOPC  C31723652   4.388   0.501   4.627  0.0791  0.0106 -0.3883
  191DOPC  H17X23653   4.407   0.605   4.660  1.9549  0.0015 -1.2925
  191DOPC  H17Y23654   4.277   0.492   4.634  0.2187 -0.8163  1.2344
  191DOPC  C31823655   4.451   0.402   4.721 -0.7489 -1.1656  0.7716
  191DOPC  H18X23656   4.554   0.432   4.751 -0.8327  0.1771 -0.1835
  191DOPC  H18Y23657   4.397   0.399   4.818 -0.7439 -0.0393  0.8309
  191DOPC  H18Z23658   4.436   0.300   4.680 -2.3722 -0.8279  0.4437
  192DOPC     N23659   7.050   5.784   2.880  0.7905 -0.5702 -0.0066
  192DOPC   C1223660   6.937   5.759   2.980  0.1666  0.0750  0.4705
  192DOPC  H12A23661   6.845   5.811   2.958 -2.8386 -4.4254  1.1650
  192DOPC  H12B23662   6.955   5.809   3.074 -0.0459 -0.6327  0.8939
  192DOPC   C1323663   7.091   5.931   2.868  0.3254 -0.3973 -0.1726
  192DOPC  H13A23664   7.021   5.982   2.803  1.2705 -0.8100 -1.5791
  192DOPC  H13B23665   7.100   5.979   2.964  3.4868 -1.3964  0.1527
  192DOPC  H13C23666   7.189   5.940   2.822  0.3492  0.9017  0.1169
  192DOPC   C1423667   7.012   5.733   2.739 -0.1989 -0.5779 -0.3276
  192DOPC  H14A23668   6.912   5.768   2.720  0.6909  2.2997 -0.0967
  192DOPC  H14B23669   7.083   5.776   2.669  0.9003  1.5051  1.9229
  192DOPC  H14C23670   7.027   5.626   2.730 -0.9334 -0.8043  0.9635
  192DOPC   C1523671   7.160   5.696   2.919  0.1600  0.0263  0.0488
  192DOPC  H15A23672   7.220   5.735   3.000 -0.3398 -3.7936  2.5017
  192DOPC  H15B23673   7.227   5.692   2.834 -0.7534 -0.0478 -0.6826
  192DOPC  H15C23674   7.115   5.599   2.935 -1.8915  1.1448  1.3717
  192DOPC   C1123675   6.897   5.613   3.024  0.4845 -0.8681  0.3686
  192DOPC  H11A23676   6.987   5.560   3.063  1.9961 -0.3944 -2.2162
  192DOPC  H11B23677   6.818   5.631   3.100  0.2970  0.2854 -0.0839
  192DOPC     P23678   6.903   5.409   2.857 -0.3322 -0.1635  0.2340
  192DOPC   O1323679   7.047   5.420   2.852 -0.2317 -0.3616  0.4570
  192DOPC   O1423680   6.829   5.382   2.732 -0.7757 -0.0154  0.2928
  192DOPC   O1223681   6.841   5.550   2.910  0.4043  0.5605 -0.2470
  192DOPC   O1123682   6.871   5.301   2.971  0.7634  0.1134 -0.5582
  192DOPC    C123683   6.733   5.292   3.019  0.3666 -0.0944  0.5004
  192DOPC    HA23684   6.667   5.245   2.943  1.5461 -0.4154 -0.3637
  192DOPC    HB23685   6.683   5.385   3.054 -1.8468 -1.4054  0.9369
  192DOPC    C223686   6.730   5.198   3.137  0.3936  0.2275  0.5724
  192DOPC    HS23687   6.627   5.183   3.176  0.1759  0.3968  0.0638
  192DOPC   O2123688   6.813   5.244   3.242  0.2791  0.2405  0.0459
  192DOPC   C2123689   6.784   5.350   3.308 -0.1361  0.0196 -0.4835
  192DOPC   O2223690   6.680   5.409   3.301  0.2180  0.5953 -0.2775
  192DOPC   C2223691   6.896   5.374   3.410 -0.1695 -0.8970 -0.2489
  192DOPC   H2R23692   6.987   5.402   3.354 -1.0479 -0.4281 -1.4876
  192DOPC   H2S23693   6.908   5.277   3.463 -1.0515 -0.6451  0.4374
  192DOPC    C323694   6.791   5.059   3.097  0.5669 -0.3263  0.0799
  192DOPC    HX23695   6.901   5.072   3.098  0.3703  1.8959 -0.9884
  192DOPC    HY23696   6.758   5.031   2.995 -0.2452 -0.7615  0.4568
  192DOPC   O3123697   6.754   4.964   3.200  0.7130 -0.1944 -0.0934
  192DOPC   C3123698   6.657   4.887   3.166 -0.2248 -0.0875  0.7383
  192DOPC   O3223699   6.591   4.874   3.067  0.7428 -0.1508  0.5317
  192DOPC   C3223700   6.618   4.814   3.294  0.3639  0.2575  0.1515
  192DOPC   H2X23701   6.711   4.766   3.330 -0.7588 -0.7280  1.8520
  192DOPC   H2Y23702   6.590   4.893   3.367 -0.6420  0.6227 -0.6196
  192DOPC   C2323703   6.860   5.487   3.508  0.9962  1.2653 -0.5477
  192DOPC   H3R23704   6.810   5.568   3.452 -0.0284  0.9285 -0.1470
  192DOPC   H3S23705   6.956   5.531   3.543  1.4348 -0.6899  0.9547
  192DOPC   C2423706   6.769   5.443   3.626 -0.0491  0.7532  0.6513
  192DOPC   H4R23707   6.692   5.382   3.575 -0.1889  1.4515  0.0204
  192DOPC   H4S23708   6.722   5.535   3.666 -0.3266  1.6581 -1.6306
  192DOPC   C2523709   6.833   5.354   3.732 -0.1345 -0.3916  0.3755
  192DOPC   H5R23710   6.912   5.416   3.781 -0.2156  1.0768 -1.2483
  192DOPC   H5S23711   6.880   5.267   3.682 -1.0990 -0.7547  0.0802
  192DOPC   C2623712   6.739   5.294   3.842  0.6467 -0.3082  0.2828
  192DOPC   H6R23713   6.793   5.220   3.905  0.5182  1.6067  2.7937
  192DOPC   H6S23714   6.652   5.241   3.798  2.3107 -1.2238 -2.1034
  192DOPC   C2723715   6.693   5.398   3.946  0.0100  0.0237 -0.2769
  192DOPC   H7R23716   6.650   5.479   3.883  3.8423  0.0424 -3.2404
  192DOPC   H7S23717   6.776   5.444   4.003 -0.8651  1.9688 -0.4954
  192DOPC   C2823718   6.598   5.342   4.054 -0.4045 -0.0679  0.7752
  192DOPC   H8R23719   6.631   5.240   4.085  0.5139 -0.0500 -0.1121
  192DOPC   H8S23720   6.505   5.326   3.994  0.6455  0.8858 -1.2228
  192DOPC   C2923721   6.561   5.443   4.166  0.1961  0.2998 -0.0803
  192DOPC   H9R23722   6.493   5.525   4.136  2.5706  1.6199 -2.2531
  192DOPC  C21023723   6.592   5.423   4.295 -0.0782  0.1303  0.0847
  192DOPC  H10R23724   6.567   5.500   4.370  2.8879  3.2455 -1.8183
  192DOPC  C21123725   6.662   5.304   4.360 -0.6859  0.1074  0.1429
  192DOPC  H11R23726   6.646   5.213   4.298 -2.3032  1.4600 -1.5451
  192DOPC  H11S23727   6.617   5.279   4.458  1.0374  0.3824  1.0380
  192DOPC  C21223728   6.811   5.343   4.380 -0.1876 -0.0709  0.8066
  192DOPC  H12R23729   6.814   5.448   4.415 -0.5998  0.6199 -1.1246
  192DOPC  H12S23730   6.862   5.357   4.282  0.0889  0.8513  1.0681
  192DOPC  C21323731   6.893   5.259   4.468  0.3602  0.1223  0.6071
  192DOPC  H13R23732   6.991   5.312   4.460  1.0361 -1.3914 -3.4392
  192DOPC  H13S23733   6.899   5.159   4.421  0.9553  1.8301 -3.3815
  192DOPC  C21423734   6.848   5.247   4.613 -0.3864 -0.1830 -0.2026
  192DOPC  H14R23735   6.745   5.205   4.613 -0.5403 -0.0761 -3.8399
  192DOPC  H14S23736   6.842   5.351   4.652  0.7022 -0.2721  0.2292
  192DOPC  C21523737   6.942   5.166   4.698  0.0735 -0.4354 -0.0261
  192DOPC  H15R23738   7.045   5.183   4.660  0.4332  0.5059  1.2926
  192DOPC  H15S23739   6.917   5.059   4.682 -0.2594 -0.5901  1.3605
  192DOPC  C21623740   6.950   5.213   4.845 -0.8778 -0.6469  0.8713
  192DOPC  H16R23741   6.846   5.196   4.879 -1.2882  0.9091  0.4888
  192DOPC  H16S23742   6.964   5.323   4.852  1.9558 -0.8792 -0.0208
  192DOPC  C21723743   7.047   5.123   4.926 -0.5523  0.3392 -0.2635
  192DOPC  H17R23744   7.000   5.022   4.925  0.4081 -0.1193  0.1362
  192DOPC  H17S23745   7.045   5.150   5.034  1.4409  0.6070 -0.2643
  192DOPC  C21823746   7.188   5.107   4.878 -0.4005 -0.1062  0.1395
  192DOPC  H18R23747   7.227   5.209   4.856 -2.7729  0.3983 -2.2606
  192DOPC  H18S23748   7.199   5.062   4.777 -0.8676  0.3067 -0.0963
  192DOPC  H18T23749   7.255   5.059   4.953  1.0669 -1.5280 -1.9727
  192DOPC   C3323750   6.492   4.714   3.293  0.4831 -0.0650 -0.2517
  192DOPC   H3X23751   6.509   4.633   3.219  1.7309  0.2163 -0.2880
  192DOPC   H3Y23752   6.398   4.759   3.255 -0.3096 -1.0695  0.4350
  192DOPC   C3423753   6.478   4.636   3.427 -0.1772 -0.7448  0.6048
  192DOPC   H4X23754   6.568   4.572   3.437  0.4786 -0.2117 -1.4709
  192DOPC   H4Y23755   6.403   4.553   3.420  0.4152 -1.1521 -1.6110
  192DOPC   C3523756   6.448   4.709   3.556 -0.4900 -0.6408 -0.6811
  192DOPC   H5X23757   6.356   4.771   3.548 -0.2936 -0.3581 -0.7817
  192DOPC   H5Y23758   6.534   4.774   3.583  0.0281 -1.1669 -1.0369
  192DOPC   C3623759   6.417   4.614   3.673 -0.0623 -0.0648 -0.2675
  192DOPC   H6X23760   6.330   4.546   3.661 -0.5582  0.6407 -0.7256
  192DOPC   H6Y23761   6.507   4.549   3.677 -1.2828 -1.7714  0.1709
  192DOPC   C3723762   6.401   4.696   3.803  0.6845  0.4276 -0.3394
  192DOPC   H7X23763   6.475   4.778   3.805  0.7326  0.3877 -0.4726
  192DOPC   H7Y23764   6.300   4.742   3.812  0.0343 -0.8974 -0.6582
  192DOPC   C3823765   6.415   4.606   3.930  0.6752 -1.2601 -0.7912
  192DOPC   H8X23766   6.425   4.678   4.013  0.7134  0.6641 -2.4061
  192DOPC   H8Y23767   6.508   4.545   3.921 -1.1471 -4.2701 -0.5138
  192DOPC   C3923768   6.311   4.513   3.970 -0.0497  0.1565 -0.3237
  192DOPC   H9X23769   6.312   4.426   3.903 -0.6154  1.2233 -1.7861
  192DOPC  C31023770   6.247   4.500   4.089  0.3221 -0.0679  0.3211
  192DOPC  H10X23771   6.174   4.417   4.093 -0.1361  0.3814  2.4279
  192DOPC  C31123772   6.258   4.572   4.222 -0.0547  0.0563  0.3756
  192DOPC  H11X23773   6.355   4.625   4.236 -0.1161  0.4354 -0.5935
  192DOPC  H11Y23774   6.243   4.506   4.311 -0.1918  0.7991  0.9114
  192DOPC  C31223775   6.148   4.676   4.235 -0.0972 -0.7558 -0.4971
  192DOPC  H12X23776   6.162   4.712   4.339 -1.2510  0.5219 -0.7499
  192DOPC  H12Y23777   6.047   4.630   4.240 -0.1358 -0.6503 -0.2982
  192DOPC  C31323778   6.151   4.786   4.137 -0.1871 -0.1465 -0.2717
  192DOPC  H13X23779   6.256   4.816   4.121 -0.4321  1.2977  0.6436
  192DOPC  H13Y23780   6.117   4.741   4.041 -0.8966  1.4418 -0.7940
  192DOPC  C31423781   6.066   4.900   4.177  0.3489 -0.7123  0.2048
  192DOPC  H14X23782   6.053   4.958   4.083 -0.0450 -0.9274  0.1214
  192DOPC  H14Y23783   5.968   4.863   4.215 -0.5157  3.0009  2.0277
  192DOPC  C31523784   6.137   4.972   4.293  0.0832  0.0629 -0.1474
  192DOPC  H15X23785   6.228   5.011   4.243 -0.1739  0.7305 -0.1075
  192DOPC  H15Y23786   6.163   4.911   4.383 -5.2115  0.8672  2.3269
  192DOPC  C31623787   6.053   5.092   4.336  1.0416 -0.8147  0.3790
  192DOPC  H16X23788   6.117   5.144   4.410 -0.0678  0.4553  0.4823
  192DOPC  H16Y23789   6.027   5.160   4.252 -2.2205 -0.6035  1.4412
  192DOPC  C31723790   5.914   5.058   4.401 -0.5282  0.4110  0.0932
  192DOPC  H17X23791   5.862   5.147   4.442 -0.0922  1.1850 -0.9722
  192DOPC  H17Y23792   5.853   5.007   4.323  0.0757 -1.8506  1.0211
  192DOPC  C31823793   5.917   4.962   4.520  0.4728 -0.4380  0.8109
  192DOPC  H18X23794   5.815   4.951   4.563 -1.1107  0.6974 -2.3706
  192DOPC  H18Y23795   5.950   4.860   4.490 -2.1185 -1.6890  1.9220
  192DOPC  H18Z23796   5.983   5.005   4.599  0.6851  1.5974 -0.4166
  193DOPC     N23797   7.276   1.476   2.904  0.0606 -0.4399 -0.0259
  193DOPC   C1223798   7.395   1.458   2.997  0.7238 -0.2351  0.1623
  193DOPC  H12A23799   7.432   1.558   3.012 -3.3613  1.4401  0.1386
  193DOPC  H12B23800   7.477   1.411   2.943  1.2218 -1.2520  1.7127
  193DOPC   C1323801   7.315   1.570   2.792  0.0408  0.0170  0.0972
  193DOPC  H13A23802   7.389   1.518   2.733 -2.8009 -0.6356 -3.2284
  193DOPC  H13B23803   7.230   1.589   2.728  1.0253  1.2978 -0.8833
  193DOPC  H13C23804   7.345   1.666   2.832 -1.3213  0.0475  1.1235
  193DOPC   C1423805   7.154   1.528   2.963 -0.1529  0.4811  0.6108
  193DOPC  H14A23806   7.176   1.623   3.010  2.0630  0.3031  0.0033
  193DOPC  H14B23807   7.078   1.538   2.887 -2.2264  0.4393  2.5429
  193DOPC  H14C23808   7.117   1.456   3.035  1.4664 -1.6538 -0.5742
  193DOPC   C1523809   7.249   1.343   2.849 -0.0616  0.0551 -0.1719
  193DOPC  H15A23810   7.338   1.282   2.838 -0.7575 -1.0289 -0.0218
  193DOPC  H15B23811   7.197   1.345   2.755  0.2091 -0.8099 -0.3489
  193DOPC  H15C23812   7.181   1.287   2.912 -2.2901  2.6825 -0.0958
  193DOPC   C1123813   7.380   1.396   3.137  0.2899  0.3483 -0.4349
  193DOPC  H11A23814   7.474   1.408   3.195 -1.5781  1.4181  2.6708
  193DOPC  H11B23815   7.318   1.454   3.209  0.9613 -0.6453  0.9988
  193DOPC     P23816   7.394   1.134   3.102  0.0583  0.2840  0.1215
  193DOPC   O1323817   7.474   1.157   2.982  0.1774 -0.1485 -0.0139
  193DOPC   O1423818   7.310   1.010   3.105 -0.0808 -0.2295  0.2357
  193DOPC   O1223819   7.319   1.262   3.132  0.2454  0.3569 -0.1246
  193DOPC   O1123820   7.501   1.130   3.216 -0.1862 -0.1636  0.2559
  193DOPC    C123821   7.466   1.074   3.344 -0.1247 -0.7351  0.3481
  193DOPC    HA23822   7.563   1.067   3.398  0.2296  1.2553  0.0599
  193DOPC    HB23823   7.430   0.970   3.329  1.3820 -1.1734 -0.4497
  193DOPC    C223824   7.378   1.165   3.422  0.1229 -0.3213  0.3640
  193DOPC    HS23825   7.288   1.186   3.360 -0.6667 -0.4933  1.4223
  193DOPC   O2123826   7.455   1.287   3.453 -0.2265 -0.6387 -1.0824
  193DOPC   C2123827   7.368   1.391   3.492  0.1326  0.4372  0.0322
  193DOPC   O2223828   7.248   1.382   3.495 -0.2183 -0.4858  0.0521
  193DOPC   C2223829   7.448   1.518   3.535 -0.2518  0.8744 -0.1897
  193DOPC   H2R23830   7.374   1.600   3.525 -0.3768  0.6101 -1.6737
  193DOPC   H2S23831   7.541   1.531   3.475 -0.3627  0.7464 -0.3890
  193DOPC    C323832   7.318   1.096   3.552  0.2623 -0.4017 -0.6180
  193DOPC    HX23833   7.252   1.013   3.519 -0.3061 -0.4665  0.6496
  193DOPC    HY23834   7.255   1.174   3.600  1.2732  1.3589 -2.0209
  193DOPC   O3123835   7.424   1.028   3.629 -0.0801  0.0089  0.1374
  193DOPC   C3123836   7.469   1.093   3.736  0.0976  0.4594 -0.2127
  193DOPC   O3223837   7.431   1.204   3.771  0.0114  0.1673  0.1095
  193DOPC   C3223838   7.577   1.005   3.794  0.1477  0.1210 -0.3417
  193DOPC   H2X23839   7.533   0.918   3.847 -3.7942  1.5641 -0.9388
  193DOPC   H2Y23840   7.646   0.965   3.717 -0.0942  2.0497 -1.6450
  193DOPC   C2323841   7.489   1.531   3.685 -0.1718 -0.1959 -0.4076
  193DOPC   H3R23842   7.416   1.475   3.747  2.1508 -1.7666  1.0818
  193DOPC   H3S23843   7.485   1.638   3.711  4.0776  0.5096 -1.9214
  193DOPC   C2423844   7.634   1.482   3.708  0.1903 -0.4680  0.4148
  193DOPC   H4R23845   7.697   1.542   3.639  0.8806 -0.2629  1.2035
  193DOPC   H4S23846   7.639   1.377   3.673 -2.0337 -0.1391 -1.1012
  193DOPC   C2523847   7.691   1.501   3.845 -0.5205 -0.4519 -0.5748
  193DOPC   H5R23848   7.731   1.601   3.871  2.1454 -1.2418 -1.3244
  193DOPC   H5S23849   7.790   1.451   3.856  0.3221  1.5424  1.8596
  193DOPC   C2623850   7.599   1.440   3.956  0.0429 -0.0710  0.1322
  193DOPC   H6R23851   7.561   1.339   3.929 -0.5543  0.2130 -0.1032
  193DOPC   H6S23852   7.520   1.518   3.955  1.2235  1.1795 -1.3279
  193DOPC   C2723853   7.667   1.444   4.098  0.5924 -0.1863  0.3771
  193DOPC   H7R23854   7.750   1.518   4.097  0.1018  0.3648 -0.4250
  193DOPC   H7S23855   7.722   1.347   4.105  0.4317 -0.5127 -1.8648
  193DOPC   C2823856   7.561   1.472   4.210  0.3443  0.6677  0.3309
  193DOPC   H8R23857   7.485   1.541   4.168 -1.2305 -0.7261  0.7807
  193DOPC   H8S23858   7.617   1.519   4.294  2.8104  0.4807 -1.1166
  193DOPC   C2923859   7.482   1.351   4.245  0.5162 -0.5747 -0.1245
  193DOPC   H9R23860   7.410   1.319   4.169  0.5808  0.6170 -0.7036
  193DOPC  C21023861   7.483   1.281   4.364  0.0310 -0.3033  0.3214
  193DOPC  H10R23862   7.426   1.188   4.378 -1.9351  0.9474  0.9648
  193DOPC  C21123863   7.567   1.314   4.483  0.4169 -0.0337  0.3930
  193DOPC  H11R23864   7.602   1.419   4.482 -1.0298  0.4913  1.5013
  193DOPC  H11S23865   7.662   1.257   4.478  1.2769  1.3308  0.6561
  193DOPC  C21223866   7.497   1.293   4.611  0.5625 -0.7093 -0.2488
  193DOPC  H12R23867   7.400   1.347   4.605  0.6925 -0.5778 -1.5358
  193DOPC  H12S23868   7.563   1.340   4.686 -0.6000 -1.5192  1.3330
  193DOPC  C21323869   7.464   1.148   4.655 -0.0968  0.5747 -0.2392
  193DOPC  H13R23870   7.565   1.102   4.662  0.3921  1.4271 -1.3861
  193DOPC  H13S23871   7.409   1.092   4.577 -0.4772  0.7508 -0.0999
  193DOPC  C21423872   7.390   1.129   4.790 -0.7438 -0.6805 -0.8654
  193DOPC  H14R23873   7.284   1.159   4.776 -0.5292  0.6577  0.2260
  193DOPC  H14S23874   7.433   1.198   4.866  1.9764  1.3378 -3.9601
  193DOPC  C21523875   7.385   0.984   4.847 -0.0784  0.4356 -0.3685
  193DOPC  H15R23876   7.489   0.947   4.851 -0.9694 -2.2943  0.0467
  193DOPC  H15S23877   7.320   0.924   4.779 -3.3183  1.6066  1.4795
  193DOPC  C21623878   7.315   0.971   4.980 -0.3558 -0.6060 -0.0867
  193DOPC  H16R23879   7.215   1.019   4.972  0.9867  2.3525 -0.6552
  193DOPC  H16S23880   7.361   1.023   5.067 -0.3151  1.3541 -1.2097
  193DOPC  C21723881   7.303   0.815   5.010  0.0601 -0.1939 -0.4838
  193DOPC  H17R23882   7.271   0.753   4.924  0.2769 -1.5281  0.3640
  193DOPC  H17S23883   7.218   0.809   5.081  0.6707 -1.2720  0.1727
  193DOPC  C21823884   7.428   0.755   5.071 -0.2733  0.0952  0.5275
  193DOPC  H18R23885   7.415   0.647   5.096 -1.2104 -0.1824 -1.0552
  193DOPC  H18S23886   7.445   0.811   5.166  0.1008 -2.1798  1.8827
  193DOPC  H18T23887   7.519   0.780   5.012 -0.9164  2.3175  0.3955
  193DOPC   C3323888   7.661   1.092   3.894  0.5613 -0.3056  0.4523
  193DOPC   H3X23889   7.592   1.145   3.963  0.1846  0.8833 -0.8005
  193DOPC   H3Y23890   7.729   1.168   3.849  1.3764 -0.6574  1.0689
  193DOPC   C3423891   7.760   1.017   3.993  0.0254  0.0912 -0.5252
  193DOPC   H4X23892   7.860   0.994   3.948  2.1689  1.4036  3.1414
  193DOPC   H4Y23893   7.726   0.917   4.027  0.0821  0.3603  0.3391
  193DOPC   C3523894   7.798   1.103   4.110  0.8673  0.0575 -0.6159
  193DOPC   H5X23895   7.706   1.120   4.170 -1.1565 -0.8789 -3.3001
  193DOPC   H5Y23896   7.841   1.202   4.082 -0.3463  0.5199 -0.8914
  193DOPC   C3623897   7.890   1.033   4.213  0.2752  0.0699 -0.5687
  193DOPC   H6X23898   7.840   0.939   4.246  1.5515 -0.5617 -0.3552
  193DOPC   H6Y23899   7.989   1.005   4.170  2.1573  2.2462  2.0421
  193DOPC   C3723900   7.908   1.106   4.345  0.0950  0.1931 -0.0511
  193DOPC   H7X23901   7.965   1.198   4.318  1.5644 -0.6677  0.0286
  193DOPC   H7Y23902   7.807   1.138   4.378 -0.6732 -2.5237  0.4800
  193DOPC   C3823903   7.965   1.014   4.458  0.2199  0.2261  0.1732
  193DOPC   H8X23904   7.893   0.930   4.466  1.7319 -1.1805 -0.3194
  193DOPC   H8Y23905   7.972   1.067   4.555 -0.1642 -0.3044  0.4937
  193DOPC   C3923906   8.102   0.960   4.421 -0.4277 -0.3044 -0.1416
  193DOPC   H9X23907   8.103   0.903   4.328 -3.6919 -0.1669 -0.3778
  193DOPC  C31023908   8.223   0.994   4.473  0.4163 -0.1136  0.2173
  193DOPC  H10X23909   8.316   0.951   4.433 -0.2286 -0.9678 -0.3899
  193DOPC  C31123910   8.233   1.093   4.586 -0.1390 -0.5025  0.6584
  193DOPC  H11X23911   8.218   1.040   4.683  0.9096  1.1730  1.7841
  193DOPC  H11Y23912   8.157   1.173   4.591  2.5496  2.2723 -0.1877
  193DOPC  C31223913   8.374   1.154   4.605  0.3045 -0.0773  1.0447
  193DOPC  H12X23914   8.395   1.219   4.517 -2.7965  0.7582  0.7885
  193DOPC  H12Y23915   8.459   1.083   4.594  0.5528  0.4587 -0.8349
  193DOPC  C31323916   8.381   1.238   4.728  0.1617  0.9003  0.4622
  193DOPC  H13X23917   8.305   1.319   4.742 -2.7557 -1.6696  0.6369
  193DOPC  H13Y23918   8.371   1.168   4.813 -0.1725  0.2161 -0.1348
  193DOPC  C31423919   8.511   1.323   4.733 -0.4108 -0.1709 -0.2619
  193DOPC  H14X23920   8.598   1.254   4.726 -1.4530 -1.4497 -1.3885
  193DOPC  H14Y23921   8.526   1.380   4.639 -1.0481  1.0339  0.3579
  193DOPC  C31523922   8.526   1.410   4.852  0.1821 -0.6365 -0.3633
  193DOPC  H15X23923   8.543   1.356   4.948  0.1082 -0.0421 -0.0084
  193DOPC  H15Y23924   8.431   1.465   4.866  0.8848  0.3754  0.6610
  193DOPC  C31623925   8.632   1.519   4.837 -0.2082  0.8157 -0.0547
  193DOPC  H16X23926   8.729   1.465   4.836 -0.3452  0.5699 -0.1861
  193DOPC  H16Y23927   8.609   1.558   4.736 -0.0467 -2.6810 -1.5966
  193DOPC  C31723928   8.641   1.624   4.953 -0.3194 -1.7759  0.1323
  193DOPC  H17X23929   8.731   1.687   4.936 -2.0772  0.4645 -1.4191
  193DOPC  H17Y23930   8.554   1.693   4.949  1.1368  0.1243 -0.0541
  193DOPC  C31823931   8.631   1.563   5.095  0.2674 -0.0351  0.4047
  193DOPC  H18X23932   8.648   1.646   5.167 -0.9379  3.4556 -2.9308
  193DOPC  H18Y23933   8.527   1.528   5.107  0.4346 -0.8442 -0.4356
  193DOPC  H18Z23934   8.707   1.483   5.097 -0.6410 -0.8918  2.0595
  194DOPC     N23935   0.004   0.192   2.898 -0.2871  0.2801 -0.3861
  194DOPC   C1223936  -0.114   0.101   2.929 -0.0139 -0.0612  0.4291
  194DOPC  H12A23937  -0.172   0.083   2.840  1.1102  1.2125 -0.6047
  194DOPC  H12B23938  -0.177   0.151   3.000 -0.1527 -0.8354  0.8697
  194DOPC   C1323939   0.074   0.239   3.015  0.3527  0.4464  0.3421
  194DOPC  H13A23940   0.122   0.155   3.062  0.5698 -0.4784 -1.4287
  194DOPC  H13B23941   0.149   0.313   2.989  1.7836  0.6542  4.4331
  194DOPC  H13C23942   0.001   0.281   3.082  0.9637 -0.0730  1.3454
  194DOPC   C1423943  -0.040   0.303   2.817  0.5374  0.2005 -0.7557
  194DOPC  H14A23944   0.039   0.376   2.810  2.9211 -2.1516  0.2230
  194DOPC  H14B23945  -0.067   0.282   2.714 -0.9490 -0.2688 -0.2938
  194DOPC  H14C23946  -0.123   0.354   2.864  2.4435  3.4254 -0.6485
  194DOPC   C1523947   0.103   0.121   2.810 -0.2162 -0.6784 -0.3770
  194DOPC  H15A23948   0.060   0.091   2.716 -1.8981 -0.5120  0.3071
  194DOPC  H15B23949   0.151   0.032   2.849  0.7072 -0.3340 -0.6948
  194DOPC  H15C23950   0.181   0.191   2.785 -1.1654  0.0869 -1.2432
  194DOPC   C1123951  -0.079  -0.038   2.987 -0.3267  0.0769  0.3934
  194DOPC  H11A23952  -0.019  -0.025   3.079 -0.0130  2.1101 -0.0467
  194DOPC  H11B23953  -0.169  -0.093   3.020  0.5470 -1.3755  0.4366
  194DOPC     P23954  -0.053  -0.252   2.834 -0.5390 -0.0691 -0.2603
  194DOPC   O1323955   0.058  -0.323   2.763 -0.0639  0.3048  0.1606
  194DOPC   O1423956  -0.173  -0.220   2.757  0.0726  0.3638 -0.4009
  194DOPC   O1223957  -0.004  -0.119   2.900  0.1672 -0.3052  0.2505
  194DOPC   O1123958  -0.102  -0.337   2.953  0.1840  0.1294  0.1327
  194DOPC    C123959  -0.019  -0.362   3.076  0.0245 -1.0462 -0.0609
  194DOPC    HA23960   0.016  -0.262   3.112 -2.3481 -0.3506  0.5011
  194DOPC    HB23961   0.077  -0.411   3.049  1.0261  1.4134 -1.2796
  194DOPC    C223962  -0.096  -0.432   3.195 -0.1043  0.5026  0.2208
  194DOPC    HS23963  -0.103  -0.539   3.165  2.4957  0.7309 -1.5426
  194DOPC   O2123964  -0.228  -0.373   3.213  0.5211 -0.7675 -0.0887
  194DOPC   C2123965  -0.335  -0.460   3.226 -0.3038  0.5985 -0.3531
  194DOPC   O2223966  -0.324  -0.580   3.210 -0.0273  0.7034  0.4031
  194DOPC   C2223967  -0.464  -0.390   3.264  0.0321 -0.3739 -0.6198
  194DOPC   H2R23968  -0.489  -0.305   3.197 -2.1326 -1.4831 -1.2893
  194DOPC   H2S23969  -0.439  -0.336   3.359  1.7288  0.3913 -1.4428
  194DOPC    C323970  -0.015  -0.410   3.327 -0.6551  0.0762 -0.2263
  194DOPC    HX23971   0.005  -0.303   3.349 -0.3964  0.0068 -0.1201
  194DOPC    HY23972   0.087  -0.442   3.297 -0.6463  1.0697 -1.3624
  194DOPC   O3123973  -0.062  -0.468   3.450 -0.1900  0.6013 -0.4023
  194DOPC   C3123974  -0.058  -0.596   3.447 -0.1514  0.6784  0.0220
  194DOPC   O3223975  -0.008  -0.660   3.355 -0.1284  0.4336  0.6630
  194DOPC   C3223976  -0.102  -0.646   3.586 -0.0807  0.4535  0.5395
  194DOPC   H2X23977  -0.023  -0.618   3.659  0.8923 -1.0739  0.1247
  194DOPC   H2Y23978  -0.197  -0.601   3.622 -0.0958  0.2393  0.7681
  194DOPC   C2323979  -0.577  -0.491   3.290  0.4485 -0.3364 -0.5603
  194DOPC   H3R23980  -0.591  -0.565   3.209 -0.7870 -1.5532  0.7096
  194DOPC   H3S23981  -0.672  -0.434   3.292  1.1604  0.9010 -0.5989
  194DOPC   C2423982  -0.573  -0.568   3.426 -0.1147 -0.2626 -0.0442
  194DOPC   H4R23983  -0.473  -0.617   3.432  0.0994 -0.0660 -1.5640
  194DOPC   H4S23984  -0.639  -0.657   3.422  0.6157 -0.8531  0.5930
  194DOPC   C2523985  -0.603  -0.500   3.559  0.4080 -0.1363  0.9617
  194DOPC   H5R23986  -0.705  -0.456   3.557  0.0327 -0.9968  0.8647
  194DOPC   H5S23987  -0.524  -0.422   3.571  1.6897 -1.5612  2.1956
  194DOPC   C2623988  -0.605  -0.598   3.671 -0.2323  0.0236  0.2719
  194DOPC   H6R23989  -0.508  -0.649   3.654 -0.6038 -0.5721 -0.0913
  194DOPC   H6S23990  -0.690  -0.669   3.662  0.8151 -1.2908  0.4179
  194DOPC   C2723991  -0.599  -0.523   3.806 -0.1973 -0.1524  0.0052
  194DOPC   H7R23992  -0.672  -0.440   3.799 -0.4939 -0.1774  2.1380
  194DOPC   H7S23993  -0.498  -0.474   3.803 -0.8483  1.2868 -3.2223
  194DOPC   C2823994  -0.626  -0.595   3.940 -0.7945  0.3423 -0.0500
  194DOPC   H8R23995  -0.715  -0.662   3.932 -1.6277  1.2568  1.1263
  194DOPC   H8S23996  -0.656  -0.519   4.016  0.2967  0.7240  0.0083
  194DOPC   C2923997  -0.496  -0.668   3.975 -0.5895 -0.2225 -0.1825
  194DOPC   H9R23998  -0.472  -0.748   3.904  1.1058 -0.8033  0.9660
  194DOPC  C21023999  -0.404  -0.642   4.076  0.4461  0.3925 -0.0144
  194DOPC  H10R24000  -0.316  -0.708   4.080  0.5589  0.5147  4.8378
  194DOPC  C21124001  -0.401  -0.534   4.184  0.6720  0.0269  1.2121
  194DOPC  H11R24002  -0.502  -0.490   4.196  0.5546 -0.7207  3.4684
  194DOPC  H11S24003  -0.321  -0.463   4.152  0.7859 -1.7697 -3.1098
  194DOPC  C21224004  -0.383  -0.604   4.321  0.0314  0.4494 -0.4006
  194DOPC  H12R24005  -0.312  -0.688   4.311 -0.9398 -0.6177  1.1621
  194DOPC  H12S24006  -0.478  -0.643   4.363  1.1210  0.1617  1.9308
  194DOPC  C21324007  -0.347  -0.516   4.434  0.1143 -0.1821 -0.1574
  194DOPC  H13R24008  -0.434  -0.447   4.436 -0.0866 -0.4329 -0.1552
  194DOPC  H13S24009  -0.254  -0.463   4.405  1.2197 -3.3735 -3.1609
  194DOPC  C21424010  -0.320  -0.596   4.564  0.0933  0.6780  0.5921
  194DOPC  H14R24011  -0.409  -0.656   4.593 -0.3581  1.2111  0.3138
  194DOPC  H14S24012  -0.296  -0.524   4.645  0.7382  1.3768 -0.2038
  194DOPC  C21524013  -0.193  -0.686   4.547  0.4982  0.7108  0.0531
  194DOPC  H15R24014  -0.110  -0.624   4.509  1.8256 -0.5810  0.7368
  194DOPC  H15S24015  -0.208  -0.766   4.471 -0.2934 -0.1712  1.0939
  194DOPC  C21624016  -0.156  -0.759   4.672 -0.0757 -0.0706 -0.3678
  194DOPC  H16R24017  -0.252  -0.804   4.703 -0.2104  1.5975  1.9104
  194DOPC  H16S24018  -0.133  -0.683   4.750 -1.2594 -1.0273  0.9405
  194DOPC  C21724019  -0.048  -0.862   4.664  0.0159 -0.3352  0.3256
  194DOPC  H17R24020  -0.094  -0.956   4.627 -0.1511  0.7478 -2.5044
  194DOPC  H17S24021  -0.001  -0.887   4.761  0.4834  1.3388  0.5757
  194DOPC  C21824022   0.070  -0.827   4.567 -0.1802  0.2372 -0.4399
  194DOPC  H18R24023   0.043  -0.817   4.460 -1.9277 -1.6709 -0.2362
  194DOPC  H18S24024   0.149  -0.905   4.574 -0.9543 -0.5304 -0.1668
  194DOPC  H18T24025   0.110  -0.730   4.602 -1.6224  0.1368  1.6322
  194DOPC   C3324026  -0.116  -0.802   3.602  0.0496 -0.5396 -0.3762
  194DOPC   H3X24027  -0.015  -0.844   3.622 -0.8311 -2.0809  1.1382
  194DOPC   H3Y24028  -0.160  -0.852   3.513  0.3496 -1.4044 -0.0468
  194DOPC   C3424029  -0.201  -0.848   3.723  0.4458 -0.6882  0.5246
  194DOPC   H4X24030  -0.305  -0.811   3.710  0.6940  0.1194  0.7700
  194DOPC   H4Y24031  -0.164  -0.793   3.812  1.2734  0.5401 -0.5603
  194DOPC   C3524032  -0.187  -0.998   3.744 -0.7236 -0.0588 -0.1594
  194DOPC   H5X24033  -0.083  -1.038   3.738 -1.3123 -1.4864 -1.7097
  194DOPC   H5Y24034  -0.249  -1.057   3.674 -1.4648  0.7415 -0.1816
  194DOPC   C3624035  -0.244  -1.029   3.885  0.3481  0.1218  0.4951
  194DOPC   H6X24036  -0.334  -0.970   3.911  0.4858  0.4258  0.2898
  194DOPC   H6Y24037  -0.280  -1.134   3.890 -1.2425  0.6492  0.7855
  194DOPC   C3724038  -0.138  -1.009   4.005  0.4037  0.3937  0.1327
  194DOPC   H7X24039  -0.052  -1.069   3.968 -0.8606 -0.5637 -1.3402
  194DOPC   H7Y24040  -0.119  -0.900   4.000  1.7692  0.2699  1.7106
  194DOPC   C3824041  -0.186  -1.044   4.145 -0.1776 -0.2257  0.9967
  194DOPC   H8X24042  -0.229  -1.145   4.132  0.7328 -0.4225 -0.8517
  194DOPC   H8Y24043  -0.275  -0.985   4.176 -0.3465 -0.9311  1.8724
  194DOPC   C3924044  -0.085  -1.026   4.255 -0.0692  0.8166 -0.7969
  194DOPC   H9X24045  -0.071  -0.927   4.301 -1.6556 -0.2055  2.1208
  194DOPC  C31024046  -0.015  -1.133   4.308  0.2654  0.4010  0.4607
  194DOPC  H10X24047   0.057  -1.118   4.390  2.1658  0.9678 -1.2328
  194DOPC  C31124048  -0.034  -1.277   4.259 -0.0924  0.2705  0.0262
  194DOPC  H11X24049   0.060  -1.335   4.276 -0.3951  0.3974  2.4029
  194DOPC  H11Y24050  -0.061  -1.267   4.151 -3.0138  1.1897  0.7671
  194DOPC  C31224051  -0.144  -1.338   4.349  0.1494 -0.1070  0.7984
  194DOPC  H12X24052  -0.239  -1.280   4.352  0.2901  0.1569  0.3070
  194DOPC  H12Y24053  -0.105  -1.342   4.452 -0.8637 -1.0063  1.1693
  194DOPC  C31324054  -0.164  -1.487   4.317  0.2330  0.3377 -0.5204
  194DOPC  H13X24055  -0.062  -1.531   4.313  0.6461  1.1405  0.6147
  194DOPC  H13Y24056  -0.227  -1.540   4.392  1.1393 -1.1828 -0.7981
  194DOPC  C31424057  -0.222  -1.516   4.179 -0.6178 -0.1626  0.1335
  194DOPC  H14X24058  -0.169  -1.453   4.104  2.1538 -1.4821  0.8534
  194DOPC  H14Y24059  -0.215  -1.625   4.158  0.1930 -0.4166  1.5770
  194DOPC  C31524060  -0.373  -1.487   4.165 -0.1398  0.2910  0.1471
  194DOPC  H15X24061  -0.402  -1.386   4.201 -1.2012  0.0614 -0.0131
  194DOPC  H15Y24062  -0.434  -1.553   4.231 -1.1567  1.3076  0.2622
  194DOPC  C31624063  -0.432  -1.488   4.019 -0.5565  0.9566  0.3853
  194DOPC  H16X24064  -0.391  -1.573   3.961 -1.2739  0.4066  0.6771
  194DOPC  H16Y24065  -0.540  -1.500   4.042 -0.1460 -1.0924  1.4711
  194DOPC  C31724066  -0.400  -1.361   3.938  0.4275  0.1887 -0.5438
  194DOPC  H17X24067  -0.418  -1.273   4.004  1.6382 -1.0505  1.5397
  194DOPC  H17Y24068  -0.290  -1.356   3.918  0.4892  0.1465 -0.2219
  194DOPC  C31824069  -0.488  -1.356   3.808 -0.0715 -0.4233  0.7196
  194DOPC  H18X24070  -0.461  -1.265   3.750 -0.7639 -0.6095  0.0854
  194DOPC  H18Y24071  -0.457  -1.453   3.763  2.2509 -0.9129  3.1405
  194DOPC  H18Z24072  -0.595  -1.358   3.837  0.1249  0.1326  1.5209
  195DOPC     N24073   4.972   0.567   3.043  0.3253 -0.4011 -0.2831
  195DOPC   C1224074   4.887   0.607   3.163 -1.0106  0.2083 -0.5953
  195DOPC  H12A24075   4.850   0.516   3.208  1.9609 -0.2603  1.1379
  195DOPC  H12B24076   4.802   0.660   3.124 -2.2480 -3.5730 -3.7823
  195DOPC   C1324077   5.084   0.474   3.086  0.0814 -0.7153 -0.5298
  195DOPC  H13A24078   5.033   0.387   3.126  0.0515 -0.7855 -0.7205
  195DOPC  H13B24079   5.153   0.444   3.009  0.2418  1.4908 -1.3252
  195DOPC  H13C24080   5.138   0.515   3.170 -2.3070 -1.1778  1.3636
  195DOPC   C1424081   5.038   0.682   2.973 -0.1804 -0.3977  0.3717
  195DOPC  H14A24082   5.107   0.736   3.036  0.7904 -0.2704 -0.7505
  195DOPC  H14B24083   5.103   0.655   2.891  0.9003 -0.7164  1.3216
  195DOPC  H14C24084   4.958   0.747   2.942  0.6443 -0.1681 -1.4361
  195DOPC   C1524085   4.888   0.493   2.940  0.0695  0.0679  0.1040
  195DOPC  H15A24086   4.801   0.546   2.905 -0.3718 -1.0587 -0.5660
  195DOPC  H15B24087   4.856   0.397   2.979  0.8532 -0.7017 -1.0782
  195DOPC  H15C24088   4.938   0.472   2.847 -0.8784  0.4127 -0.4858
  195DOPC   C1124089   4.944   0.689   3.279  0.6353 -0.6429  0.4373
  195DOPC  H11A24090   4.876   0.670   3.364 -1.2230 -1.0075 -1.0598
  195DOPC  H11B24091   5.046   0.659   3.313  0.3860 -2.1677 -0.0945
  195DOPC     P24092   4.828   0.933   3.248  0.3598  0.3069 -0.1615
  195DOPC   O1324093   4.711   0.884   3.168  0.0990 -0.2795 -1.1576
  195DOPC   O1424094   4.884   1.065   3.216 -0.4112 -0.2704  0.1293
  195DOPC   O1224095   4.947   0.827   3.244  0.2140  0.4013  0.2304
  195DOPC   O1124096   4.775   0.935   3.394 -0.3567 -0.3723 -0.4542
  195DOPC    C124097   4.876   0.969   3.498  0.4707  0.1826  0.1154
  195DOPC    HA24098   4.828   1.042   3.566 -0.6400 -1.0601  0.7102
  195DOPC    HB24099   4.967   1.018   3.455  0.7536  0.6495  1.2029
  195DOPC    C224100   4.922   0.852   3.585  0.5416  0.0924 -0.6193
  195DOPC    HS24101   4.973   0.781   3.516  0.3972  1.5775 -2.3310
  195DOPC   O2124102   4.804   0.802   3.644 -0.8109  0.6753 -0.5065
  195DOPC   C2124103   4.810   0.674   3.674 -0.0769  0.0811 -0.1933
  195DOPC   O2224104   4.903   0.596   3.659  0.2089 -0.1287  0.0993
  195DOPC   C2224105   4.684   0.650   3.760  0.0214  0.0627  0.5454
  195DOPC   H2R24106   4.609   0.649   3.678  1.4330  2.3918 -0.8726
  195DOPC   H2S24107   4.664   0.726   3.839 -2.3735 -1.2290  1.3129
  195DOPC    C324108   5.033   0.902   3.686  0.0050  0.6852 -0.0805
  195DOPC    HX24109   5.125   0.933   3.632 -1.0717  3.1858 -0.6464
  195DOPC    HY24110   5.069   0.820   3.752 -0.0441 -1.1391 -2.2111
  195DOPC   O3124111   4.987   1.010   3.776  0.1760 -0.0936 -0.6262
  195DOPC   C3124112   4.917   0.972   3.890 -0.6032  0.2718  0.6366
  195DOPC   O3224113   4.885   0.857   3.917 -0.3157 -0.0601  0.4181
  195DOPC   C3224114   4.895   1.078   3.988 -0.7632 -0.7339 -0.5609
  195DOPC   H2X24115   4.903   1.181   3.947  0.0900 -0.0122  1.3156
  195DOPC   H2Y24116   4.796   1.072   4.038 -0.3947  1.1967  0.4961
  195DOPC   C2324117   4.697   0.503   3.825  0.1971  0.5182 -0.7693
  195DOPC   H3R24118   4.725   0.433   3.744 -1.3197 -0.1289 -0.7695
  195DOPC   H3S24119   4.591   0.482   3.848 -0.1369  2.7041  0.0027
  195DOPC   C2424120   4.800   0.501   3.941 -0.1983 -0.4477  0.1904
  195DOPC   H4R24121   4.892   0.560   3.918  0.2436 -1.5582 -1.0428
  195DOPC   H4S24122   4.828   0.397   3.968 -2.6097 -1.0665  0.4740
  195DOPC   C2524123   4.740   0.561   4.075  0.8741  0.0594  0.5479
  195DOPC   H5R24124   4.688   0.473   4.120  0.2403 -0.0140 -0.3120
  195DOPC   H5S24125   4.681   0.649   4.043  1.5092 -0.1368 -1.2550
  195DOPC   C2624126   4.856   0.602   4.166 -0.4628 -1.0661 -0.1249
  195DOPC   H6R24127   4.921   0.668   4.104 -1.9907  0.6577  0.0246
  195DOPC   H6S24128   4.917   0.510   4.182 -0.0271 -0.7787 -0.0975
  195DOPC   C2724129   4.802   0.666   4.297 -0.7287  0.6196  0.2141
  195DOPC   H7R24130   4.763   0.592   4.371  3.1729 -1.2368  0.6421
  195DOPC   H7S24131   4.721   0.735   4.265 -0.1688  0.3096 -2.0171
  195DOPC   C2824132   4.918   0.742   4.363 -0.3536  0.0691 -0.3680
  195DOPC   H8R24133   4.862   0.812   4.430  0.0742  0.5301 -0.4860
  195DOPC   H8S24134   4.967   0.798   4.280  1.1086 -0.3065  0.2129
  195DOPC   C2924135   5.010   0.647   4.430  1.1020  0.4269  0.7583
  195DOPC   H9R24136   5.088   0.615   4.360  0.0805  1.0362 -0.7153
  195DOPC  C21024137   5.009   0.611   4.559  1.3025  0.0120 -0.9537
  195DOPC  H10R24138   5.075   0.531   4.593  2.5182  0.5799 -1.8965
  195DOPC  C21124139   4.916   0.668   4.662  0.1843  0.9463 -0.0592
  195DOPC  H11R24140   4.825   0.604   4.672 -0.2721  1.8938  3.0818
  195DOPC  H11S24141   4.887   0.773   4.639  1.9977  1.6478  0.6654
  195DOPC  C21224142   4.991   0.698   4.797  0.3397 -0.6943 -0.7137
  195DOPC  H12R24143   5.053   0.789   4.782 -0.7188  0.4287  1.2487
  195DOPC  H12S24144   5.061   0.616   4.826 -1.8427 -3.1117 -1.9060
  195DOPC  C21324145   4.895   0.716   4.917 -0.1289 -0.3431 -0.1606
  195DOPC  H13R24146   4.822   0.799   4.906 -0.5477 -0.5110  1.1487
  195DOPC  H13S24147   4.961   0.744   5.002  0.0412 -2.2175  0.3694
  195DOPC  C21424148   4.808   0.585   4.950  0.1175 -0.2908  0.1204
  195DOPC  H14R24149   4.875   0.500   4.923 -0.2536 -0.8558  0.9185
  195DOPC  H14S24150   4.730   0.568   4.874 -0.7883 -1.5755  1.2969
  195DOPC  C21524151   4.752   0.590   5.085 -0.1312  0.0209 -0.3278
  195DOPC  H15R24152   4.669   0.662   5.101 -0.7361 -0.4204 -1.2985
  195DOPC  H15S24153   4.831   0.638   5.146 -0.3342  0.9094 -0.7565
  195DOPC  C21624154   4.715   0.453   5.150 -0.5259  0.3496  0.8191
  195DOPC  H16R24155   4.690   0.477   5.255 -0.6282  0.5799  0.7434
  195DOPC  H16S24156   4.808   0.392   5.141 -0.7864 -0.2485  1.9747
  195DOPC  C21724157   4.602   0.384   5.073  0.1813  0.1215 -0.3542
  195DOPC  H17R24158   4.636   0.382   4.967  1.5412  2.8092 -0.0591
  195DOPC  H17S24159   4.510   0.446   5.080 -0.7006 -1.2617  0.8073
  195DOPC  C21824160   4.586   0.239   5.117 -0.4620 -0.1583  0.1142
  195DOPC  H18R24161   4.512   0.179   5.060 -0.3997  1.6869 -2.0509
  195DOPC  H18S24162   4.548   0.235   5.221  1.2181 -0.6938  0.7431
  195DOPC  H18T24163   4.678   0.179   5.102 -1.2697 -1.0466 -1.5711
  195DOPC   C3324164   4.996   1.083   4.110  0.4220  0.5652 -0.6627
  195DOPC   H3X24165   5.103   1.096   4.083  1.1226 -3.5222 -0.4588
  195DOPC   H3Y24166   4.992   0.981   4.155 -1.0858  0.7990 -0.1898
  195DOPC   C3424167   4.965   1.188   4.212 -0.4252 -0.4958  0.1712
  195DOPC   H4X24168   4.855   1.186   4.229 -0.5972  4.8245  1.3676
  195DOPC   H4Y24169   4.982   1.289   4.170  3.2217 -1.3377 -0.7463
  195DOPC   C3524170   5.035   1.179   4.347 -0.3219  0.1278 -1.2901
  195DOPC   H5X24171   5.142   1.204   4.331  0.2785 -2.4651 -1.8672
  195DOPC   H5Y24172   5.041   1.073   4.379 -1.8766  0.7546  1.3835
  195DOPC   C3624173   4.968   1.271   4.455 -0.9141 -0.0336  0.4134
  195DOPC   H6X24174   4.943   1.367   4.405 -1.5311 -1.9187 -3.2309
  195DOPC   H6Y24175   4.869   1.225   4.476 -1.6392  1.8751  1.3454
  195DOPC   C3724176   5.043   1.298   4.585 -0.1619 -0.4046 -0.3236
  195DOPC   H7X24177   5.077   1.201   4.626  1.1725 -0.9695 -2.5752
  195DOPC   H7Y24178   5.143   1.343   4.568  0.0981 -0.8754 -0.0436
  195DOPC   C3824179   4.964   1.392   4.683  0.0585  0.2446 -0.3800
  195DOPC   H8X24180   4.919   1.472   4.621 -1.8196  1.5648  2.5002
  195DOPC   H8Y24181   5.041   1.443   4.745 -1.5643  2.4880 -0.1328
  195DOPC   C3924182   4.861   1.314   4.770 -0.3836 -0.3854  0.8398
  195DOPC   H9X24183   4.843   1.216   4.725  0.8343  0.3589 -1.4085
  195DOPC  C31024184   4.798   1.350   4.882  0.0096 -0.5064  0.3737
  195DOPC  H10X24185   4.724   1.282   4.926  1.0452 -0.2246  2.6843
  195DOPC  C31124186   4.810   1.481   4.953  0.6548 -0.5031 -0.1055
  195DOPC  H11X24187   4.882   1.548   4.901  0.9184 -0.0751  0.8032
  195DOPC  H11Y24188   4.856   1.476   5.053 -0.1314 -1.0857  0.2378
  195DOPC  C31224189   4.686   1.569   4.976  0.6817 -0.4126  0.4046
  195DOPC  H12X24190   4.622   1.570   4.885 -2.0147  0.4473  2.1701
  195DOPC  H12Y24191   4.707   1.677   4.992 -0.8335  0.2327 -1.5139
  195DOPC  C31324192   4.589   1.519   5.088  0.0183 -0.5075  0.1896
  195DOPC  H13X24193   4.489   1.561   5.066  0.4388  0.1416 -0.5551
  195DOPC  H13Y24194   4.596   1.409   5.078 -0.6653 -0.5747  0.4031
  195DOPC  C31424195   4.616   1.556   5.238 -0.2084 -0.3408  0.4744
  195DOPC  H14X24196   4.718   1.522   5.264 -0.6042 -0.6715  1.6682
  195DOPC  H14Y24197   4.603   1.665   5.256  1.3137 -0.4127  2.2530
  195DOPC  C31524198   4.521   1.482   5.331  0.6910  0.1275  0.1978
  195DOPC  H15X24199   4.557   1.378   5.323  0.1254  0.0297 -1.4380
  195DOPC  H15Y24200   4.423   1.474   5.279  0.5330 -1.3260  0.6900
  195DOPC  C31624201   4.515   1.543   5.473  0.4023  0.7588  0.3953
  195DOPC  H16X24202   4.561   1.644   5.470  2.3194 -0.0887 -0.7837
  195DOPC  H16Y24203   4.414   1.559   5.516  0.2243  0.1422  0.2133
  195DOPC  C31724204   4.592   1.456   5.579  0.6175 -0.0964 -0.0142
  195DOPC  H17X24205   4.588   1.522   5.668 -0.1895 -2.9724  2.2434
  195DOPC  H17Y24206   4.533   1.373   5.623 -1.0314  0.5162 -0.9517
  195DOPC  C31824207   4.736   1.417   5.549 -0.2265 -0.1446 -0.0747
  195DOPC  H18X24208   4.766   1.357   5.638 -1.4572 -0.4361  0.1525
  195DOPC  H18Y24209   4.749   1.351   5.460 -0.3833 -0.7988  0.3831
  195DOPC  H18Z24210   4.797   1.510   5.541  0.4984 -0.6749 -1.0321
  196DOPC     N24211   6.901   0.549   2.694  0.7369 -0.7720  0.4534
  196DOPC   C1224212   6.875   0.438   2.801 -0.0011  0.5397  0.5316
  196DOPC  H12A24213   6.912   0.341   2.771 -1.0956  0.3758 -0.3295
  196DOPC  H12B24214   6.773   0.409   2.818  1.3107 -3.3940  3.3187
  196DOPC   C1324215   7.037   0.606   2.702  0.4290  0.2792  0.3533
  196DOPC  H13A24216   7.121   0.539   2.700 -0.8667 -1.3983 -0.1771
  196DOPC  H13B24217   7.057   0.668   2.615  0.0922 -0.2149 -0.0823
  196DOPC  H13C24218   7.036   0.667   2.791  0.1088  3.4131 -1.5970
  196DOPC   C1424219   6.807   0.662   2.712  0.6471 -0.4407  0.4151
  196DOPC  H14A24220   6.826   0.716   2.803 -1.1782  1.3805 -0.2194
  196DOPC  H14B24221   6.812   0.739   2.637 -1.9853  1.3502  1.9473
  196DOPC  H14C24222   6.708   0.621   2.701  0.8971 -0.6990 -1.1714
  196DOPC   C1524223   6.877   0.492   2.553  0.1272 -0.2497 -0.4970
  196DOPC  H15A24224   6.895   0.572   2.484  1.2194  0.0043  0.0508
  196DOPC  H15B24225   6.783   0.440   2.545 -0.6571  0.9256  0.6249
  196DOPC  H15C24226   6.948   0.415   2.527  1.3340 -0.0990  2.0200
  196DOPC   C1124227   6.919   0.463   2.950  0.1195 -0.1433  0.1182
  196DOPC  H11A24228   6.889   0.377   3.013 -0.9505 -1.1172 -1.6411
  196DOPC  H11B24229   7.030   0.469   2.951  0.0880  1.2656 -1.1804
  196DOPC     P24230   6.725   0.587   3.086 -0.1455  0.0526 -0.1587
  196DOPC   O1324231   6.618   0.549   2.998  0.2708 -0.5693 -0.2103
  196DOPC   O1424232   6.720   0.719   3.151  0.6622 -0.0638  0.8774
  196DOPC   O1224233   6.859   0.583   3.003  0.1131 -0.3733  0.2839
  196DOPC   O1124234   6.742   0.477   3.199 -0.2423 -0.3036  0.0709
  196DOPC    C124235   6.855   0.470   3.288 -0.7467  0.0718 -0.3004
  196DOPC    HA24236   6.872   0.567   3.339  0.6527  0.5445 -1.5717
  196DOPC    HB24237   6.949   0.437   3.240  0.9938 -0.2586  3.0818
  196DOPC    C224238   6.823   0.383   3.417 -0.5398 -0.1415  0.0859
  196DOPC    HS24239   6.805   0.279   3.381  0.7904  0.1491 -1.5449
  196DOPC   O2124240   6.714   0.433   3.496  0.4398 -0.1358 -0.4435
  196DOPC   C2124241   6.598   0.360   3.483 -0.1234 -1.2816 -0.4785
  196DOPC   O2224242   6.580   0.260   3.411 -0.0878 -0.8725 -0.3274
  196DOPC   C2224243   6.493   0.418   3.571  0.1199 -0.5374  0.1393
  196DOPC   H2R24244   6.461   0.513   3.524 -0.6449  0.5738  2.7393
  196DOPC   H2S24245   6.539   0.443   3.670  0.8484  2.3470 -0.8259
  196DOPC    C324246   6.943   0.384   3.515 -0.5824  0.5446  0.5043
  196DOPC    HX24247   6.963   0.491   3.537  0.9543  0.9587 -2.3969
  196DOPC    HY24248   7.027   0.345   3.454 -1.6624 -0.9442 -0.0849
  196DOPC   O3124249   6.918   0.307   3.630  0.5366 -0.2143 -0.6559
  196DOPC   C3124250   6.922   0.174   3.617  0.2992  0.2825  0.3042
  196DOPC   O3224251   6.944   0.113   3.515 -0.0483  0.4831 -0.0612
  196DOPC   C3224252   6.874   0.108   3.744 -0.1176 -0.2844 -1.2167
  196DOPC   H2X24253   6.882   0.178   3.829  0.2477  0.0160 -1.4923
  196DOPC   H2Y24254   6.768   0.078   3.727 -0.6444  0.6159  0.2912
  196DOPC   C2324255   6.362   0.338   3.584  0.0315 -0.2223 -0.2675
  196DOPC   H3R24256   6.358   0.260   3.504  0.4139  0.0894 -0.5930
  196DOPC   H3S24257   6.268   0.397   3.585  1.0458  1.4794 -0.9035
  196DOPC   C2424258   6.375   0.266   3.715  0.1383  0.1064 -0.3012
  196DOPC   H4R24259   6.283   0.203   3.727 -2.0940  3.0381 -0.8752
  196DOPC   H4S24260   6.372   0.341   3.797  0.9186 -2.1585  1.9155
  196DOPC   C2524261   6.498   0.176   3.729 -0.1095  0.3107 -0.2385
  196DOPC   H5R24262   6.583   0.245   3.711  0.2938 -0.3566 -0.8844
  196DOPC   H5S24263   6.487   0.106   3.644 -1.7539  0.4130 -0.1498
  196DOPC   C2624264   6.498   0.105   3.865 -0.0270 -0.1402  0.6347
  196DOPC   H6R24265   6.598   0.057   3.867 -1.0213 -2.6137 -1.8529
  196DOPC   H6S24266   6.431   0.017   3.870  2.4926 -2.1169  1.3445
  196DOPC   C2724267   6.492   0.203   3.979  0.3430 -0.0425 -0.6980
  196DOPC   H7R24268   6.393   0.254   3.985  0.7211  0.5039  2.1405
  196DOPC   H7S24269   6.561   0.287   3.957  0.9795 -0.4695 -0.3566
  196DOPC   C2824270   6.553   0.150   4.108 -0.2737 -0.5162 -0.1083
  196DOPC   H8R24271   6.561   0.237   4.177  2.4518 -0.8112  0.0735
  196DOPC   H8S24272   6.661   0.126   4.100 -0.1745 -0.8458  1.6569
  196DOPC   C2924273   6.491   0.031   4.168 -0.5126  0.6162  0.0409
  196DOPC   H9R24274   6.468  -0.047   4.094  0.3005  0.5759 -0.1821
  196DOPC  C21024275   6.465   0.001   4.299  0.0010 -0.4307  0.5610
  196DOPC  H10R24276   6.421  -0.098   4.317 -3.7632  0.8749 -0.5203
  196DOPC  C21124277   6.495   0.081   4.424  0.6196  0.1617 -0.3281
  196DOPC  H11R24278   6.453   0.029   4.513  1.5828 -0.2818 -0.1200
  196DOPC  H11S24279   6.436   0.175   4.418 -2.3469 -1.3200  2.3102
  196DOPC  C21224280   6.645   0.097   4.451 -0.1113  0.2945  0.0710
  196DOPC  H12R24281   6.707   0.141   4.371 -0.5238  0.0479 -0.3913
  196DOPC  H12S24282   6.685  -0.006   4.455  0.2488  0.3905 -0.8684
  196DOPC  C21324283   6.686   0.169   4.581 -0.4101  0.3296 -0.2640
  196DOPC  H13R24284   6.627   0.134   4.668 -0.2062  0.3755 -0.1060
  196DOPC  H13S24285   6.670   0.279   4.578  1.8717  0.6903 -1.1326
  196DOPC  C21424286   6.837   0.158   4.617 -0.2038  0.4830 -0.0590
  196DOPC  H14R24287   6.859   0.055   4.581  0.1473  0.1948  0.9213
  196DOPC  H14S24288   6.843   0.161   4.728 -4.4896 -3.3699  0.6020
  196DOPC  C21524289   6.928   0.253   4.553 -0.3127 -0.4147  0.0243
  196DOPC  H15R24290   6.893   0.355   4.579  0.1972 -0.6820  1.8828
  196DOPC  H15S24291   6.941   0.236   4.444  1.5590 -1.1818  0.3190
  196DOPC  C21624292   7.069   0.247   4.613  0.0115  0.0407  0.5443
  196DOPC  H16R24293   7.061   0.265   4.722 -1.2751  0.1109  0.4561
  196DOPC  H16S24294   7.142   0.320   4.570  0.9290 -0.1430  1.7448
  196DOPC  C21724295   7.131   0.107   4.568  0.6564  0.0669  0.0472
  196DOPC  H17R24296   7.093   0.076   4.469 -0.7394  1.1959  0.1788
  196DOPC  H17S24297   7.106   0.023   4.636  1.2235 -1.7246 -1.8714
  196DOPC  C21824298   7.285   0.106   4.568  0.0893  0.2931  0.1269
  196DOPC  H18R24299   7.329   0.176   4.494  0.7255  0.0310  0.2466
  196DOPC  H18S24300   7.324   0.004   4.547  1.0618  0.7798 -0.5440
  196DOPC  H18T24301   7.326   0.132   4.668  1.3342  1.1655 -0.5874
  196DOPC   C3324302   6.971  -0.016   3.770  0.0327 -0.5184  0.5926
  196DOPC   H3X24303   7.078   0.012   3.776 -0.2600  1.4489 -1.9244
  196DOPC   H3Y24304   6.976  -0.086   3.684  3.0875  0.7626 -0.4005
  196DOPC   C3424305   6.941  -0.087   3.903  0.4953  0.3024  0.0227
  196DOPC   H4X24306   6.987  -0.187   3.898 -0.6040 -0.1991 -0.5194
  196DOPC   H4Y24307   6.830  -0.098   3.909  0.7103 -1.9998  0.7838
  196DOPC   C3524308   7.001  -0.014   4.027 -0.4086  0.1203  0.3405
  196DOPC   H5X24309   6.986   0.094   4.009 -0.1709 -0.3636 -3.8610
  196DOPC   H5Y24310   7.110  -0.032   4.022 -0.7856 -2.4344 -0.0717
  196DOPC   C3624311   6.954  -0.063   4.158 -0.1560  0.1897  0.4582
  196DOPC   H6X24312   7.002   0.002   4.235  0.8812 -2.3920  2.1310
  196DOPC   H6Y24313   6.844  -0.057   4.169 -0.2179  0.7143 -0.3806
  196DOPC   C3724314   6.990  -0.210   4.189  0.2163  0.3131 -0.1119
  196DOPC   H7X24315   6.926  -0.265   4.116 -0.3758  0.4788  0.2685
  196DOPC   H7Y24316   7.097  -0.230   4.169  0.4291  3.1938 -2.6105
  196DOPC   C3824317   6.937  -0.254   4.325  0.3767 -0.5669 -0.6538
  196DOPC   H8X24318   6.923  -0.364   4.335  0.9983 -0.6505 -0.6321
  196DOPC   H8Y24319   6.838  -0.205   4.335 -0.0766 -1.6219  0.3323
  196DOPC   C3924320   7.016  -0.216   4.450 -0.1116 -0.5651 -0.4386
  196DOPC   H9X24321   7.104  -0.153   4.429 -1.6410  1.1715 -2.1291
  196DOPC  C31024322   6.993  -0.245   4.580 -0.5205 -0.0153  0.4330
  196DOPC  H10X24323   7.056  -0.188   4.650 -2.0939  2.3796  0.0238
  196DOPC  C31124324   6.884  -0.331   4.635  0.2655  0.5402  0.1055
  196DOPC  H11X24325   6.821  -0.369   4.551 -1.8607  1.7441  1.0649
  196DOPC  H11Y24326   6.821  -0.266   4.700  1.4089  0.9510  0.8231
  196DOPC  C31224327   6.917  -0.452   4.714 -0.7074  0.2612  0.1079
  196DOPC  H12X24328   6.995  -0.506   4.655 -0.6488  0.6022 -0.1276
  196DOPC  H12Y24329   6.828  -0.516   4.731  0.2467 -0.4893  2.7123
  196DOPC  C31324330   6.971  -0.411   4.858 -0.0614 -0.5953  0.4249
  196DOPC  H13X24331   7.082  -0.402   4.851 -0.1231  0.1561  0.3768
  196DOPC  H13Y24332   6.948  -0.305   4.878  4.3176  0.1674  2.5804
  196DOPC  C31424333   6.947  -0.501   4.976  0.2007 -0.4752  0.3622
  196DOPC  H14X24334   6.985  -0.459   5.071 -2.8860  0.0497  1.4849
  196DOPC  H14Y24335   6.836  -0.507   4.984  0.0551  0.0441 -0.9665
  196DOPC  C31524336   6.999  -0.641   4.962 -0.5899 -0.6878 -0.3186
  196DOPC  H15X24337   6.943  -0.700   4.886 -0.9848 -2.6580  1.4120
  196DOPC  H15Y24338   6.980  -0.703   5.052 -2.3209 -1.2241 -1.0242
  196DOPC  C31624339   7.155  -0.654   4.937 -0.5564 -0.1974  0.1472
  196DOPC  H16X24340   7.189  -0.754   4.970  0.9648  0.6897  1.4151
  196DOPC  H16Y24341   7.173  -0.640   4.828 -0.3633  2.2154  0.4207
  196DOPC  C31724342   7.249  -0.550   5.018 -0.1703 -0.3311  0.1419
  196DOPC  H17X24343   7.228  -0.445   4.990 -0.2797 -0.5476 -0.5999
  196DOPC  H17Y24344   7.218  -0.561   5.124 -1.9215 -3.1406 -0.5635
  196DOPC  C31824345   7.400  -0.577   5.012 -0.0485  0.7014  0.1055
  196DOPC  H18X24346   7.442  -0.551   4.913  0.5633  1.7665  0.6221
  196DOPC  H18Y24347   7.457  -0.523   5.091  1.7312 -1.0698  0.0821
  196DOPC  H18Z24348   7.425  -0.682   5.037 -0.6189  0.1857 -1.4135
  197DOPC     N24349   3.290   6.658   2.536 -0.6963 -0.2370 -0.2572
  197DOPC   C1224350   3.361   6.621   2.670 -0.3333 -0.5496 -0.2185
  197DOPC  H12A24351   3.299   6.555   2.728 -1.9118  0.1377 -1.0486
  197DOPC  H12B24352   3.377   6.714   2.723 -1.6928  0.7328 -1.9151
  197DOPC   C1324353   3.157   6.727   2.569  0.9876 -0.0168 -0.3919
  197DOPC  H13A24354   3.086   6.658   2.610  0.5441 -0.2700 -1.5610
  197DOPC  H13B24355   3.171   6.798   2.650 -1.3140  0.3224 -0.2190
  197DOPC  H13C24356   3.121   6.767   2.475  0.2864  0.2203 -0.0262
  197DOPC   C1424357   3.265   6.543   2.451  0.3883 -0.9467  0.4020
  197DOPC  H14A24358   3.181   6.483   2.483  0.9109 -1.6921  0.3871
  197DOPC  H14B24359   3.237   6.569   2.350 -2.2841 -0.2480  1.2308
  197DOPC  H14C24360   3.349   6.476   2.449  0.4484 -0.8587  0.0010
  197DOPC   C1524361   3.375   6.753   2.461 -0.1941 -0.0698  0.2209
  197DOPC  H15A24362   3.331   6.800   2.375 -1.8534 -1.1530  0.4332
  197DOPC  H15B24363   3.471   6.708   2.436 -0.2637 -1.0825  1.6660
  197DOPC  H15C24364   3.389   6.836   2.529 -0.9074 -0.6977  1.1569
  197DOPC   C1124365   3.498   6.549   2.651  0.7155 -0.9273  0.4168
  197DOPC  H11A24366   3.567   6.602   2.582 -2.1991 -0.3761 -2.2628
  197DOPC  H11B24367   3.542   6.544   2.753  1.0170  0.2672  0.3641
  197DOPC     P24368   3.445   6.285   2.655 -0.3105  0.0517 -0.1061
  197DOPC   O1324369   3.556   6.198   2.709 -0.4880 -0.4392  0.1466
  197DOPC   O1424370   3.357   6.215   2.561  0.2000 -0.0417  0.2134
  197DOPC   O1224371   3.498   6.421   2.597  0.1365 -0.4324 -0.2442
  197DOPC   O1124372   3.359   6.325   2.778  0.0638  0.6646  0.3023
  197DOPC    C124373   3.321   6.223   2.867  0.7180 -0.4987 -0.6682
  197DOPC    HA24374   3.391   6.137   2.876 -1.1116 -1.8797  1.0237
  197DOPC    HB24375   3.226   6.176   2.837  0.5937  0.9736 -2.7453
  197DOPC    C224376   3.304   6.286   3.011 -0.3783 -0.0351 -0.1877
  197DOPC    HS24377   3.221   6.359   2.997 -2.4146 -1.3223  3.5863
  197DOPC   O2124378   3.430   6.344   3.051 -0.5155 -0.1432 -0.6546
  197DOPC   C2124379   3.430   6.473   3.077 -0.4462 -0.2351  0.0546
  197DOPC   O2224380   3.342   6.555   3.052 -0.3990  0.1106 -0.0682
  197DOPC   C2224381   3.561   6.520   3.132 -0.2699  0.1577 -0.2529
  197DOPC   H2R24382   3.594   6.620   3.099  1.2856 -0.4300 -0.5392
  197DOPC   H2S24383   3.644   6.456   3.096  0.7350  1.7550 -0.8666
  197DOPC    C324384   3.253   6.183   3.122 -0.2865 -0.2657 -1.0606
  197DOPC    HX24385   3.253   6.252   3.209  2.4639  0.8231 -1.8189
  197DOPC    HY24386   3.328   6.102   3.134 -0.0404  0.2335  1.1954
  197DOPC   O3124387   3.120   6.126   3.093  0.1494  0.4927  0.4350
  197DOPC   C3124388   3.058   6.089   3.209  0.2517 -0.1240  0.3271
  197DOPC   O3224389   3.110   6.097   3.317  0.4879 -0.2611 -0.0671
  197DOPC   C3224390   2.915   6.044   3.181  0.3600  0.0975 -0.0151
  197DOPC   H2X24391   2.892   6.080   3.079  0.2669  1.3126  0.4219
  197DOPC   H2Y24392   2.903   5.933   3.185 -0.3188  0.1721  0.2313
  197DOPC   C2324393   3.559   6.516   3.280  0.2570  0.2930  0.1752
  197DOPC   H3R24394   3.667   6.528   3.304  0.3837  0.9663 -0.6873
  197DOPC   H3S24395   3.531   6.417   3.321  1.1035  0.3243  0.8606
  197DOPC   C2424396   3.483   6.631   3.351  0.0192 -1.0198 -0.3906
  197DOPC   H4R24397   3.374   6.627   3.330 -0.0850  0.9141 -0.3529
  197DOPC   H4S24398   3.539   6.723   3.325  1.2177 -1.1550  1.5399
  197DOPC   C2524399   3.481   6.615   3.507  0.1855 -1.1330  0.4272
  197DOPC   H5R24400   3.485   6.506   3.529  0.0462 -0.9230  1.5179
  197DOPC   H5S24401   3.388   6.654   3.553 -0.2530  2.0700 -2.6913
  197DOPC   C2624402   3.594   6.707   3.566 -0.2294  0.3814 -0.5907
  197DOPC   H6R24403   3.575   6.815   3.545 -0.0801  0.9460  1.8462
  197DOPC   H6S24404   3.686   6.674   3.514 -1.0234 -0.1248 -1.7202
  197DOPC   C2724405   3.616   6.691   3.717 -0.1343 -0.5474  0.6151
  197DOPC   H7R24406   3.532   6.731   3.778  0.0797  1.3663 -0.2986
  197DOPC   H7S24407   3.704   6.754   3.742 -0.1423 -0.7829  1.2634
  197DOPC   C2824408   3.632   6.551   3.771 -0.5383 -0.7645 -0.3790
  197DOPC   H8R24409   3.546   6.488   3.740 -0.3101 -0.7643 -1.0108
  197DOPC   H8S24410   3.616   6.556   3.881 -1.4862  0.2360 -0.5440
  197DOPC   C2924411   3.767   6.492   3.741 -0.1722 -0.6653  0.4393
  197DOPC   H9R24412   3.794   6.476   3.636 -2.5330 -1.9281 -0.0561
  197DOPC  C21024413   3.856   6.458   3.834  0.2615  0.8200  0.3117
  197DOPC  H10R24414   3.947   6.411   3.793 -0.3533 -1.3571  1.2556
  197DOPC  C21124415   3.845   6.463   3.980  0.5698 -0.1309 -0.3678
  197DOPC  H11R24416   3.744   6.427   4.008 -0.3109  0.0331 -3.0167
  197DOPC  H11S24417   3.848   6.573   3.998 -0.0701 -0.0711 -0.5884
  197DOPC  C21224418   3.953   6.393   4.067  0.4367  1.0769 -0.0953
  197DOPC  H12R24419   4.054   6.438   4.057  0.6906  0.8995  1.3855
  197DOPC  H12S24420   3.967   6.286   4.041  0.4909  0.9991  0.2435
  197DOPC  C21324421   3.910   6.384   4.218  0.6095 -1.0176 -0.2916
  197DOPC  H13R24422   3.822   6.331   4.260  1.5248 -0.6567  2.2755
  197DOPC  H13S24423   3.903   6.483   4.267 -0.0135 -1.8528  1.3790
  197DOPC  C21424424   4.036   6.327   4.296  0.6467  1.1054  0.0754
  197DOPC  H14R24425   4.128   6.386   4.276  0.4231  1.8800  1.1931
  197DOPC  H14S24426   4.050   6.224   4.258 -4.4886  0.2815 -0.3308
  197DOPC  C21524427   4.013   6.313   4.453  0.3078  0.6024  0.3983
  197DOPC  H15R24428   3.908   6.342   4.476  0.6131  2.1824 -0.1096
  197DOPC  H15S24429   4.080   6.388   4.500  0.3076  0.9386 -0.1426
  197DOPC  C21624430   4.046   6.178   4.515  0.0514  0.2064  0.1762
  197DOPC  H16R24431   4.153   6.159   4.496 -0.3073 -0.4936 -1.3393
  197DOPC  H16S24432   3.987   6.102   4.459 -0.1155  0.8477 -0.5421
  197DOPC  C21724433   4.024   6.151   4.665  0.0196  0.0777 -0.0446
  197DOPC  H17R24434   4.028   6.041   4.684  1.0477 -0.0637 -0.9616
  197DOPC  H17S24435   3.920   6.177   4.693  0.3762  0.3241  1.0644
  197DOPC  C21824436   4.137   6.208   4.749  0.2801 -0.3346 -0.6293
  197DOPC  H18R24437   4.128   6.189   4.858  2.3239  2.6961  0.1821
  197DOPC  H18S24438   4.136   6.318   4.739  0.0545 -0.5192 -3.2386
  197DOPC  H18T24439   4.231   6.159   4.715  0.5095  0.2001 -0.7718
  197DOPC   C3324440   2.818   6.102   3.288  0.4960 -0.3576 -0.8114
  197DOPC   H3X24441   2.816   6.211   3.310  0.5347 -0.7943  1.6190
  197DOPC   H3Y24442   2.852   6.061   3.385  1.6137  0.2155 -0.9384
  197DOPC   C3424443   2.670   6.054   3.279  0.0968  0.5781  0.1375
  197DOPC   H4X24444   2.671   5.945   3.260 -0.9508  1.0711 -3.3432
  197DOPC   H4Y24445   2.629   6.100   3.187 -1.7482 -2.2606 -0.5720
  197DOPC   C3524446   2.579   6.096   3.397 -0.2900 -0.3810  0.1782
  197DOPC   H5X24447   2.475   6.101   3.360 -1.3822  2.6300  3.1532
  197DOPC   H5Y24448   2.597   6.203   3.421  0.4538 -0.3506 -0.4794
  197DOPC   C3624449   2.579   6.004   3.520 -0.8704 -0.0491 -0.4021
  197DOPC   H6X24450   2.572   5.901   3.479  0.8469 -0.1850 -0.4243
  197DOPC   H6Y24451   2.659   6.023   3.594  1.3029 -1.2930 -2.2768
  197DOPC   C3724452   2.444   6.024   3.595 -0.2904 -0.4164  0.2661
  197DOPC   H7X24453   2.421   6.127   3.629  1.1293 -0.4704  1.5198
  197DOPC   H7Y24454   2.360   6.005   3.525  0.5108 -1.2771 -0.4887
  197DOPC   C3824455   2.410   5.943   3.721 -0.1015  0.6408  0.0945
  197DOPC   H8X24456   2.349   6.005   3.790  0.8258  0.4870  1.0852
  197DOPC   H8Y24457   2.506   5.932   3.776  1.4760  0.2535 -2.5703
  197DOPC   C3924458   2.350   5.812   3.682 -0.4355  0.1325 -0.3671
  197DOPC   H9X24459   2.407   5.758   3.605  0.1009  1.1598 -0.7124
  197DOPC  C31024460   2.248   5.748   3.742 -0.6386  0.0221 -0.0935
  197DOPC  H10X24461   2.225   5.645   3.712  3.5156 -1.4582  1.0938
  197DOPC  C31124462   2.183   5.803   3.867 -0.0278 -0.8927 -0.1223
  197DOPC  H11X24463   2.112   5.881   3.832  1.3752 -0.4234 -2.0687
  197DOPC  H11Y24464   2.263   5.855   3.923 -0.6961 -0.3059  0.2975
  197DOPC  C31224465   2.107   5.696   3.944  0.5098  0.0998 -0.1629
  197DOPC  H12X24466   2.172   5.613   3.979 -0.4622 -0.8655 -0.5506
  197DOPC  H12Y24467   2.037   5.644   3.874 -0.6458 -0.1384  1.1242
  197DOPC  C31324468   2.012   5.757   4.046  0.1480  0.0452 -0.6741
  197DOPC  H13X24469   2.079   5.811   4.117 -0.3779 -1.7042  1.2209
  197DOPC  H13Y24470   1.966   5.845   3.996  0.7166 -0.4911 -2.1901
  197DOPC  C31424471   1.913   5.662   4.112 -0.2382 -0.4720 -0.3415
  197DOPC  H14X24472   1.962   5.579   4.168  0.9116  0.8485  0.7335
  197DOPC  H14Y24473   1.859   5.712   4.196 -2.1589  0.5180 -2.0805
  197DOPC  C31524474   1.805   5.605   4.018 -0.1463  0.3319 -0.2361
  197DOPC  H15X24475   1.737   5.536   4.072  0.2185 -0.4036 -0.7078
  197DOPC  H15Y24476   1.844   5.544   3.934 -1.2921  1.4797 -1.6680
  197DOPC  C31624477   1.720   5.712   3.950  0.0858  0.2216  0.1464
  197DOPC  H16X24478   1.669   5.783   4.018 -1.0933 -0.8521  0.4315
  197DOPC  H16Y24479   1.782   5.771   3.879 -0.6548  2.4078  1.2373
  197DOPC  C31724480   1.602   5.642   3.874  0.1974 -0.0370  0.3359
  197DOPC  H17X24481   1.643   5.564   3.806  2.5209  0.7137  0.7787
  197DOPC  H17Y24482   1.545   5.585   3.950  1.7723 -1.0304  0.8398
  197DOPC  C31824483   1.507   5.744   3.808  0.7042  0.1922 -0.1131
  197DOPC  H18X24484   1.431   5.693   3.745  5.1299 -2.0859 -4.2606
  197DOPC  H18Y24485   1.455   5.797   3.891 -0.2978  1.5089 -1.5250
  197DOPC  H18Z24486   1.559   5.820   3.745 -2.5006  0.5929 -2.5570
  198DOPC     N24487   5.376   7.292   2.965  0.8133  0.0966 -0.2065
  198DOPC   C1224488   5.349   7.256   3.113 -0.0773  0.4427 -0.8988
  198DOPC  H12A24489   5.330   7.151   3.127 -3.3881  1.2041  1.6506
  198DOPC  H12B24490   5.253   7.299   3.138 -0.7215 -1.7708  0.7005
  198DOPC   C1324491   5.307   7.204   2.866  0.0861  0.1067 -0.5674
  198DOPC  H13A24492   5.217   7.172   2.916  1.4364  1.2642  2.8980
  198DOPC  H13B24493   5.284   7.256   2.774 -0.7269 -0.2255 -0.5613
  198DOPC  H13C24494   5.372   7.122   2.840 -1.3824 -1.4205  0.3449
  198DOPC   C1424495   5.528   7.284   2.937  0.0410  0.7102 -0.2243
  198DOPC  H14A24496   5.587   7.360   2.985 -0.1139 -1.8647  4.5890
  198DOPC  H14B24497   5.559   7.191   2.981 -1.0257  1.3997  2.1072
  198DOPC  H14C24498   5.554   7.270   2.833  0.8280 -1.0669  0.1846
  198DOPC   C1524499   5.331   7.432   2.938  0.3546 -0.0013 -0.0080
  198DOPC  H15A24500   5.227   7.442   2.966  0.5635  0.2346  0.6968
  198DOPC  H15B24501   5.335   7.452   2.831 -0.5066  1.5493  0.2080
  198DOPC  H15C24502   5.386   7.504   2.997  1.3763 -1.3575  0.7277
  198DOPC   C1124503   5.444   7.308   3.223 -0.0712 -0.1739 -0.5260
  198DOPC  H11A24504   5.394   7.286   3.320 -2.2163  0.4916 -1.4403
  198DOPC  H11B24505   5.535   7.244   3.222  1.0250  1.3326 -0.0504
  198DOPC     P24506   5.588   7.524   3.270  0.4692 -0.3746  0.1160
  198DOPC   O1324507   5.543   7.668   3.270 -0.3349  0.3912 -0.0276
  198DOPC   O1424508   5.713   7.495   3.204 -0.3602 -0.4578  0.4353
  198DOPC   O1224509   5.468   7.443   3.202  0.1610 -0.0201  0.0454
  198DOPC   O1124510   5.599   7.470   3.414 -0.0475  0.6451 -0.3281
  198DOPC    C124511   5.517   7.512   3.520 -0.5529  0.1690 -0.0694
  198DOPC    HA24512   5.460   7.428   3.565 -0.7029  0.1355 -0.3224
  198DOPC    HB24513   5.456   7.602   3.500 -0.7149  0.1991  0.5407
  198DOPC    C224514   5.612   7.570   3.627 -0.0810  0.0662 -0.5416
  198DOPC    HS24515   5.662   7.658   3.582 -1.5916  0.3347 -1.8068
  198DOPC   O2124516   5.712   7.469   3.671 -0.2257  0.1284  0.4578
  198DOPC   C2124517   5.816   7.516   3.725  0.2983 -0.0835 -0.2966
  198DOPC   O2224518   5.823   7.632   3.770  0.3184 -0.1401  0.5582
  198DOPC   C2224519   5.931   7.411   3.741 -0.0629 -0.3095  0.7485
  198DOPC   H2R24520   5.943   7.352   3.647 -1.6985 -0.3632  0.5343
  198DOPC   H2S24521   5.901   7.346   3.826 -2.0821  0.5889  0.7939
  198DOPC    C324522   5.529   7.622   3.746 -0.3819 -0.1900  0.0133
  198DOPC    HX24523   5.578   7.667   3.834 -1.4734  1.5016 -0.1856
  198DOPC    HY24524   5.478   7.526   3.771  2.3951 -1.8624 -0.3141
  198DOPC   O3124525   5.437   7.729   3.701 -0.1533 -0.1350  0.6661
  198DOPC   C3124526   5.337   7.751   3.790  0.1454 -0.0603  0.6097
  198DOPC   O3224527   5.326   7.689   3.894  0.7012 -0.1466  0.1971
  198DOPC   C3224528   5.236   7.860   3.741  0.1923 -0.1129  0.0290
  198DOPC   H2X24529   5.278   7.938   3.674  0.7196 -0.0960  0.3740
  198DOPC   H2Y24530   5.158   7.810   3.679 -1.6677  2.8132 -0.2007
  198DOPC   C2324531   6.063   7.465   3.777 -0.0170 -0.2151 -0.7604
  198DOPC   H3R24532   6.094   7.550   3.713 -1.4424  1.0286  0.1430
  198DOPC   H3S24533   6.132   7.380   3.760 -2.2392 -1.7346 -2.8236
  198DOPC   C2424534   6.067   7.498   3.929  0.2201 -0.2204 -0.0486
  198DOPC   H4R24535   5.978   7.551   3.968 -0.7306 -1.0621 -1.0095
  198DOPC   H4S24536   6.150   7.567   3.955 -1.0010  0.8603  1.1297
  198DOPC   C2524537   6.081   7.376   4.017 -0.4616 -0.6127  0.5822
  198DOPC   H5R24538   6.176   7.334   3.976 -0.1016  1.9232 -1.4498
  198DOPC   H5S24539   5.989   7.315   4.012 -0.4888 -0.5384  0.0735
  198DOPC   C2624540   6.085   7.418   4.163  0.5792 -0.2758 -0.1280
  198DOPC   H6R24541   6.017   7.506   4.172 -1.3359 -1.7050 -0.0066
  198DOPC   H6S24542   6.185   7.460   4.185 -0.0649  1.2556  0.0191
  198DOPC   C2724543   6.057   7.313   4.264  0.2641  0.1467 -0.9577
  198DOPC   H7R24544   6.146   7.247   4.257 -0.7179 -1.0872 -2.3007
  198DOPC   H7S24545   5.963   7.261   4.237 -0.0462  0.4986 -0.5719
  198DOPC   C2824546   6.052   7.386   4.404 -0.9574 -0.3720  0.5744
  198DOPC   H8R24547   5.976   7.467   4.412 -1.2235 -0.6797  1.2814
  198DOPC   H8S24548   6.157   7.420   4.403 -0.5276 -1.6412 -0.6803
  198DOPC   C2924549   6.034   7.292   4.520  0.5358  0.4417 -0.3645
  198DOPC   H9R24550   6.024   7.184   4.498 -1.6424 -0.1853  3.0112
  198DOPC  C21024551   6.018   7.334   4.649  0.0273  0.5417  0.3846
  198DOPC  H10R24552   6.010   7.266   4.735 -0.3055 -0.1066 -0.1535
  198DOPC  C21124553   6.022   7.479   4.695 -0.5180  0.5635  0.5541
  198DOPC  H11R24554   5.987   7.558   4.625  0.7213  1.6035  1.0631
  198DOPC  H11S24555   6.126   7.515   4.708  0.1189 -0.5483 -1.2893
  198DOPC  C21224556   5.933   7.497   4.823 -0.1345  0.2035 -0.5615
  198DOPC  H12R24557   5.990   7.465   4.912 -0.0060  1.2142 -0.2620
  198DOPC  H12S24558   5.844   7.431   4.822  0.1601 -0.2485  0.8777
  198DOPC  C21324559   5.882   7.640   4.842 -0.5285  0.3846  0.1081
  198DOPC  H13R24560   5.816   7.662   4.756  0.2592 -1.2993 -0.9737
  198DOPC  H13S24561   5.966   7.712   4.828  1.8941 -2.7729 -3.4578
  198DOPC  C21424562   5.807   7.653   4.973  0.4905 -0.2159  0.7548
  198DOPC  H14R24563   5.876   7.626   5.055 -0.0682  0.9403  1.6266
  198DOPC  H14S24564   5.727   7.575   4.970  0.3984 -0.0903 -0.9643
  198DOPC  C21524565   5.743   7.783   5.008  0.2028 -0.5808 -0.4966
  198DOPC  H15R24566   5.679   7.809   4.921 -0.7255  1.3229  0.6743
  198DOPC  H15S24567   5.815   7.868   5.018 -1.1777  0.6389 -0.6546
  198DOPC  C21624568   5.663   7.772   5.136 -0.0915 -0.4664 -0.3243
  198DOPC  H16R24569   5.590   7.688   5.138 -0.6055 -0.0251  0.6107
  198DOPC  H16S24570   5.596   7.859   5.153 -0.7178 -0.8956 -0.5211
  198DOPC  C21724571   5.746   7.746   5.261  0.8154 -0.2706  0.8012
  198DOPC  H17R24572   5.781   7.843   5.302 -0.5989  1.5346 -1.8941
  198DOPC  H17S24573   5.830   7.676   5.243 -0.4785 -1.2744 -1.7605
  198DOPC  C21824574   5.646   7.695   5.372  0.0002 -0.1852  0.4314
  198DOPC  H18R24575   5.698   7.659   5.464 -0.1031 -0.7506  0.2731
  198DOPC  H18S24576   5.587   7.610   5.331 -1.2578  0.3879  1.0330
  198DOPC  H18T24577   5.576   7.769   5.415 -0.7108 -1.6237  1.8395
  198DOPC   C3324578   5.173   7.922   3.871  0.2898  0.4243 -0.2866
  198DOPC   H3X24579   5.114   7.848   3.928 -0.2041  1.0653  0.0558
  198DOPC   H3Y24580   5.103   7.989   3.816 -0.3414  0.6937  0.8049
  198DOPC   C3424581   5.271   8.011   3.951 -0.5481 -0.0216 -0.8597
  198DOPC   H4X24582   5.367   8.029   3.897 -0.2775  1.1386 -0.0488
  198DOPC   H4Y24583   5.289   7.967   4.051 -0.1792 -1.2623 -1.4505
  198DOPC   C3524584   5.214   8.147   3.977  0.2802  0.0318  0.8388
  198DOPC   H5X24585   5.121   8.145   4.038  0.2020  0.0074  0.7191
  198DOPC   H5Y24586   5.172   8.202   3.890  0.1787  2.0095  2.0766
  198DOPC   C3624587   5.306   8.235   4.057 -0.2005  0.3628 -0.1358
  198DOPC   H6X24588   5.336   8.180   4.149 -2.0726  0.8173  0.7857
  198DOPC   H6Y24589   5.395   8.255   3.993 -1.3618  2.1641 -1.2756
  198DOPC   C3724590   5.244   8.365   4.107  0.2380  0.5349 -0.6220
  198DOPC   H7X24591   5.205   8.429   4.026  0.2297 -0.5312 -1.4789
  198DOPC   H7Y24592   5.154   8.353   4.171  0.9514  0.6661  0.4306
  198DOPC   C3824593   5.340   8.445   4.194 -0.4431 -0.5928 -0.0359
  198DOPC   H8X24594   5.386   8.390   4.279  0.1987 -2.8222 -1.7072
  198DOPC   H8Y24595   5.280   8.525   4.241 -0.3468 -0.0193 -0.8616
  198DOPC   C3924596   5.442   8.505   4.097 -1.2558 -0.2452 -1.0726
  198DOPC   H9X24597   5.456   8.450   4.002 -0.6024 -2.3283  0.1426
  198DOPC  C31024598   5.515   8.611   4.124  0.2091 -0.6023 -0.2993
  198DOPC  H10X24599   5.568   8.662   4.042 -1.1832 -0.2836 -1.0323
  198DOPC  C31124600   5.496   8.696   4.243  0.0836 -0.9128 -0.5490
  198DOPC  H11X24601   5.591   8.742   4.276 -0.7642  1.8940 -1.7708
  198DOPC  H11Y24602   5.439   8.643   4.323 -1.5062  0.4753 -0.7160
  198DOPC  C31224603   5.421   8.821   4.205 -0.1002 -0.1322 -0.5276
  198DOPC  H12X24604   5.324   8.815   4.152 -1.1093  1.8174  0.9669
  198DOPC  H12Y24605   5.486   8.877   4.135  3.6535 -2.1247  1.0227
  198DOPC  C31324606   5.393   8.915   4.323  0.3205  0.1032  0.2592
  198DOPC  H13X24607   5.353   8.848   4.402 -0.7397  0.0516 -0.3026
  198DOPC  H13Y24608   5.491   8.952   4.360 -1.0712  2.2950  1.9282
  198DOPC  C31424609   5.291   9.035   4.297 -0.0918  0.3156 -0.3863
  198DOPC  H14X24610   5.309   9.071   4.194  0.5677 -0.0451 -0.4073
  198DOPC  H14Y24611   5.185   9.002   4.301 -0.1930  0.6495  2.9724
  198DOPC  C31524612   5.313   9.152   4.394  0.4564 -0.0052  0.3925
  198DOPC  H15X24613   5.420   9.168   4.419  0.3375 -0.5121  1.2918
  198DOPC  H15Y24614   5.267   9.121   4.491 -1.0761  3.4069  0.9344
  198DOPC  C31624615   5.255   9.286   4.344  0.3006 -0.6067  0.3418
  198DOPC  H16X24616   5.147   9.277   4.322 -0.4473  2.8520  1.9246
  198DOPC  H16Y24617   5.273   9.361   4.423 -0.6390  1.1509 -1.0456
  198DOPC  C31724618   5.328   9.327   4.219  0.6443  0.3208 -0.0671
  198DOPC  H17X24619   5.438   9.336   4.231  0.8375 -2.1261  0.5761
  198DOPC  H17Y24620   5.310   9.252   4.139  1.0951  0.2529 -0.1059
  198DOPC  C31824621   5.276   9.459   4.164  0.0753 -0.0567 -0.2300
  198DOPC  H18X24622   5.329   9.485   4.070  0.7529 -0.1701  0.1129
  198DOPC  H18Y24623   5.167   9.455   4.144  0.5768 -1.0521 -3.2658
  198DOPC  H18Z24624   5.305   9.537   4.238  1.3122  0.3512 -1.0971
  199DOPC     N24625   5.077   1.780   2.842  0.3990 -0.7648 -0.1377
  199DOPC   C1224626   5.226   1.808   2.825 -0.2344 -1.0323 -0.3190
  199DOPC  H12A24627   5.249   1.886   2.755  4.4589 -0.5022  1.4722
  199DOPC  H12B24628   5.277   1.722   2.783  1.0016 -1.1681  1.3599
  199DOPC   C1324629   5.020   1.748   2.712  0.3832  0.3805 -0.4456
  199DOPC  H13A24630   5.028   1.829   2.640  0.5754 -0.8597 -1.8789
  199DOPC  H13B24631   5.073   1.660   2.680 -1.8842 -1.0359 -0.5553
  199DOPC  H13C24632   4.920   1.708   2.720  1.7153 -3.1454  0.0924
  199DOPC   C1424633   5.012   1.914   2.890  0.0122  0.4244  0.4958
  199DOPC  H14A24634   5.067   1.934   2.981  0.3089 -0.4709  0.5251
  199DOPC  H14B24635   5.054   1.984   2.818  0.2029 -2.6428 -2.6571
  199DOPC  H14C24636   4.905   1.905   2.883  0.2434 -1.7049 -1.5064
  199DOPC   C1524637   5.054   1.673   2.944  0.4695  0.4279  0.3797
  199DOPC  H15A24638   5.085   1.700   3.043 -0.3407  0.7335  0.5598
  199DOPC  H15B24639   5.111   1.586   2.914 -0.2051 -0.6294  2.0302
  199DOPC  H15C24640   4.947   1.654   2.941  1.0070 -3.1450 -1.5680
  199DOPC   C1124641   5.313   1.843   2.953 -0.0299 -0.1948 -0.8027
  199DOPC  H11A24642   5.412   1.881   2.919 -0.1993  1.3449  0.3001
  199DOPC  H11B24643   5.268   1.924   3.015 -0.6915 -0.8902 -0.3596
  199DOPC     P24644   5.412   1.600   3.008 -0.0209 -0.0313  0.1422
  199DOPC   O1324645   5.484   1.616   2.882 -0.2511 -0.4057  0.3545
  199DOPC   O1424646   5.324   1.488   3.007  0.0978 -0.3718 -0.1231
  199DOPC   O1224647   5.325   1.730   3.038  0.0871  0.3220  0.0300
  199DOPC   O1124648   5.508   1.586   3.120  0.0762  0.0899  0.5342
  199DOPC    C124649   5.469   1.605   3.262 -0.4664 -0.7235  0.6525
  199DOPC    HA24650   5.364   1.637   3.276 -0.9878 -2.4228  0.8205
  199DOPC    HB24651   5.530   1.683   3.312  0.6224 -0.8856 -0.3812
  199DOPC    C224652   5.482   1.478   3.344  0.1009 -0.0242 -0.5766
  199DOPC    HS24653   5.448   1.493   3.449  1.0129  1.1681 -0.4334
  199DOPC   O2124654   5.617   1.425   3.343  0.0493 -0.5021  0.2592
  199DOPC   C2124655   5.699   1.487   3.431 -0.1357  0.8931  0.1557
  199DOPC   O2224656   5.668   1.572   3.513 -0.1677  0.1442 -0.4702
  199DOPC   C2224657   5.840   1.426   3.420 -0.2352 -0.1097  0.5745
  199DOPC   H2R24658   5.907   1.500   3.468 -0.8716 -0.3282  1.8521
  199DOPC   H2S24659   5.864   1.418   3.312  0.8646 -1.1801  0.8705
  199DOPC    C324660   5.386   1.365   3.287 -0.4727 -0.2094  0.1228
  199DOPC    HX24661   5.422   1.324   3.191  0.0947 -0.1160  0.2931
  199DOPC    HY24662   5.290   1.413   3.257 -1.2389 -2.2348 -0.8746
  199DOPC   O3124663   5.340   1.267   3.379  0.0993 -0.3826  0.3209
  199DOPC   C3124664   5.428   1.165   3.390 -0.0056  0.4663  0.2523
  199DOPC   O3224665   5.531   1.157   3.325  0.2130  0.9168 -0.0413
  199DOPC   C3224666   5.378   1.068   3.498 -0.9057  0.4326 -0.2745
  199DOPC   H2X24667   5.286   1.022   3.458 -1.1167 -0.9099  1.6312
  199DOPC   H2Y24668   5.461   0.994   3.509  2.5103  3.7229 -1.4877
  199DOPC   C2324669   5.860   1.291   3.495 -0.0739  0.0924  0.1623
  199DOPC   H3R24670   5.964   1.257   3.477  0.4961  0.7313  2.0667
  199DOPC   H3S24671   5.783   1.219   3.460  0.6469 -1.1689  1.1034
  199DOPC   C2424672   5.843   1.297   3.646 -0.1541  0.2392 -0.0664
  199DOPC   H4R24673   5.740   1.332   3.668 -0.4839 -0.2499 -0.7743
  199DOPC   H4S24674   5.917   1.365   3.693  1.4069 -0.8663 -0.8110
  199DOPC   C2524675   5.858   1.151   3.701  0.2414  0.1052  0.1319
  199DOPC   H5R24676   5.963   1.120   3.683  0.0522 -1.4150  1.4354
  199DOPC   H5S24677   5.799   1.085   3.634  1.3859 -1.1396  0.2984
  199DOPC   C2624678   5.812   1.134   3.845 -0.0561 -0.4273  0.1131
  199DOPC   H6R24679   5.793   1.025   3.856 -0.7414 -0.2963  0.2718
  199DOPC   H6S24680   5.709   1.173   3.858 -0.4207 -1.4509  0.4357
  199DOPC   C2724681   5.912   1.173   3.951  0.2478  0.1939  0.2071
  199DOPC   H7R24682   5.852   1.195   4.042 -1.8834  0.2076 -1.1376
  199DOPC   H7S24683   5.968   1.266   3.929 -0.2292  0.5257  0.4007
  199DOPC   C2824684   6.013   1.059   3.988  0.4082  0.0081  0.4215
  199DOPC   H8R24685   6.081   1.041   3.901 -0.6177 -0.1715 -0.3684
  199DOPC   H8S24686   5.949   0.969   3.989  0.4641 -0.0505 -0.2506
  199DOPC   C2924687   6.073   1.101   4.120  0.2223  0.3266 -0.2585
  199DOPC   H9R24688   6.124   1.199   4.122  0.0184  0.5342 -2.7043
  199DOPC  C21024689   6.067   1.015   4.227 -0.0732  0.4414 -1.1589
  199DOPC  H10R24690   6.103   1.044   4.326 -1.5723  1.3027 -0.8369
  199DOPC  C21124691   6.010   0.878   4.244  0.4779 -0.3676  0.2251
  199DOPC  H11R24692   6.087   0.804   4.213  1.4709  0.2035  1.2464
  199DOPC  H11S24693   5.934   0.866   4.164  0.9820 -0.3614 -0.2601
  199DOPC  C21224694   5.959   0.840   4.384  0.3841 -0.2328  0.1743
  199DOPC  H12R24695   5.895   0.924   4.418 -0.1832  0.7594 -3.0400
  199DOPC  H12S24696   6.045   0.812   4.449 -1.2511 -2.5193  1.5335
  199DOPC  C21324697   5.875   0.715   4.379 -0.4462  0.1686 -0.0921
  199DOPC  H13R24698   5.945   0.633   4.354 -0.7275 -0.5018  1.2478
  199DOPC  H13S24699   5.801   0.733   4.298 -1.8768 -0.9088  0.9230
  199DOPC  C21424700   5.804   0.688   4.516  0.1275  0.6574  0.3695
  199DOPC  H14R24701   5.763   0.786   4.548 -0.7832  0.1043  0.9698
  199DOPC  H14S24702   5.888   0.674   4.588  2.5136 -0.6659 -2.4558
  199DOPC  C21524703   5.710   0.566   4.514 -1.1516 -0.1910  0.3640
  199DOPC  H15R24704   5.641   0.586   4.429 -1.3232  0.9769  0.7555
  199DOPC  H15S24705   5.653   0.562   4.609 -0.0082  0.8503  1.1402
  199DOPC  C21624706   5.779   0.432   4.491 -0.4082  0.0678 -0.0093
  199DOPC  H16R24707   5.872   0.421   4.551 -0.6091  2.8358  0.9860
  199DOPC  H16S24708   5.802   0.415   4.383  0.1484 -2.3388  0.4489
  199DOPC  C21724709   5.682   0.315   4.518 -0.0279 -0.1321 -0.0953
  199DOPC  H17R24710   5.596   0.333   4.450  0.6914  1.5125 -0.6285
  199DOPC  H17S24711   5.642   0.317   4.622  2.7361 -1.4167  1.0959
  199DOPC  C21824712   5.732   0.173   4.498  0.6863  0.7236  0.5804
  199DOPC  H18R24713   5.748   0.163   4.389  2.7791  2.1424  0.6888
  199DOPC  H18S24714   5.656   0.095   4.517  0.3671 -0.4556 -4.3499
  199DOPC  H18T24715   5.828   0.155   4.552  0.1754 -0.2868  1.1638
  199DOPC   C3324716   5.347   1.144   3.630 -0.2018 -0.7298 -0.4895
  199DOPC   H3X24717   5.294   1.087   3.709 -0.2422  0.7919  0.6341
  199DOPC   H3Y24718   5.281   1.233   3.618 -0.1447 -0.7125 -0.6618
  199DOPC   C3424719   5.477   1.198   3.701 -0.7994 -0.0444 -0.6044
  199DOPC   H4X24720   5.547   1.241   3.627 -1.4970 -1.2603 -2.0096
  199DOPC   H4Y24721   5.533   1.122   3.760  0.7590  1.7010  0.2732
  199DOPC   C3524722   5.442   1.314   3.804  0.1408 -0.2367 -0.0922
  199DOPC   H5X24723   5.533   1.299   3.866  0.3421 -0.2370 -0.3863
  199DOPC   H5Y24724   5.371   1.273   3.879  0.3855  0.3136  0.4515
  199DOPC   C3624725   5.404   1.452   3.751  0.0364 -0.4181 -0.1758
  199DOPC   H6X24726   5.493   1.500   3.705  1.1326 -0.2326  2.0177
  199DOPC   H6Y24727   5.319   1.454   3.678 -0.9829  3.7901  0.8661
  199DOPC   C3724728   5.345   1.537   3.861 -0.3477  0.8604  0.0834
  199DOPC   H7X24729   5.255   1.485   3.901 -0.6015  1.2612  0.0405
  199DOPC   H7Y24730   5.419   1.547   3.943  2.0399 -0.9073 -1.7158
  199DOPC   C3824731   5.304   1.675   3.816  0.1411 -0.6296  0.8479
  199DOPC   H8X24732   5.396   1.724   3.779 -1.4507  1.4521 -0.6431
  199DOPC   H8Y24733   5.275   1.737   3.904 -2.8777  1.0368 -1.1242
  199DOPC   C3924734   5.204   1.680   3.703 -0.1115  0.7140  0.6856
  199DOPC   H9X24735   5.249   1.684   3.603  2.1598  0.9222  1.6452
  199DOPC  C31024736   5.072   1.686   3.724  0.1924 -0.8465 -0.1284
  199DOPC  H10X24737   5.006   1.710   3.639 -0.3670  2.0106  0.9992
  199DOPC  C31124738   5.005   1.694   3.861  0.6555 -0.6157 -0.3505
  199DOPC  H11X24739   5.067   1.730   3.946 -1.7270 -2.0796  2.1815
  199DOPC  H11Y24740   4.972   1.593   3.894 -0.8271 -0.2978 -0.7781
  199DOPC  C31224741   4.876   1.792   3.868  0.1060  0.1967  0.0789
  199DOPC  H12X24742   4.791   1.752   3.808 -0.8637  2.0673  0.1256
  199DOPC  H12Y24743   4.906   1.887   3.818 -0.5036 -0.2601 -1.1973
  199DOPC  C31324744   4.827   1.815   4.005  0.3655 -0.3000 -0.3289
  199DOPC  H13X24745   4.906   1.837   4.081  0.4595 -2.9257  0.4508
  199DOPC  H13Y24746   4.761   1.905   4.010 -0.7499 -1.1366  1.9354
  199DOPC  C31424747   4.743   1.700   4.057  0.5448 -0.0289 -0.3320
  199DOPC  H14X24748   4.663   1.672   3.987 -0.8954  0.6883  0.9691
  199DOPC  H14Y24749   4.803   1.608   4.073 -1.1068 -1.3192 -1.2842
  199DOPC  C31524750   4.679   1.735   4.192 -0.1136  0.5161 -0.2409
  199DOPC  H15X24751   4.607   1.652   4.212  1.7267 -1.9095 -2.8602
  199DOPC  H15Y24752   4.608   1.820   4.184 -0.8565  0.0996  1.3385
  199DOPC  C31624753   4.780   1.735   4.305  0.4582 -0.3315 -0.2068
  199DOPC  H16X24754   4.839   1.641   4.307  1.9178  0.5771  1.7296
  199DOPC  H16Y24755   4.856   1.813   4.284  1.0673 -1.1293 -1.0931
  199DOPC  C31724756   4.729   1.743   4.450 -0.3405  0.0023  0.0523
  199DOPC  H17X24757   4.820   1.744   4.514 -0.3336 -2.2069  0.1761
  199DOPC  H17Y24758   4.668   1.833   4.474 -0.7044  0.4143 -2.2054
  199DOPC  C31824759   4.658   1.615   4.494  0.1432 -0.8711  1.1119
  199DOPC  H18X24760   4.587   1.589   4.412  0.8013  0.8774 -0.0797
  199DOPC  H18Y24761   4.727   1.528   4.496  1.5214  0.1315 -0.2091
  199DOPC  H18Z24762   4.614   1.623   4.595 -1.1092 -1.3183  0.6294
  200DOPC     N24763   2.623   6.228   2.517  0.5491 -0.1026  0.1757
  200DOPC   C1224764   2.570   6.130   2.626  0.0536 -0.3864  0.0989
  200DOPC  H12A24765   2.631   6.041   2.626 -1.2317 -1.3081  1.4735
  200DOPC  H12B24766   2.475   6.091   2.592 -0.6528 -0.8448  2.4506
  200DOPC   C1324767   2.627   6.150   2.387  0.4261 -0.3722 -0.1141
  200DOPC  H13A24768   2.536   6.093   2.375  1.7563 -2.6422 -0.1305
  200DOPC  H13B24769   2.643   6.221   2.308 -1.5912  0.2372 -0.0204
  200DOPC  H13C24770   2.707   6.079   2.374  0.4636 -0.3893  0.1970
  200DOPC   C1424771   2.761   6.267   2.561  0.1886 -0.8116 -0.2199
  200DOPC  H14A24772   2.789   6.363   2.520 -2.8966  1.2224  2.0301
  200DOPC  H14B24773   2.758   6.273   2.668  2.2385 -0.7380 -0.1356
  200DOPC  H14C24774   2.836   6.190   2.543 -1.5935 -2.8704  0.6772
  200DOPC   C1524775   2.545   6.345   2.495  0.4090 -0.1237  0.4875
  200DOPC  H15A24776   2.604   6.432   2.521  1.4250  0.6794 -3.7306
  200DOPC  H15B24777   2.462   6.337   2.563  0.7295 -0.2639  0.8691
  200DOPC  H15C24778   2.512   6.362   2.394  0.7784  0.5697  0.4812
  200DOPC   C1124779   2.540   6.169   2.770 -0.7676  0.0529 -0.0157
  200DOPC  H11A24780   2.502   6.081   2.826 -0.7317 -0.2852 -0.5229
  200DOPC  H11B24781   2.641   6.188   2.812 -0.4624  2.1719 -1.5447
  200DOPC     P24782   2.297   6.276   2.764 -0.2825  0.1573 -0.1947
  200DOPC   O1324783   2.269   6.139   2.712 -0.1875  0.5569 -0.2978
  200DOPC   O1424784   2.260   6.387   2.677 -0.2506 -0.2447  0.5771
  200DOPC   O1224785   2.456   6.281   2.793  0.7625  0.1625 -0.0893
  200DOPC   O1124786   2.231   6.300   2.910  0.0829  0.4331  0.3338
  200DOPC    C124787   2.285   6.395   3.000 -0.8672 -0.4996 -0.2047
  200DOPC    HA24788   2.201   6.429   3.064 -2.5531 -0.6914 -2.2105
  200DOPC    HB24789   2.346   6.471   2.946 -0.7871 -2.5442 -3.2211
  200DOPC    C224790   2.381   6.322   3.095 -0.1141  1.0705  0.2340
  200DOPC    HS24791   2.436   6.247   3.034 -1.0979  0.9811 -0.5517
  200DOPC   O2124792   2.304   6.257   3.204 -0.1664  0.2502  0.3087
  200DOPC   C2124793   2.280   6.131   3.186 -0.1507  0.1890 -0.0005
  200DOPC   O2224794   2.342   6.050   3.121 -0.7825 -0.6998 -0.3049
  200DOPC   C2224795   2.164   6.082   3.279 -0.1608 -0.1428  0.0274
  200DOPC   H2R24796   2.072   6.130   3.240  0.7277  0.4007 -1.4898
  200DOPC   H2S24797   2.180   6.111   3.385  1.0427 -3.9934  1.0723
  200DOPC    C324798   2.471   6.422   3.164  0.4460 -0.4223 -0.4742
  200DOPC    HX24799   2.523   6.486   3.089  1.6248 -2.3696 -1.4055
  200DOPC    HY24800   2.550   6.368   3.221 -0.2238 -0.3660  0.5175
  200DOPC   O3124801   2.392   6.506   3.251 -0.2064  0.2222 -0.6608
  200DOPC   C3124802   2.467   6.558   3.348  0.6490  0.0738  0.7732
  200DOPC   O3224803   2.585   6.572   3.346 -0.5144  0.1421 -0.1386
  200DOPC   C3224804   2.372   6.618   3.448 -0.9036 -0.4369  0.4147
  200DOPC   H2X24805   2.432   6.706   3.480  0.3507 -0.9961 -0.2886
  200DOPC   H2Y24806   2.280   6.650   3.396 -0.6872  0.8420  0.7848
  200DOPC   C2324807   2.144   5.932   3.270  0.8523  1.0480  0.0472
  200DOPC   H3R24808   2.228   5.871   3.307  0.2283 -0.5928 -1.0917
  200DOPC   H3S24809   2.137   5.906   3.162 -0.6744 -0.5263  0.4627
  200DOPC   C2424810   2.010   5.864   3.311 -0.2230  0.4809  0.1947
  200DOPC   H4R24811   1.996   5.781   3.238  1.2290  0.8610 -0.5483
  200DOPC   H4S24812   1.927   5.937   3.310 -0.5236  0.2390  2.2792
  200DOPC   C2524813   2.028   5.813   3.458 -0.5243 -0.0428  0.7135
  200DOPC   H5R24814   2.053   5.898   3.526 -1.9384  1.7660 -0.8976
  200DOPC   H5S24815   2.120   5.751   3.459  0.0135  0.1917 -4.6679
  200DOPC   C2624816   1.898   5.756   3.499 -0.6509 -0.0797 -0.2351
  200DOPC   H6R24817   1.911   5.684   3.583  2.9911  0.3152 -0.2964
  200DOPC   H6S24818   1.853   5.692   3.420  0.7004 -0.7979 -0.4527
  200DOPC   C2724819   1.790   5.861   3.541  0.1626 -0.2975 -0.6095
  200DOPC   H7R24820   1.828   5.956   3.499 -1.7604  0.9196  0.2804
  200DOPC   H7S24821   1.797   5.861   3.652  1.1299 -0.2084 -0.6645
  200DOPC   C2824822   1.656   5.822   3.488  0.6056 -0.1194  0.7526
  200DOPC   H8R24823   1.650   5.872   3.388 -0.8475 -0.3897  0.6757
  200DOPC   H8S24824   1.579   5.875   3.548  0.6375 -1.2968  1.8821
  200DOPC   C2924825   1.620   5.681   3.491 -0.0654  1.1519 -0.2301
  200DOPC   H9R24826   1.622   5.643   3.594  2.0138  1.4162 -0.1411
  200DOPC  C21024827   1.575   5.596   3.396  0.4499  0.4993  0.1682
  200DOPC  H10R24828   1.548   5.495   3.430  1.9918  0.3553  1.0716
  200DOPC  C21124829   1.561   5.637   3.250 -0.5530 -0.4645 -0.5320
  200DOPC  H11R24830   1.595   5.551   3.189  0.1796  0.4977 -1.5130
  200DOPC  H11S24831   1.634   5.713   3.213  2.8864 -2.5515  1.4275
  200DOPC  C21224832   1.412   5.664   3.205  0.1257  0.0301  0.2959
  200DOPC  H12R24833   1.360   5.566   3.202  2.2452 -1.2335  1.7564
  200DOPC  H12S24834   1.426   5.708   3.104 -1.6176  2.4930  1.0360
  200DOPC  C21324835   1.346   5.771   3.290  0.8749  0.3505 -0.6532
  200DOPC  H13R24836   1.418   5.855   3.282  1.0990  0.1188 -1.0775
  200DOPC  H13S24837   1.339   5.735   3.395 -0.9191 -1.5348 -1.3575
  200DOPC  C21424838   1.196   5.798   3.254  0.5827 -0.3810 -0.2183
  200DOPC  H14R24839   1.155   5.868   3.331 -1.2630  0.3314 -1.7617
  200DOPC  H14S24840   1.131   5.711   3.278 -0.4474  0.4721  0.2192
  200DOPC  C21524841   1.166   5.836   3.112 -0.4077  0.0265  0.1382
  200DOPC  H15R24842   1.178   5.752   3.040  0.7059 -0.4985  0.9121
  200DOPC  H15S24843   1.242   5.913   3.088 -1.4284  0.6173 -1.2958
  200DOPC  C21624844   1.030   5.906   3.099  0.0525 -0.1000  0.1433
  200DOPC  H16R24845   0.952   5.857   3.161 -1.3716  0.3894 -1.2177
  200DOPC  H16S24846   1.001   5.895   2.992  0.8323 -2.3283  0.1058
  200DOPC  C21724847   1.044   6.050   3.135 -0.3823 -0.1417  1.1974
  200DOPC  H17R24848   1.092   6.108   3.054 -1.2938 -2.5742 -1.2256
  200DOPC  H17S24849   1.102   6.084   3.223  0.8827  2.3143 -0.4704
  200DOPC  C21824850   0.906   6.110   3.165 -0.3529  0.5923 -0.3401
  200DOPC  H18R24851   0.870   6.074   3.263  2.9025 -0.5076  0.5843
  200DOPC  H18S24852   0.832   6.087   3.085  0.9758 -0.9786 -1.1578
  200DOPC  H18T24853   0.901   6.220   3.179  0.0640  0.7783 -1.5299
  200DOPC   C3324854   2.345   6.536   3.570  0.4112  0.7417 -0.3392
  200DOPC   H3X24855   2.285   6.444   3.547 -1.3878  1.1666  2.2318
  200DOPC   H3Y24856   2.286   6.597   3.641  0.4510  1.6200 -1.0453
  200DOPC   C3424857   2.469   6.482   3.642  0.0665 -0.7235  0.3684
  200DOPC   H4X24858   2.537   6.569   3.656 -1.2839  0.2701  0.9903
  200DOPC   H4Y24859   2.523   6.408   3.579  0.8838  0.4293 -0.3314
  200DOPC   C3524860   2.435   6.401   3.768 -0.1187  0.0616 -0.2353
  200DOPC   H5X24861   2.369   6.326   3.719  0.5537  0.8218 -2.4318
  200DOPC   H5Y24862   2.376   6.446   3.850 -0.0827  2.8844 -1.6330
  200DOPC   C3624863   2.552   6.324   3.824 -0.6091 -0.5312  0.0467
  200DOPC   H6X24864   2.594   6.252   3.750  1.8044  0.9406 -0.1209
  200DOPC   H6Y24865   2.635   6.396   3.842 -0.0410 -0.5345 -2.1732
  200DOPC   C3724866   2.517   6.253   3.965  0.1395  0.6978 -0.2088
  200DOPC   H7X24867   2.482   6.332   4.035 -2.3608 -1.9952  1.8472
  200DOPC   H7Y24868   2.426   6.191   3.947  1.0961 -0.7871 -0.1332
  200DOPC   C3824869   2.628   6.174   4.032 -0.1354 -0.1084  0.2098
  200DOPC   H8X24870   2.673   6.101   3.963  2.2337 -0.9512  2.4731
  200DOPC   H8Y24871   2.599   6.113   4.120  1.0363 -0.0322  0.6638
  200DOPC   C3924872   2.734   6.269   4.085  0.5457 -0.8477  0.5263
  200DOPC   H9X24873   2.792   6.320   4.007  0.0341  0.2956  0.8788
  200DOPC  C31024874   2.778   6.290   4.211 -0.7004 -0.5801  0.0572
  200DOPC  H10X24875   2.860   6.360   4.230 -1.1490  0.1764 -0.7156
  200DOPC  C31124876   2.726   6.222   4.336 -0.3970 -0.3774  0.4782
  200DOPC  H11X24877   2.788   6.133   4.362 -0.1348 -1.0008 -2.0577
  200DOPC  H11Y24878   2.625   6.181   4.316 -0.2295 -0.0123 -1.2668
  200DOPC  C31224879   2.719   6.317   4.464  0.4825  0.3024  0.1189
  200DOPC  H12X24880   2.655   6.270   4.543 -2.1238  0.1218 -1.9557
  200DOPC  H12Y24881   2.651   6.395   4.423 -1.3662 -1.5190 -0.5199
  200DOPC  C31324882   2.846   6.380   4.518 -0.4057 -0.0041 -0.4181
  200DOPC  H13X24883   2.913   6.299   4.554 -1.3212 -0.7595 -0.3873
  200DOPC  H13Y24884   2.892   6.444   4.439  1.0507 -0.2979  0.1677
  200DOPC  C31424885   2.816   6.475   4.639 -0.1691 -0.7717  0.6124
  200DOPC  H14X24886   2.737   6.538   4.595  1.2311 -0.8084 -2.2256
  200DOPC  H14Y24887   2.776   6.419   4.726 -2.8313  0.3135  0.1546
  200DOPC  C31524888   2.933   6.570   4.685  0.0870  0.2859  0.3384
  200DOPC  H15X24889   2.901   6.645   4.760  0.4947  0.9637 -0.1522
  200DOPC  H15Y24890   2.968   6.632   4.599  0.3600 -1.7875 -1.1301
  200DOPC  C31624891   3.060   6.495   4.726 -0.4828  0.2525  0.5519
  200DOPC  H16X24892   3.093   6.420   4.651  1.5196  0.3200  1.3105
  200DOPC  H16Y24893   3.151   6.559   4.730  1.8620 -2.8974  2.1375
  200DOPC  C31724894   3.053   6.413   4.860 -0.1331 -0.2366 -0.1367
  200DOPC  H17X24895   3.033   6.498   4.929 -3.2829  1.0108 -2.3912
  200DOPC  H17Y24896   2.958   6.356   4.864  0.8106 -1.8653  0.1371
  200DOPC  C31824897   3.167   6.322   4.909  0.2290 -0.4140 -0.3449
  200DOPC  H18X24898   3.155   6.307   5.018 -1.4765 -0.2450 -0.4717
  200DOPC  H18Y24899   3.160   6.223   4.860 -2.6976  0.2467 -1.4930
  200DOPC  H18Z24900   3.265   6.370   4.892  0.9434 -1.9804 -0.8337
  201SOD    SOD24901   4.654   7.098   6.915  0.0343 -0.4775  0.3895
  202SOD    SOD24902   3.819   4.539   1.505  0.1889 -0.0488 -0.1435
  203SOD    SOD24903   6.268   1.767   8.815 -0.2437 -0.2279  0.3504
  204SOD    SOD24904   4.008   2.030   1.829 -0.1291 -0.2128 -0.2318
  205SOD    SOD24905   3.819   2.979   8.948  0.1625 -0.6313  0.0755
  206SOD    SOD24906   5.785   6.195   1.150  0.7207  0.3109  0.2090
  207SOD    SOD24907   4.154   6.311   2.211 -0.6918  0.5438  0.4546
  208SOD    SOD24908   1.645   2.451   8.826  0.0868 -0.0031  0.3326
  209SOD    SOD24909   1.531   0.255   1.073  0.3945  0.0434 -0.3103
  210SOD    SOD24910   2.027   1.288   6.951 -0.0423 -0.3088 -0.0260
  211SOD    SOD24911   6.595   4.740   7.611  0.3318 -0.0196 -0.1699
  212SOD    SOD24912   3.348   1.569   6.569  0.3804 -0.3983  0.1703
  213SOD    SOD24913   2.276   5.749   2.877 -0.2857  0.0005  0.6332
  214SOD    SOD24914   6.851   7.487   8.882 -0.1459 -0.1526 -0.2659
  215SOD    SOD24915   5.962   7.286   8.265 -0.4791  0.0383 -0.1127
  216SOD    SOD24916   3.653   0.228   6.570 -0.0062 -0.2811 -0.3484
  217SOD    SOD24917   1.920   5.864   2.500 -0.1510  0.5049  0.0050
  218SOD    SOD24918   1.743   4.870   7.669 -0.0721  0.5709  0.4394
  219SOD    SOD24919   7.306   2.694   7.735  0.0325 -0.0029 -0.3253
  220SOD    SOD24920   1.458   2.787   2.347 -0.4597 -0.2830  0.3753
  221SOD    SOD24921   7.258   5.835   2.453  0.5449 -0.6556 -0.0284
  222SOD    SOD24922   7.480   5.453   7.297  0.0116  0.2772 -0.0025
  223SOD    SOD24923   6.521   5.830   3.049 -0.6618 -0.1734  0.0710
  224SOD    SOD24924   4.206   7.418   1.652  0.3853  0.1474  0.2922
  225SOD    SOD24925   6.228   0.847   1.596  0.3667  0.0126  0.1678
  226SOD    SOD24926   0.281   1.578   8.385  0.2524  0.1304 -0.1357
  227CLA    CLA24927   5.805   5.678   1.328  0.0568 -0.0001 -0.3736
  228CLA    CLA24928   1.857   5.640   2.632  0.2161 -0.5134 -0.2019
  229CLA    CLA24929   4.997   4.441   1.903 -0.1837 -0.2382  0.0426
  230CLA    CLA24930   2.872   3.452   7.667  0.2350 -0.2315  0.2293
  231CLA    CLA24931   0.457   2.154   9.021  0.0393  0.3516  0.3133
  232CLA    CLA24932   3.007   3.976   9.117  0.0308  0.6370  0.1414
  233CLA    CLA24933   1.503   0.617   8.379 -0.0231  0.0487 -0.1859
  234CLA    CLA24934   0.254   2.001   7.333 -0.2527 -0.3918  0.0442
  235CLA    CLA24935   3.869   7.401   2.638 -0.0509 -0.1714  0.0935
  236CLA    CLA24936   6.124   1.546   8.779 -0.1625  0.0882 -0.0561
  237CLA    CLA24937   1.358   6.909   9.013  0.3866 -0.5205 -0.0135
  238CLA    CLA24938   5.735   4.752   2.087  0.1553  0.1859 -0.0359
  239CLA    CLA24939   2.624   0.209   1.032 -0.3319 -0.0909 -0.3682
  240CLA    CLA24940   4.911   3.539   9.298  0.1700 -0.2490  0.1078
  241CLA    CLA24941   3.885   6.338   1.078  0.2328 -0.2500 -0.3119
  242CLA    CLA24942   5.891   6.751   8.613  0.0539 -0.0738  0.3567
  243CLA    CLA24943   0.166   4.764   2.667  0.0334 -0.1391 -0.2350
  244CLA    CLA24944   6.085   3.435   0.780 -0.1237 -0.0228  0.0870
  245CLA    CLA24945   7.388   0.550   1.350  0.0863 -0.1758  0.3585
  246CLA    CLA24946   4.832   0.012   7.857 -0.4743 -0.2028  0.3772
  247CLA    CLA24947   6.513   2.611   1.270  0.1549 -0.3811  0.6157
  248CLA    CLA24948   2.561   4.464   1.941 -0.5629  0.2993 -0.2572
  249CLA    CLA24949   0.144   0.040   1.856  0.0354  0.0044  0.1294
  250CLA    CLA24950   5.070   5.216   8.653 -0.1150 -0.2611 -0.0680
  251CLA    CLA24951   1.876   7.280   7.826 -0.3391  0.2262  0.0457
  252CLA    CLA24952   4.543   1.623   1.982 -0.2246 -0.1140  0.1077
  253TIP3   OH224953   2.738   3.972   8.290  0.1752 -0.1510 -0.0976
  253TIP3    H124954   2.680   3.901   8.316  0.7318 -0.7923 -0.5448
  253TIP3    H224955   2.826   3.937   8.304  0.4561  0.5294 -0.1313
  254TIP3   OH224956   5.933   0.936   8.972  0.0600  0.8016  0.0768
  254TIP3    H124957   5.967   1.015   8.930  1.8381 -0.9256 -2.0006
  254TIP3    H224958   5.857   0.911   8.920 -1.8384  2.1697  2.0029
  255TIP3   OH224959   4.433   6.550   9.952 -0.3360 -0.1966  0.0706
  255TIP3    H124960   4.477   6.543  10.036  2.3690  1.0305 -1.1431
  255TIP3    H224961   4.502   6.569   9.889 -2.4375  0.4146 -2.2416
  256TIP3   OH224962   6.036   7.012   9.333  0.7164 -0.0864 -0.4412
  256TIP3    H124963   6.034   6.917   9.322  0.4352 -0.0378 -0.8137
  256TIP3    H224964   6.060   7.047   9.247 -2.5443  0.3371 -1.3272
  257TIP3   OH224965   6.326   6.289   9.324  0.5991 -0.5485  0.2257
  257TIP3    H124966   6.260   6.349   9.359  1.4604 -0.0507  1.0496
  257TIP3    H224967   6.279   6.238   9.258 -0.6064 -0.2186  0.7938
  258TIP3   OH224968   3.804   5.118   7.938 -0.3058  0.5363  1.0668
  258TIP3    H124969   3.748   5.168   7.998 -1.2901  1.1948 -0.3663
  258TIP3    H224970   3.878   5.176   7.920 -1.4367  1.5490 -0.5803
  259TIP3   OH224971   1.512   3.461   9.490  0.1382 -0.7498  0.1808
  259TIP3    H124972   1.591   3.470   9.438 -0.4965 -2.8845 -1.2810
  259TIP3    H224973   1.460   3.396   9.443 -4.0701  2.8781 -0.8674
  260TIP3   OH224974   6.903   6.843   7.652 -0.3480  0.2446 -0.2037
  260TIP3    H124975   6.883   6.783   7.581  0.2882 -2.1339  1.4935
  260TIP3    H224976   6.982   6.888   7.625  0.0090 -0.7851 -0.9226
  261TIP3   OH224977   4.278   3.983   8.582  0.3708 -0.4705 -0.5984
  261TIP3    H124978   4.217   3.994   8.655  1.4109 -0.6756  0.3322
  261TIP3    H224979   4.246   4.044   8.515 -1.5634 -1.4589 -0.6398
  262TIP3   OH224980   5.168   0.307   8.917  0.2041 -0.6318  0.0436
  262TIP3    H124981   5.218   0.247   8.862  1.6767  0.7976 -0.2676
  262TIP3    H224982   5.157   0.260   9.000  2.1123 -1.0298  0.1184
  263TIP3   OH224983   0.253   0.349   9.016 -0.0221  0.1654  0.2744
  263TIP3    H124984   0.265   0.409   9.089 -0.5281 -1.8004  2.0444
  263TIP3    H224985   0.337   0.303   9.009 -0.2774 -0.3090  0.2581
  264TIP3   OH224986   6.809   0.075   9.051  0.0075  0.3519 -0.4838
  264TIP3    H124987   6.785   0.027   9.130  0.5200  0.1601 -0.4375
  264TIP3    H224988   6.839   0.160   9.083  0.2463  0.2624 -0.4638
  265TIP3   OH224989   6.006   7.211   8.057  0.0171  0.0311 -0.2694
  265TIP3    H124990   6.100   7.217   8.045 -0.2298  2.0486 -1.6915
  265TIP3    H224991   5.980   7.133   8.007  0.8410 -0.2289 -0.3072
  266TIP3   OH224992   3.462   2.766   7.676 -0.0871 -0.1747 -0.2111
  266TIP3    H124993   3.520   2.748   7.602  1.3876 -1.7332  1.2502
  266TIP3    H224994   3.386   2.810   7.636  1.3063  0.4156 -2.4148
  267TIP3   OH224995   2.056   5.910   7.853 -0.1079 -0.2338  0.2055
  267TIP3    H124996   2.035   5.953   7.936 -3.1859 -0.4814 -0.3390
  267TIP3    H224997   2.040   5.978   7.787 -2.9616 -1.4707 -0.5048
  268TIP3   OH224998   3.779   2.170   7.099  0.6655 -0.1870 -0.7959
  268TIP3    H124999   3.786   2.238   7.032  0.6230 -1.4382 -2.1246
  268TIP3    H225000   3.869   2.148   7.120  0.6841 -0.3961 -1.0888
  269TIP3   OH225001   4.061   2.348   7.388  0.5071 -0.0941  1.0710
  269TIP3    H125002   4.156   2.363   7.393  0.3383  1.6065  0.0591
  269TIP3    H225003   4.052   2.266   7.341  1.4921  0.5507 -0.3162
  270TIP3   OH225004   4.689   1.233   9.076  0.3212  0.0535  0.3938
  270TIP3    H125005   4.756   1.301   9.072  0.6124 -0.2751 -1.1989
  270TIP3    H225006   4.609   1.280   9.101  0.8662  0.6778  0.9976
  271TIP3   OH225007   1.777   4.330   9.307 -0.2460 -0.2545  0.4217
  271TIP3    H125008   1.754   4.356   9.218  0.3883 -0.2651  0.2494
  271TIP3    H225009   1.693   4.312   9.349 -0.5454 -0.3809 -0.2142
  272TIP3   OH225010   2.946   4.584   7.632 -0.4073 -0.2262 -0.1638
  272TIP3    H125011   2.966   4.527   7.558 -1.3065 -1.8898  0.7877
  272TIP3    H225012   3.018   4.571   7.693 -0.7150 -0.5324  0.1436
  273TIP3   OH225013   2.093   5.018   9.072  0.2444 -0.2773 -0.1258
  273TIP3    H125014   2.186   4.999   9.057  0.4175  0.5150 -0.1275
  273TIP3    H225015   2.081   5.105   9.035 -0.6904 -0.6963 -0.8246
  274TIP3   OH225016   7.557   4.522   7.230  0.3392 -0.1147 -0.0698
  274TIP3    H125017   7.530   4.528   7.138 -0.3587  0.2231  0.1504
  274TIP3    H225018   7.651   4.538   7.228  0.4188 -0.5944 -0.7800
  275TIP3   OH225019   1.953   4.105   9.306 -0.0201 -0.4652 -0.0156
  275TIP3    H125020   2.017   4.099   9.235  0.5980  0.3842  0.4426
  275TIP3    H225021   1.890   4.170   9.276 -0.7797 -1.4193 -0.5347
  276TIP3   OH225022   7.360   0.336   8.149  0.3228  0.1079  0.1026
  276TIP3    H125023   7.334   0.314   8.060  0.0888 -0.1112  0.2226
  276TIP3    H225024   7.336   0.428   8.160 -1.2319 -0.3061  0.4993
  277TIP3   OH225025   3.850   0.679   8.481  0.2144  0.0805  0.2075
  277TIP3    H125026   3.768   0.659   8.437  0.1883 -1.8645  1.0354
  277TIP3    H225027   3.824   0.705   8.569  0.4563 -1.0406  0.6365
  278TIP3   OH225028   2.714   1.189   7.178 -0.2388 -0.8139 -0.3183
  278TIP3    H125029   2.707   1.253   7.107  0.9909 -1.0288 -0.6589
  278TIP3    H225030   2.630   1.145   7.179 -1.5607  1.5576  0.6718
  279TIP3   OH225031   6.019   6.706   6.690 -0.1935  0.2602  0.4250
  279TIP3    H125032   6.056   6.623   6.659 -1.4514 -0.0108 -0.3881
  279TIP3    H225033   6.036   6.768   6.619 -0.0167  0.5049  0.6756
  280TIP3   OH225034   2.686   4.016   9.144 -0.0199  0.2300  0.4827
  280TIP3    H125035   2.774   3.994   9.113  0.7200  2.2845  1.0037
  280TIP3    H225036   2.688   3.999   9.238  0.2982  1.5487  0.7420
  281TIP3   OH225037   7.440   1.213   8.086  0.0144 -0.1076  0.2083
  281TIP3    H125038   7.527   1.249   8.106  1.6104 -1.8515 -2.8646
  281TIP3    H225039   7.439   1.128   8.131 -0.0805 -0.0932  0.2319
  282TIP3   OH225040   7.219   3.752   7.728 -0.0053 -0.6231  0.2718
  282TIP3    H125041   7.300   3.704   7.710 -0.6297 -0.8778 -2.1566
  282TIP3    H225042   7.246   3.824   7.785  1.7920 -1.1231  0.1111
  283TIP3   OH225043   0.701   3.515   7.439 -0.4591 -0.1396  0.6563
  283TIP3    H125044   0.694   3.595   7.491  0.5550 -0.4196  1.2438
  283TIP3    H225045   0.612   3.481   7.435 -1.2765  1.9605 -1.1593
  284TIP3   OH225046   0.824   4.454   2.062  0.4349  0.3194 -0.7413
  284TIP3    H125047   0.919   4.454   2.066  0.6145  0.6934 -3.2130
  284TIP3    H225048   0.800   4.546   2.073  0.0321 -0.0826  3.0551
  285TIP3   OH225049   1.862   6.609   0.873 -0.0925 -0.1526 -0.1314
  285TIP3    H125050   1.799   6.607   0.945 -0.0357 -1.0739 -0.0903
  285TIP3    H225051   1.811   6.585   0.796  0.3360 -1.7284  0.0309
  286TIP3   OH225052   4.559   4.463   2.549 -0.1069 -0.1467  0.1674
  286TIP3    H125053   4.586   4.495   2.463 -2.3375 -0.5103 -0.7447
  286TIP3    H225054   4.558   4.367   2.539 -0.2393 -0.1931  0.6503
  287TIP3   OH225055   1.502   1.982   0.832 -0.7163  0.3307 -0.3220
  287TIP3    H125056   1.443   1.924   0.785 -1.3970  0.3303  0.5088
  287TIP3    H225057   1.523   1.935   0.912  0.0126  0.5529 -0.3760
  288TIP3   OH225058   3.272   5.190   2.169 -0.0333  0.3626  0.2438
  288TIP3    H125059   3.226   5.274   2.161 -0.4445  0.2544  1.2794
  288TIP3    H225060   3.307   5.174   2.082 -1.9700  0.4459 -0.6092
  289TIP3   OH225061   0.543   1.742   2.813 -0.4217 -0.5326  0.1507
  289TIP3    H125062   0.489   1.666   2.837 -0.5720 -0.3304  0.4540
  289TIP3    H225063   0.479   1.811   2.796 -0.4635 -1.0754 -2.4477
  290TIP3   OH225064   6.687   0.768   1.524 -0.0773 -0.3154  0.5275
  290TIP3    H125065   6.675   0.732   1.612 -0.9343  1.9371  1.4353
  290TIP3    H225066   6.778   0.750   1.502  0.1468 -0.9639  1.8840
  291TIP3   OH225067   2.781   5.843   2.441  0.0925 -0.5553 -0.6649
  291TIP3    H125068   2.723   5.843   2.365 -1.6719 -2.2244  0.5927
  291TIP3    H225069   2.786   5.751   2.468  3.5996 -0.5643 -0.8132
  292TIP3   OH225070   7.563   5.988   2.808  0.0255  0.6125 -0.3136
  292TIP3    H125071   7.583   5.947   2.724  0.4478  1.1930 -0.5070
  292TIP3    H225072   7.648   5.989   2.854 -0.5816 -1.7203  1.0573
  293TIP3   OH225073   3.671   3.926   2.743  0.3241  0.1966 -0.2801
  293TIP3    H125074   3.599   3.956   2.799  0.4182 -1.5015  0.8453
  293TIP3    H225075   3.732   3.885   2.805  1.4570  0.1361 -1.4154
  294TIP3   OH225076   1.674   3.941   1.020 -0.0975  0.0585  0.3777
  294TIP3    H125077   1.580   3.949   1.035 -0.2953  2.3107 -1.4883
  294TIP3    H225078   1.714   3.998   1.086  0.1133 -1.8354  1.9689
  295TIP3   OH225079   6.021   5.634   2.103 -0.1261  0.1395 -0.0723
  295TIP3    H125080   6.111   5.600   2.102 -0.0369  0.1802  2.1412
  295TIP3    H225081   5.966   5.558   2.082  0.4097  0.3062 -2.3523
  296TIP3   OH225082   1.424   0.614   1.007  0.0329 -0.3919 -0.4092
  296TIP3    H125083   1.335   0.607   1.041  0.5282 -1.7160  0.7265
  296TIP3    H225084   1.413   0.648   0.918 -1.5121  0.4582  0.0613
  297TIP3   OH225085   6.705   6.101   2.411 -0.3453  0.1580  0.4956
  297TIP3    H125086   6.687   6.177   2.355  0.0127 -0.4714 -0.5130
  297TIP3    H225087   6.638   6.104   2.479  0.1539  1.8296  0.9639
  298TIP3   OH225088   1.427   3.596   0.581 -0.9102  0.0967  0.0994
  298TIP3    H125089   1.418   3.670   0.521 -0.0898  1.4320  1.5593
  298TIP3    H225090   1.375   3.620   0.657 -0.9923 -1.0451  0.4203
  299TIP3   OH225091   2.900   5.990   0.709 -0.2003 -0.1061  0.0936
  299TIP3    H125092   2.937   5.901   0.704  1.0778  0.3801  0.3608
  299TIP3    H225093   2.977   6.047   0.711 -0.9568  0.9336  1.4115
  300TIP3   OH225094   2.821   4.809   1.526  0.4309 -0.1169 -0.3091
  300TIP3    H125095   2.815   4.722   1.486 -0.7360 -0.1793 -0.0176
  300TIP3    H225096   2.868   4.795   1.608  0.8691 -0.3494 -0.5945
  301TIP3   OH225097   0.668   6.616   2.705  0.4319  0.0060  0.3680
  301TIP3    H125098   0.631   6.609   2.617  0.0767 -1.3414  0.5986
  301TIP3    H225099   0.635   6.699   2.739 -0.1842  0.0922 -0.4165
  302TIP3   OH225100   6.280   5.538   1.075 -0.6426 -0.0091 -0.0261
  302TIP3    H125101   6.316   5.454   1.102 -1.5643 -0.0717  1.1044
  302TIP3    H225102   6.247   5.577   1.157 -1.2160  0.9581 -0.6991
  303TIP3   OH225103   5.202   2.485   2.137  0.2084 -0.0027  0.5067
  303TIP3    H125104   5.179   2.578   2.133  1.6994  0.3500 -0.3130
  303TIP3    H225105   5.231   2.463   2.049  0.7075 -1.0238  0.9065
  304TIP3   OH225106   1.836   2.349   1.568 -0.1575 -0.0535  0.3936
  304TIP3    H125107   1.800   2.328   1.654 -0.5485  0.9072  0.4763
  304TIP3    H225108   1.875   2.436   1.579 -0.2790  0.1084 -0.4140
  305TIP3   OH225109   4.169   7.406   1.883  0.5830 -1.0861 -0.1053
  305TIP3    H125110   4.106   7.340   1.910 -1.9031  0.7016 -1.0826
  305TIP3    H225111   4.190   7.454   1.963 -0.2960 -0.9276  0.0357
  306TIP3   OH225112   2.928   5.287   1.974 -0.2151 -0.5673  0.1309
  306TIP3    H125113   2.863   5.340   1.929  0.6053 -0.9140 -1.5413
  306TIP3    H225114   2.928   5.320   2.064 -1.8403  0.2179 -0.1281
  307TIP3   OH225115   2.221   7.124   1.919  0.1908 -0.2185  0.1819
  307TIP3    H125116   2.307   7.117   1.960  0.9077 -1.6075 -1.4288
  307TIP3    H225117   2.210   7.217   1.900  2.8801 -0.2922 -2.5287
  308TIP3   OH225118   2.486   0.109   0.760 -0.4020 -0.2885  0.0828
  308TIP3    H125119   2.529   0.155   0.832 -1.3613  1.8311 -0.6219
  308TIP3    H225120   2.403   0.079   0.796 -0.9805  0.9662 -0.1578
  309TIP3   OH225121   0.145   7.234   2.220 -0.2329 -0.0130  0.1843
  309TIP3    H125122   0.142   7.257   2.314 -1.1159 -1.4062  0.5269
  309TIP3    H225123   0.147   7.319   2.176  1.2245  0.6837  1.4654
  310TIP3   OH225124   5.281   2.476   1.868  0.3176 -0.2757 -0.1891
  310TIP3    H125125   5.330   2.415   1.813 -0.5564  0.1105 -1.4523
  310TIP3    H225126   5.209   2.506   1.812 -0.2239  0.6522  0.9559
  311TIP3   OH225127   4.892   3.564   1.182 -0.1327 -0.2785  0.2706
  311TIP3    H125128   4.943   3.632   1.226  2.1392 -1.9921  0.4080
  311TIP3    H225129   4.939   3.546   1.101 -1.9237 -0.2094 -0.8532
  312TIP3   OH225130   1.242   5.555   1.473 -0.2407  0.0048  0.0467
  312TIP3    H125131   1.247   5.650   1.466 -2.0807  0.0960 -0.3964
  312TIP3    H225132   1.324   5.524   1.434  0.6943  1.3912  0.7912
  313TIP3   OH225133   2.869   3.242   2.053  0.2822  0.1909 -0.3392
  313TIP3    H125134   2.865   3.257   1.959 -1.0109 -0.6673 -0.4453
  313TIP3    H225135   2.922   3.314   2.087  0.7712  0.4992 -1.7154
  314TIP3   OH225136   1.897   5.736   1.569  0.3191 -0.1804 -0.0569
  314TIP3    H125137   1.911   5.821   1.610  0.1424 -0.4850  0.6510
  314TIP3    H225138   1.802   5.727   1.564  0.2314 -1.4341  2.2920
  315TIP3   OH225139   5.565   5.397   1.808  0.2716  0.4792 -0.3572
  315TIP3    H125140   5.615   5.472   1.776  1.2785  1.4214  2.9681
  315TIP3    H225141   5.622   5.322   1.791  1.0982  1.0303 -0.0967
  316TIP3   OH225142   2.806   2.197   2.726  0.3897  0.2732 -0.0771
  316TIP3    H125143   2.887   2.206   2.675  0.7279 -0.7596  0.2570
  316TIP3    H225144   2.835   2.181   2.815 -0.2059  2.3863  0.5548
  317TIP3   OH225145   2.283   3.412   0.916  0.1265  0.4807 -0.4776
  317TIP3    H125146   2.304   3.505   0.914  1.4914  0.1795 -1.2337
  317TIP3    H225147   2.265   3.390   0.824 -1.2419  0.2051 -0.1692
  318TIP3   OH225148   1.773   4.002   0.344  0.4618  0.0295 -0.3842
  318TIP3    H125149   1.842   3.942   0.374 -0.6651 -0.2720  1.8077
  318TIP3    H225150   1.693   3.968   0.384 -0.6098  1.6209 -1.0862
  319TIP3   OH225151   2.362   3.670   0.854  0.1237  0.5336  0.4292
  319TIP3    H125152   2.405   3.730   0.915  0.7397 -1.5177  2.0947
  319TIP3    H225153   2.405   3.687   0.770  2.8306 -0.0176  1.6111
  320TIP3   OH225154   5.456   5.080   1.349  0.2469  0.4979  0.0973
  320TIP3    H125155   5.516   5.108   1.280 -0.0074  0.8980  0.0372
  320TIP3    H225156   5.445   4.986   1.335  0.1868  0.5814 -0.4145
  321TIP3   OH225157   7.439   3.263   0.642 -0.3063  0.4918 -0.3474
  321TIP3    H125158   7.400   3.322   0.706 -0.0594  0.6632 -0.3517
  321TIP3    H225159   7.437   3.177   0.685  1.3125  0.8583  0.5720
  322TIP3   OH225160   6.978   2.489   2.647  0.1041  0.2668  0.4008
  322TIP3    H125161   6.956   2.432   2.573 -0.0821 -1.2063  1.5604
  322TIP3    H225162   7.023   2.432   2.709 -2.0604  0.8005  2.5927
  323TIP3   OH225163   6.918   4.638   7.890  0.1094  0.1094  0.2062
  323TIP3    H125164   6.946   4.550   7.912  0.4062  0.5836  1.9245
  323TIP3    H225165   6.993   4.678   7.847 -0.5475 -0.9146 -2.0381
  324TIP3   OH225166   2.513   6.136   9.506 -0.7323 -0.2853 -0.1141
  324TIP3    H125167   2.543   6.047   9.519 -1.4501 -0.4760  0.3385
  324TIP3    H225168   2.438   6.128   9.447 -1.8727 -0.1964  1.2679
  325TIP3   OH225169   2.652   0.170   9.406  0.1022 -0.3943 -0.2659
  325TIP3    H125170   2.677   0.079   9.386  0.9411 -0.1180 -0.5210
  325TIP3    H225171   2.590   0.162   9.478  1.0505 -1.1089  0.5061
  326TIP3   OH225172   6.288   0.065   7.809 -0.1404  0.1198  0.3062
  326TIP3    H125173   6.343   0.134   7.847 -0.7720  0.6726  0.2377
  326TIP3    H225174   6.199   0.099   7.816 -0.6092 -1.2366  1.4551
  327TIP3   OH225175   1.013   0.077   7.338  0.2748 -0.1448 -0.0170
  327TIP3    H125176   1.059   0.143   7.389  1.2713 -0.9562  0.1722
  327TIP3    H225177   0.982   0.123   7.261 -0.9904  1.0392  1.1324
  328TIP3   OH225178   6.856   6.497   8.770  0.7225  0.7026 -0.4230
  328TIP3    H125179   6.892   6.575   8.728  1.9171  0.6961  0.5320
  328TIP3    H225180   6.788   6.467   8.710  0.3419  2.3762 -0.8973
  329TIP3   OH225181   2.216   6.206   8.546  0.6349 -0.0138 -0.2914
  329TIP3    H125182   2.169   6.249   8.618 -0.5980 -1.5238 -0.1191
  329TIP3    H225183   2.308   6.224   8.563  0.3427  0.0958  1.4093
  330TIP3   OH225184   6.185   4.303   9.244  0.0722  0.4506 -0.3691
  330TIP3    H125185   6.172   4.228   9.302  0.5087  0.5822 -0.0938
  330TIP3    H225186   6.242   4.270   9.175 -0.6413  0.2267 -0.8709
  331TIP3   OH225187   6.601   4.247   7.508 -0.3971 -0.6136 -0.2492
  331TIP3    H125188   6.696   4.256   7.516 -0.6001  0.8116  0.7691
  331TIP3    H225189   6.574   4.318   7.451 -0.6698 -2.1997 -2.2104
  332TIP3   OH225190   6.182   3.018   8.754 -0.1115 -0.2857 -0.2098
  332TIP3    H125191   6.147   3.103   8.727 -0.9997 -0.9982 -1.3816
  332TIP3    H225192   6.277   3.029   8.752 -0.2011  1.0793  1.0324
  333TIP3   OH225193   1.970   7.365   7.231 -0.0760  0.5821  0.0151
  333TIP3    H125194   1.983   7.459   7.227 -0.5770  0.6622  0.2987
  333TIP3    H225195   2.052   7.332   7.269  0.1246  0.8938 -0.1430
  334TIP3   OH225196   3.137   1.172   7.173  0.1781 -0.7151  0.5332
  334TIP3    H125197   3.128   1.268   7.173 -0.7218 -0.7842  1.4849
  334TIP3    H225198   3.048   1.140   7.164  0.4561 -1.4736  0.4614
  335TIP3   OH225199   0.101   1.365   8.602 -0.5540 -0.5188 -0.1383
  335TIP3    H125200   0.039   1.393   8.534  0.4219  0.1446 -0.7704
  335TIP3    H225201   0.073   1.414   8.680 -0.8714 -0.2777 -0.3987
  336TIP3   OH225202   2.843   6.062   8.777 -0.3726 -0.3538  0.0050
  336TIP3    H125203   2.898   6.088   8.703 -0.0707  1.0755  0.6948
  336TIP3    H225204   2.763   6.030   8.737  0.1128 -0.3916 -0.9615
  337TIP3   OH225205   4.623   4.620   8.950 -0.1201  0.0015  0.7468
  337TIP3    H125206   4.643   4.567   9.027 -0.6638 -1.2961  0.0219
  337TIP3    H225207   4.609   4.708   8.984  3.5522  0.3855  1.7076
  338TIP3   OH225208   6.892   6.355   8.470 -0.1386 -0.3122 -0.6206
  338TIP3    H125209   6.927   6.268   8.486 -0.3439  0.2047  3.6405
  338TIP3    H225210   6.803   6.353   8.505 -0.0455  1.6525 -0.1280
  339TIP3   OH225211   6.929   1.390   8.222 -0.3644 -0.2494 -0.3409
  339TIP3    H125212   6.921   1.378   8.317  0.4494  1.5056 -0.0202
  339TIP3    H225213   6.841   1.416   8.193 -0.6289 -0.8513 -0.0886
  340TIP3   OH225214   1.070   4.430   7.979  0.0170 -0.0579  0.5241
  340TIP3    H125215   0.978   4.406   7.982 -0.2728  0.5106 -1.8804
  340TIP3    H225216   1.116   4.347   7.968 -0.1207 -0.3980  2.2540
  341TIP3   OH225217   0.153   6.602   7.318  0.1157 -0.0914 -0.4229
  341TIP3    H125218   0.069   6.611   7.273  0.2156  1.6590 -0.3053
  341TIP3    H225219   0.186   6.691   7.327  0.4076 -0.3748  2.5579
  342TIP3   OH225220   2.334   2.140   7.526 -0.7395 -0.2061 -0.6880
  342TIP3    H125221   2.411   2.163   7.578 -2.1262  0.2258  1.3121
  342TIP3    H225222   2.290   2.071   7.578 -1.9894 -0.0254 -1.4603
  343TIP3   OH225223   2.440   6.030   8.058 -0.4001  0.2471  0.4995
  343TIP3    H125224   2.470   6.072   8.139 -0.1406  0.6982  0.1693
  343TIP3    H225225   2.345   6.041   8.060 -0.2661  1.7751 -0.0712
  344TIP3   OH225226   3.011   1.323   7.908  0.0499 -0.3249  0.0265
  344TIP3    H125227   2.956   1.398   7.930  1.3088  0.6037  0.1277
  344TIP3    H225228   2.953   1.248   7.916 -0.9066  0.4965  1.3192
  345TIP3   OH225229   5.122   2.231   7.745 -0.2541  0.5293 -0.8225
  345TIP3    H125230   5.187   2.242   7.815 -1.1087 -1.1043  0.3199
  345TIP3    H225231   5.160   2.164   7.688 -0.3518  0.5399 -0.9001
  346TIP3   OH225232   6.557   5.048   8.156 -0.4506  0.4889 -0.4282
  346TIP3    H125233   6.552   4.963   8.199  0.2330  0.1590 -0.9857
  346TIP3    H225234   6.491   5.045   8.088 -1.3500  0.9122  0.3996
  347TIP3   OH225235   2.408   7.376   7.506  0.0035 -0.1910 -0.0260
  347TIP3    H125236   2.459   7.322   7.566 -1.7061 -1.1127  0.6793
  347TIP3    H225237   2.447   7.463   7.512 -0.4506 -0.0895  2.9348
  348TIP3   OH225238   4.533   2.363   8.243 -0.3270 -0.6062  0.1915
  348TIP3    H125239   4.484   2.344   8.323 -1.7317  1.5058 -0.0626
  348TIP3    H225240   4.614   2.404   8.273 -1.3295  1.1935  0.5870
  349TIP3   OH225241   5.166   4.452   7.848 -0.2751 -0.5675 -0.2286
  349TIP3    H125242   5.224   4.512   7.895  0.1902 -0.6834 -0.6576
  349TIP3    H225243   5.190   4.365   7.881 -0.4167 -0.5906 -0.1843
  350TIP3   OH225244   0.595   1.164   8.581  0.5144  0.0035 -0.4275
  350TIP3    H125245   0.639   1.195   8.502  0.5655  0.2346 -0.3092
  350TIP3    H225246   0.591   1.241   8.638 -2.2267  0.6809 -1.3583
  351TIP3   OH225247   4.019   7.043   9.569 -0.0331  0.3459  0.5393
  351TIP3    H125248   3.951   7.033   9.503 -0.1442  1.5022  0.4508
  351TIP3    H225249   4.060   6.957   9.574 -2.1629 -0.6955  1.3648
  352TIP3   OH225250   0.043   5.248   7.310 -0.0074 -0.1579 -0.1827
  352TIP3    H125251   0.053   5.158   7.281  0.9223 -0.2853  0.5006
  352TIP3    H225252   0.128   5.289   7.293 -0.5347  0.6975 -0.8420
  353TIP3   OH225253   6.639   2.405   8.028  0.2226  0.1234  1.0908
  353TIP3    H125254   6.559   2.452   8.052  0.0761  0.1376  0.5928
  353TIP3    H225255   6.647   2.335   8.092 -1.6738 -1.5837 -0.4175
  354TIP3   OH225256   2.771   2.913   9.330 -0.2493 -0.2116  0.9066
  354TIP3    H125257   2.754   2.871   9.245  0.3954  1.6511 -0.1976
  354TIP3    H225258   2.845   2.864   9.366 -0.7104 -1.2005  0.5552
  355TIP3   OH225259   4.844   1.777   7.214  0.0074 -0.1089 -0.7706
  355TIP3    H125260   4.876   1.837   7.281 -1.7585  0.3428 -0.2784
  355TIP3    H225261   4.847   1.691   7.255 -2.3662  0.3118  0.5132
  356TIP3   OH225262   3.845   6.447   9.373 -0.4804 -0.2817 -0.2236
  356TIP3    H125263   3.926   6.481   9.410  0.4228 -2.3111 -0.2385
  356TIP3    H225264   3.832   6.363   9.416 -1.6523 -0.7791 -1.4639
  357TIP3   OH225265   5.478   2.225   9.238 -0.4147  0.5942  0.1732
  357TIP3    H125266   5.442   2.296   9.290 -0.2892  1.0286 -0.3256
  357TIP3    H225267   5.551   2.191   9.290 -0.5846  0.7163  0.4907
  358TIP3   OH225268   4.905   2.645   8.829 -0.1817 -0.0442  0.2066
  358TIP3    H125269   4.827   2.616   8.782 -0.5740 -2.8371  2.3554
  358TIP3    H225270   4.877   2.722   8.878 -0.4545  1.2862 -1.8724
  359TIP3   OH225271   7.273   5.971   7.319 -0.5353  0.1417 -0.3692
  359TIP3    H125272   7.251   5.934   7.404  0.1368 -0.3035 -0.3817
  359TIP3    H225273   7.214   5.927   7.258  1.1536 -1.9970 -0.5828
  360TIP3   OH225274   5.288   5.975   7.413 -0.0306  0.0378 -0.4148
  360TIP3    H125275   5.336   6.033   7.471 -0.8337  0.3678 -0.0550
  360TIP3    H225276   5.285   5.891   7.459 -1.5572  0.5738  0.5448
  361TIP3   OH225277   3.782   5.768   7.601 -0.9873  0.6340  0.4252
  361TIP3    H125278   3.875   5.759   7.620 -0.8413  1.5468  0.1472
  361TIP3    H225279   3.739   5.731   7.679 -0.4183 -0.4293  0.2614
  362TIP3   OH225280   4.449   3.811   8.204  0.3072  0.1515 -0.6118
  362TIP3    H125281   4.358   3.831   8.225  0.5592  0.3721  0.3525
  362TIP3    H225282   4.497   3.838   8.282  1.0727 -0.9926 -0.6710
  363TIP3   OH225283   3.235   1.428   7.762 -0.0734 -0.4665 -0.1078
  363TIP3    H125284   3.292   1.441   7.838 -1.7092  0.4626  1.0110
  363TIP3    H225285   3.155   1.389   7.798 -1.2414  0.8500 -1.1697
  364TIP3   OH225286   3.454   4.381   8.219 -0.2442  0.2806  0.3078
  364TIP3    H125287   3.412   4.457   8.259 -0.7071 -0.2092  0.7771
  364TIP3    H225288   3.546   4.389   8.244  0.0196  1.5070 -0.9566
  365TIP3   OH225289   5.839   4.424   7.475 -0.5875  0.3190  0.0180
  365TIP3    H125290   5.810   4.334   7.484 -0.2121  0.3887  2.6111
  365TIP3    H225291   5.759   4.475   7.465 -0.9916 -0.0761  1.1132
  366TIP3   OH225292   4.714   0.062   8.974 -0.3428 -0.2244  0.3878
  366TIP3    H125293   4.778   0.133   8.977 -0.3354 -0.2162  0.0779
  366TIP3    H225294   4.663   0.071   9.054 -0.8541  0.6126 -0.0222
  367TIP3   OH225295   0.848   2.898   7.755  0.1871  0.0636 -0.6132
  367TIP3    H125296   0.773   2.883   7.698 -0.2710 -1.0871  0.2616
  367TIP3    H225297   0.924   2.873   7.703 -0.3089 -2.0384 -0.3823
  368TIP3   OH225298   2.169   3.094   8.852  0.3526  0.1843 -0.3419
  368TIP3    H125299   2.164   3.106   8.757  2.8146  0.5560 -0.4820
  368TIP3    H225300   2.193   3.180   8.886  0.0659 -0.0879  0.5788
  369TIP3   OH225301   5.541   5.666   7.846 -0.1414 -0.0578 -0.4402
  369TIP3    H125302   5.610   5.700   7.903  0.2576 -1.3423 -0.1187
  369TIP3    H225303   5.581   5.591   7.802 -0.5972  0.6130 -2.0620
  370TIP3   OH225304   1.567   4.544   8.294  0.0628 -0.5672  0.1568
  370TIP3    H125305   1.477   4.564   8.267  0.3819  0.1628 -0.3803
  370TIP3    H225306   1.580   4.453   8.266  0.0060 -0.1896 -1.1784
  371TIP3   OH225307   6.644   1.561   7.966  0.2975  0.0669  0.0765
  371TIP3    H125308   6.662   1.476   7.928 -1.3107 -1.2940  2.1069
  371TIP3    H225309   6.726   1.610   7.956  1.2905 -1.7127 -1.0699
  372TIP3   OH225310   7.310   5.619   7.355  0.5679  0.1331  0.1409
  372TIP3    H125311   7.230   5.611   7.302  0.1192 -1.1019  0.9647
  372TIP3    H225312   7.292   5.690   7.415  0.4587  0.4840 -0.2998
  373TIP3   OH225313   6.073   1.690   7.134  0.1222  0.5635  0.3319
  373TIP3    H125314   6.150   1.662   7.085  0.1511  1.4650 -0.1851
  373TIP3    H225315   6.014   1.615   7.132  0.4273  0.3349 -0.4770
  374TIP3   OH225316   0.892   0.415   8.282 -0.3421  0.1813 -0.7943
  374TIP3    H125317   0.970   0.468   8.296  0.2101 -0.4931 -1.2861
  374TIP3    H225318   0.896   0.389   8.190 -0.8527 -0.3199 -0.6812
  375TIP3   OH225319   5.259   1.939   8.387  0.2549 -0.2823 -0.2777
  375TIP3    H125320   5.268   2.016   8.443  0.1389 -0.1566 -0.4326
  375TIP3    H225321   5.202   1.967   8.315  0.2075 -0.5130 -0.3316
  376TIP3   OH225322   2.209   7.094   8.027  0.3464 -0.5470  0.1778
  376TIP3    H125323   2.267   7.051   7.964  0.5327  0.3848 -0.3156
  376TIP3    H225324   2.238   7.062   8.112  1.0115 -0.7764 -0.1250
  377TIP3   OH225325   5.479   2.695   7.577 -0.3622 -0.1970 -0.2343
  377TIP3    H125326   5.395   2.703   7.533 -1.7198 -1.0018  2.0540
  377TIP3    H225327   5.531   2.769   7.546 -2.1840  0.7492 -1.1161
  378TIP3   OH225328   2.123   2.355   6.701  0.3842 -0.3772 -0.9055
  378TIP3    H125329   2.123   2.450   6.710 -0.5240 -0.5241  5.0368
  378TIP3    H225330   2.211   2.328   6.727  0.0086 -1.1395 -0.3655
  379TIP3   OH225331   3.023   2.763   9.085 -0.2967  0.5170  0.2596
  379TIP3    H125332   3.003   2.670   9.099  2.3492 -0.1207  0.2730
  379TIP3    H225333   3.080   2.787   9.158  2.0011  1.1047 -1.6250
  380TIP3   OH225334   7.562   7.121   9.294 -0.5461  0.0836 -0.1856
  380TIP3    H125335   7.548   7.092   9.204  1.4277 -1.2518 -0.1323
  380TIP3    H225336   7.490   7.081   9.343  0.1345 -1.8978 -0.6985
  381TIP3   OH225337   5.750   6.447   7.150  0.1972 -0.4858 -0.1756
  381TIP3    H125338   5.789   6.535   7.152 -0.7378 -0.0767  0.8406
  381TIP3    H225339   5.815   6.391   7.194 -0.7245  0.3987  2.5481
  382TIP3   OH225340   3.090   6.449   9.303  0.1825  0.0032  0.1095
  382TIP3    H125341   3.141   6.406   9.234  0.7599 -0.1650  0.6307
  382TIP3    H225342   3.062   6.377   9.360 -0.7619  0.0772 -0.2410
  383TIP3   OH225343   1.157   6.418   9.035  0.2652  0.1866  0.1042
  383TIP3    H125344   1.063   6.416   9.015  0.1215  1.5211  0.5419
  383TIP3    H225345   1.187   6.502   9.000  1.0433  0.3188  1.0519
  384TIP3   OH225346   1.047   0.872   7.088  0.0766  0.6127 -0.7207
  384TIP3    H125347   1.038   0.945   7.027  1.5370  0.5139 -1.0834
  384TIP3    H225348   0.979   0.888   7.155  0.2387  2.1822 -0.8996
  385TIP3   OH225349   3.491   5.541   7.472 -0.0323  0.6301 -0.3202
  385TIP3    H125350   3.490   5.449   7.446  1.7814  0.2003  0.9223
  385TIP3    H225351   3.469   5.540   7.565 -1.3535  1.6228 -0.5904
  386TIP3   OH225352   2.898   4.230   8.987  0.7242 -0.3723 -1.0539
  386TIP3    H125353   2.869   4.164   8.924  0.0650 -0.7368 -0.3896
  386TIP3    H225354   2.924   4.180   9.064 -1.8308  0.1752  0.2887
  387TIP3   OH225355   2.659   5.911   6.595  0.2895  0.1349 -0.3555
  387TIP3    H125356   2.663   5.998   6.635  0.7558  0.4552 -1.0862
  387TIP3    H225357   2.740   5.904   6.545 -0.8309  0.2566 -2.2917
  388TIP3   OH225358   4.521   0.353   9.818 -0.1833  0.6369  0.3948
  388TIP3    H125359   4.570   0.277   9.786 -1.0496  0.5281 -0.7363
  388TIP3    H225360   4.429   0.325   9.817 -0.6607  2.0581 -1.2298
  389TIP3   OH225361   1.084   3.197   7.280  0.1384  0.2048 -0.0274
  389TIP3    H125362   1.046   3.154   7.357 -1.4787 -0.5092 -1.1822
  389TIP3    H225363   1.019   3.261   7.253  1.2640  1.3851 -0.0769
  390TIP3   OH225364   6.924   4.088   7.426  0.1573  0.3317 -0.4572
  390TIP3    H125365   6.937   4.166   7.481 -1.1613  0.6583 -0.5790
  390TIP3    H225366   6.932   4.119   7.336  1.3107 -0.0149 -0.4926
  391TIP3   OH225367   2.000   1.800   8.394  0.3254 -0.1931 -0.2671
  391TIP3    H125368   2.068   1.769   8.454 -0.8068 -0.5818  0.8387
  391TIP3    H225369   1.976   1.723   8.342  0.4504 -0.1412 -0.4049
  392TIP3   OH225370   3.142   7.395   7.736  0.3562  0.0499 -0.2653
  392TIP3    H125371   3.083   7.365   7.667  0.2603  1.0976 -0.6538
  392TIP3    H225372   3.172   7.480   7.707  1.2399 -0.0035  0.4405
  393TIP3   OH225373   2.216   4.103   7.962 -0.2823  0.1990 -0.7421
  393TIP3    H125374   2.288   4.039   7.953 -0.3646  0.0769 -0.5255
  393TIP3    H225375   2.260   4.188   7.963  0.0963  0.0419  1.8320
  394TIP3   OH225376   0.462   2.530   8.224 -0.5138 -0.6527  0.2290
  394TIP3    H125377   0.478   2.437   8.238  0.2238 -0.7243 -0.9744
  394TIP3    H225378   0.394   2.552   8.288  0.4310 -1.6354  1.6245
  395TIP3   OH225379   7.290   5.326   8.306 -0.5444  1.0610  0.2369
  395TIP3    H125380   7.308   5.260   8.373 -1.1343 -0.8744 -1.4111
  395TIP3    H225381   7.370   5.377   8.301  0.6878 -0.7912  0.2165
  396TIP3   OH225382   0.511   1.569   7.852 -0.1996 -0.5698 -0.4752
  396TIP3    H125383   0.519   1.504   7.781 -1.2786 -0.0423 -1.1041
  396TIP3    H225384   0.491   1.651   7.807 -0.9475 -0.2310  0.4442
  397TIP3   OH225385   2.451   2.664   7.761 -0.0686 -0.1787 -0.2712
  397TIP3    H125386   2.441   2.723   7.836  0.3467 -0.6602  0.1714
  397TIP3    H225387   2.539   2.680   7.730 -0.6565  0.9315 -1.4654
  398TIP3   OH225388   4.135   5.008   8.034 -0.0641 -0.2574 -0.2075
  398TIP3    H125389   4.072   4.935   8.037  0.0199 -0.4353 -1.7240
  398TIP3    H225390   4.212   4.974   8.079 -0.2658 -0.8860 -0.3135
  399TIP3   OH225391   6.074   6.399   9.307  0.2111  0.3498 -0.3264
  399TIP3    H125392   6.057   6.372   9.216 -1.5810 -0.9842  0.3517
  399TIP3    H225393   6.004   6.358   9.358  0.3436  2.2451  1.5025
  400TIP3   OH225394   3.118   7.054   7.554  0.2518  0.3835 -0.0587
  400TIP3    H125395   3.063   6.977   7.572  1.1172 -0.0218  0.9363
  400TIP3    H225396   3.129   7.054   7.459  1.2509 -1.4563  0.0110
  401TIP3   OH225397   2.969   0.998   8.341 -0.4958 -0.0894  0.0137
  401TIP3    H125398   2.928   0.916   8.315  0.4846 -0.4819 -0.3531
  401TIP3    H225399   2.900   1.064   8.329 -0.8480 -0.6342 -1.1717
  402TIP3   OH225400   4.014   4.418   9.652 -0.0136  0.2315 -0.7875
  402TIP3    H125401   3.926   4.389   9.674 -0.9210  1.7353 -2.2475
  402TIP3    H225402   4.072   4.355   9.695 -1.7777 -0.5751  0.4821
  403TIP3   OH225403   2.681   3.980   7.735 -0.2190 -0.2243 -0.2537
  403TIP3    H125404   2.720   3.895   7.756  0.6228  0.3347  0.4982
  403TIP3    H225405   2.694   4.033   7.814 -1.1412  0.4689 -0.5486
  404TIP3   OH225406   1.272   0.628   9.119 -0.4275 -0.0855  0.3834
  404TIP3    H125407   1.181   0.613   9.147 -0.5823  2.0385  1.2121
  404TIP3    H225408   1.314   0.542   9.126 -1.7106 -0.6058  2.5041
  405TIP3   OH225409   7.192   4.992   9.075 -0.2493  0.9815 -0.1868
  405TIP3    H125410   7.150   5.059   9.129  1.2438  0.8345  1.2252
  405TIP3    H225411   7.256   5.040   9.023  0.6555  0.7301  0.6536
  406TIP3   OH225412   5.125   3.432   7.322  0.5752 -0.2999  0.4841
  406TIP3    H125413   5.155   3.494   7.389  1.0559 -1.3360  1.2643
  406TIP3    H225414   5.062   3.376   7.368  2.0626 -2.0318  0.5652
  407TIP3   OH225415   1.534   5.933   9.330  0.1656  0.2204 -0.5352
  407TIP3    H125416   1.558   5.945   9.239 -0.7275  0.4264 -0.7501
  407TIP3    H225417   1.489   6.014   9.354 -1.8355 -0.7980 -0.6582
  408TIP3   OH225418   2.313   5.828   7.709  0.3066  0.5877  0.1721
  408TIP3    H125419   2.321   5.735   7.728  0.1623  0.1981 -1.5356
  408TIP3    H225420   2.218   5.844   7.709  0.3430  1.1183  1.9767
  409TIP3   OH225421   0.117   3.461   8.423  0.1566  0.2497 -0.0379
  409TIP3    H125422   0.086   3.496   8.506  1.5622  1.2507  0.1049
  409TIP3    H225423   0.209   3.441   8.439  0.3287  0.0378 -1.2316
  410TIP3   OH225424   1.697   7.310   7.263 -0.4573  0.0865 -0.4559
  410TIP3    H125425   1.681   7.252   7.189 -1.2339 -1.0393  0.5570
  410TIP3    H225426   1.792   7.315   7.271 -0.3863 -0.9673 -0.6154
  411TIP3   OH225427   5.164   6.519   8.766 -0.1380 -0.1123  0.2090
  411TIP3    H125428   5.095   6.534   8.702 -1.3261  1.2814  1.7363
  411TIP3    H225429   5.122   6.532   8.851  1.8325  0.0642  1.2172
  412TIP3   OH225430   6.906   5.683   9.194  0.4534  0.3857 -0.0307
  412TIP3    H125431   6.852   5.761   9.203  0.1748  0.0540  1.6287
  412TIP3    H225432   6.984   5.712   9.146 -0.4836  1.2244 -1.0851
  413TIP3   OH225433   4.323   2.542   8.814 -0.2969  0.7269 -0.3795
  413TIP3    H125434   4.415   2.557   8.836 -0.6814  3.2015 -0.0982
  413TIP3    H225435   4.324   2.466   8.756  1.9256  0.7501 -0.4617
  414TIP3   OH225436   0.989   7.238   8.602  0.2809  0.1801  0.4598
  414TIP3    H125437   0.979   7.314   8.545 -0.8377  1.1338  1.8804
  414TIP3    H225438   1.083   7.232   8.617  0.3860  1.3062  0.3480
  415TIP3   OH225439   3.163   1.961   8.407  0.4274 -0.4551  0.2145
  415TIP3    H125440   3.180   2.043   8.454  2.9122 -0.0190 -1.2717
  415TIP3    H225441   3.188   1.980   8.317 -0.9594 -2.2774 -0.6023
  416TIP3   OH225442   3.167   4.589   7.804  0.2292 -0.2756  0.5750
  416TIP3    H125443   3.261   4.587   7.787  0.1856  1.0314  0.1017
  416TIP3    H225444   3.156   4.534   7.882  1.2125 -1.4086 -0.0473
  417TIP3   OH225445   3.368   2.099   7.772 -0.2016 -0.1285  0.8123
  417TIP3    H125446   3.436   2.141   7.719  1.1727 -2.8861  0.1878
  417TIP3    H225447   3.288   2.144   7.747  0.7796  0.4301 -1.6987
  418TIP3   OH225448   0.003   2.610   9.405  0.2849  0.0044 -0.4122
  418TIP3    H125449   0.098   2.606   9.392  0.6400  0.3097  1.6439
  418TIP3    H225450  -0.021   2.525   9.441 -0.3723 -0.3481 -1.6487
  419TIP3   OH225451   5.090   0.511   9.109 -0.2883 -0.5291 -0.3471
  419TIP3    H125452   5.065   0.452   9.038  1.9266 -1.7905 -0.1828
  419TIP3    H225453   5.083   0.598   9.072  0.1757 -1.1299 -1.9199
  420TIP3   OH225454   0.680   4.088   7.075  0.0346  0.3019  0.1627
  420TIP3    H125455   0.678   4.033   7.153 -0.6336  2.4066  1.7103
  420TIP3    H225456   0.590   4.117   7.063  0.2793  0.6983 -0.8961
  421TIP3   OH225457   4.484   5.977   8.953 -0.2931 -0.2625 -0.7364
  421TIP3    H125458   4.469   5.893   8.910 -0.1088 -0.5066 -0.3269
  421TIP3    H225459   4.451   5.966   9.042 -1.2249  0.4349 -0.9776
  422TIP3   OH225460   7.560   3.685   7.154 -0.1119 -0.0030 -0.3805
  422TIP3    H125461   7.495   3.664   7.086  0.0398 -1.9690  0.0159
  422TIP3    H225462   7.511   3.734   7.219 -0.9170 -0.3939 -0.6765
  423TIP3   OH225463   5.731   1.985   7.479  0.4899 -0.5432 -0.0430
  423TIP3    H125464   5.809   2.035   7.505 -0.9127  0.9185  1.6275
  423TIP3    H225465   5.724   1.916   7.544  0.8704 -1.2408 -0.7281
  424TIP3   OH225466   0.976   2.169   7.546 -0.3548 -0.3528  0.6969
  424TIP3    H125467   1.028   2.249   7.545 -0.2077 -0.4461  0.8950
  424TIP3    H225468   0.923   2.174   7.466 -0.8291  0.2576  1.0462
  425TIP3   OH225469   3.409   2.618   7.214  0.3801  0.0668  0.1048
  425TIP3    H125470   3.486   2.605   7.158  1.6962  0.1679  1.7994
  425TIP3    H225471   3.390   2.711   7.206 -1.7921 -0.4696 -2.9593
  426TIP3   OH225472   2.856   1.509   8.072 -0.1136  0.6808 -0.1833
  426TIP3    H125473   2.826   1.594   8.103 -0.5350  0.4286  0.1174
  426TIP3    H225474   2.878   1.460   8.152  1.2210  0.8917 -0.3959
  427TIP3   OH225475   3.100   4.408   8.954 -0.0819 -0.0780 -0.5022
  427TIP3    H125476   3.033   4.344   8.981  0.2541 -0.0005  0.5745
  427TIP3    H225477   3.181   4.358   8.950 -0.0186  0.0456 -0.7711
  428TIP3   OH225478   1.279   4.228   7.633 -0.0687  0.4815  0.2280
  428TIP3    H125479   1.195   4.184   7.623  0.6454 -0.8641 -0.1055
  428TIP3    H225480   1.302   4.257   7.545  1.2856 -2.0478 -0.3673
  429TIP3   OH225481   3.840   7.319   9.344  0.2432 -0.0949  0.0067
  429TIP3    H125482   3.853   7.224   9.336  1.8459 -0.0890  1.7866
  429TIP3    H225483   3.865   7.354   9.259 -1.6308 -1.3223 -1.1280
  430TIP3   OH225484   6.860   6.077   7.561  0.4427  0.1497  0.0656
  430TIP3    H125485   6.859   6.097   7.467 -1.0529  0.0242  0.0227
  430TIP3    H225486   6.901   5.991   7.566 -1.4160 -0.8652 -0.7626
  431TIP3   OH225487   6.979   3.966   9.066 -0.7553  0.2990 -0.9618
  431TIP3    H125488   7.022   4.048   9.040  0.8989 -0.4378 -0.6854
  431TIP3    H225489   7.051   3.910   9.095 -2.1338 -0.1435  1.9865
  432TIP3   OH225490   2.494   4.089   7.564 -0.0244  0.2730  0.3352
  432TIP3    H125491   2.475   4.179   7.589  1.9246  0.9302 -0.3592
  432TIP3    H225492   2.562   4.061   7.625 -0.5542 -0.7058  0.4897
  433TIP3   OH225493   6.445   3.003   7.590 -0.5891 -0.1333 -0.1416
  433TIP3    H125494   6.396   3.035   7.514 -0.8150  2.1253  0.8520
  433TIP3    H225495   6.537   3.013   7.566 -0.5321 -2.7023 -1.3397
  434TIP3   OH225496   4.474   7.241   9.128 -0.4237  0.1630  0.4270
  434TIP3    H125497   4.537   7.212   9.194 -0.3816 -2.7121 -0.7222
  434TIP3    H225498   4.393   7.194   9.151 -0.7007 -0.0684 -0.9693
  435TIP3   OH225499   5.658   2.123   9.404 -0.3234 -0.2272  0.5480
  435TIP3    H125500   5.738   2.074   9.421  0.0373  0.1180 -0.1323
  435TIP3    H225501   5.607   2.114   9.485  1.1954  1.0865  1.7320
  436TIP3   OH225502   3.604   2.762   7.392 -0.3945 -0.0260 -0.0544
  436TIP3    H125503   3.604   2.857   7.380  1.4346 -0.1532 -1.4251
  436TIP3    H225504   3.542   2.729   7.327 -0.3640  0.1610 -0.1778
  437TIP3   OH225505   4.810   4.877   8.825 -0.2486  0.2886 -0.7005
  437TIP3    H125506   4.869   4.803   8.836 -0.7080 -0.2118 -1.4474
  437TIP3    H225507   4.751   4.873   8.900 -0.2572 -0.0854 -0.7282
  438TIP3   OH225508   0.509   1.113   9.215  0.4615  0.5755 -0.2222
  438TIP3    H125509   0.495   1.205   9.196  0.6043  0.2912 -1.8189
  438TIP3    H225510   0.423   1.073   9.205  0.7224  0.2578 -1.3681
  439TIP3   OH225511   6.185   0.756   7.505  0.3509  0.5810  0.0779
  439TIP3    H125512   6.158   0.828   7.449 -1.9064 -0.7276 -0.6484
  439TIP3    H225513   6.135   0.768   7.586  0.7597  0.3931  0.3627
  440TIP3   OH225514   3.957   1.705   9.695  0.0371  0.4298  0.4740
  440TIP3    H125515   3.976   1.796   9.717 -0.3131  0.1291  2.2204
  440TIP3    H225516   4.041   1.660   9.707  0.1167  0.4497  0.0060
  441TIP3   OH225517   5.160   7.381   9.463 -0.0992  0.2435 -0.9935
  441TIP3    H125518   5.175   7.325   9.387  0.8213  0.1412 -0.7457
  441TIP3    H225519   5.222   7.350   9.529 -0.1362  1.0305 -0.5711
  442TIP3   OH225520   1.424   4.929   9.130 -0.6192  0.0427 -0.1030
  442TIP3    H125521   1.396   4.997   9.069  0.8427 -0.4061 -1.3246
  442TIP3    H225522   1.501   4.966   9.173 -0.9101 -0.1309  0.5820
  443TIP3   OH225523   4.972   5.576   8.949  0.0064  0.5477  0.4316
  443TIP3    H125524   4.992   5.655   8.901 -0.6239  0.1156 -0.5831
  443TIP3    H225525   4.906   5.531   8.895 -0.9801  0.2035  1.8475
  444TIP3   OH225526   1.333   1.077   7.920 -0.3773  0.0087 -0.2892
  444TIP3    H125527   1.359   1.165   7.895 -0.1964 -0.1005 -0.4953
  444TIP3    H225528   1.379   1.061   8.003 -1.1745  0.4628  0.2506
  445TIP3   OH225529   0.177   0.266   8.121  0.0397 -0.4241 -0.2401
  445TIP3    H125530   0.208   0.214   8.196 -0.8311 -0.7890 -0.1251
  445TIP3    H225531   0.246   0.331   8.108 -0.3386  0.4412  1.6551
  446TIP3   OH225532   6.082   3.377   7.261  0.0810 -0.2468 -0.3453
  446TIP3    H125533   6.100   3.416   7.346  0.2847  0.2435 -0.6134
  446TIP3    H225534   6.066   3.451   7.202  2.0199 -0.4507 -1.2192
  447TIP3   OH225535   2.434   4.712   9.176 -0.1494 -0.0199  0.3346
  447TIP3    H125536   2.529   4.722   9.172 -0.2670  1.3876  0.7426
  447TIP3    H225537   2.414   4.648   9.107  0.9530  0.6416 -0.6318
  448TIP3   OH225538   0.555   4.666   7.301  0.0756 -0.3654  0.2924
  448TIP3    H125539   0.603   4.720   7.363 -1.1173 -0.6410  1.5121
  448TIP3    H225540   0.532   4.587   7.350 -1.1485 -0.4736 -0.3941
  449TIP3   OH225541   5.012   4.641   8.454 -0.0333 -0.3281  0.4205
  449TIP3    H125542   4.979   4.726   8.484  2.2669  0.8237 -0.0165
  449TIP3    H225543   5.077   4.664   8.387  1.0270 -2.3923  0.6711
  450TIP3   OH225544   4.464   7.026   9.341 -0.0213 -0.3874 -0.0421
  450TIP3    H125545   4.488   7.096   9.402 -1.1480  1.7288 -1.8808
  450TIP3    H225546   4.369   7.022   9.345 -0.1720  0.1906 -1.9723
  451TIP3   OH225547   4.078   7.473   8.406  0.4111  0.2737  0.3527
  451TIP3    H125548   4.066   7.555   8.358  2.7611 -1.1904 -3.1293
  451TIP3    H225549   4.173   7.462   8.409  0.1598 -2.4804  0.3392
  452TIP3   OH225550   6.200   4.248   8.343  0.0101  0.7150  0.0392
  452TIP3    H125551   6.195   4.343   8.351 -1.3813  0.5722  1.2471
  452TIP3    H225552   6.261   4.221   8.412  0.2931  0.7280 -0.2084
  453TIP3   OH225553   3.729   5.192   8.873  0.2036  0.7251 -0.1888
  453TIP3    H125554   3.728   5.120   8.935 -0.5125  0.7643 -0.1469
  453TIP3    H225555   3.799   5.250   8.904 -0.9917  1.4085  1.3612
  454TIP3   OH225556   3.321   5.110   7.936  0.3127  0.3202  0.2283
  454TIP3    H125557   3.346   5.156   8.016 -1.5263 -0.3240  1.2221
  454TIP3    H225558   3.323   5.017   7.959 -2.9327  0.2001  0.4586
  455TIP3   OH225559   2.438   0.116   8.636 -0.2282 -0.4190 -0.3617
  455TIP3    H125560   2.437   0.202   8.676 -0.4336 -0.1362 -0.9658
  455TIP3    H225561   2.445   0.133   8.542 -1.9467 -0.9940 -0.6279
  456TIP3   OH225562   0.030   7.124   7.583  0.2289 -0.4342 -0.2052
  456TIP3    H125563   0.116   7.165   7.596 -0.5157  1.0343  0.2450
  456TIP3    H225564   0.037   7.040   7.629  1.1004  0.1112  0.7051
  457TIP3   OH225565   7.067   4.591   8.520  0.1840  0.1846 -0.5394
  457TIP3    H125566   6.985   4.550   8.492  0.4532 -0.5485 -0.2730
  457TIP3    H225567   7.058   4.683   8.493 -0.0486 -0.2320 -1.9924
  458TIP3   OH225568   2.375   3.891   8.006  0.2656  0.4101 -0.3800
  458TIP3    H125569   2.443   3.824   8.008 -1.4997 -1.4943 -0.4346
  458TIP3    H225570   2.356   3.909   8.099  0.3167  0.3729 -0.3621
  459TIP3   OH225571   2.396   4.976   9.111 -0.0167 -0.5001 -0.5043
  459TIP3    H125572   2.440   5.051   9.150  0.0959  0.0422 -1.6580
  459TIP3    H225573   2.363   4.926   9.186 -0.7295  1.0661  0.2670
  460TIP3   OH225574   2.615   1.298   8.253  0.4622 -0.0305 -0.5457
  460TIP3    H125575   2.549   1.285   8.321  0.0964  0.6045 -0.7697
  460TIP3    H225576   2.646   1.387   8.266 -1.4546  1.0514 -2.7493
  461TIP3   OH225577   1.169   3.482   7.371 -0.0801  0.1336  0.7022
  461TIP3    H125578   1.076   3.465   7.360  0.3640 -1.2056 -1.6792
  461TIP3    H225579   1.191   3.544   7.302  1.0344 -0.6089  0.3646
  462TIP3   OH225580   7.184   1.124   9.318  0.3088  0.1607  0.3715
  462TIP3    H125581   7.250   1.153   9.381  0.5892  0.3132  0.0086
  462TIP3    H225582   7.149   1.204   9.280 -0.8844  0.1489  1.3427
  463TIP3   OH225583   2.373   2.673   7.285 -0.0113 -0.4096  0.3619
  463TIP3    H125584   2.291   2.654   7.239  0.4242 -0.3746 -0.4430
  463TIP3    H225585   2.418   2.736   7.228  1.1322 -1.3647  0.1746
  464TIP3   OH225586   6.745   2.426   6.768  0.1274  0.0068 -0.2509
  464TIP3    H125587   6.708   2.477   6.696 -0.0670 -0.9928 -0.8796
  464TIP3    H225588   6.692   2.346   6.770 -1.2605  0.8418  2.3480
  465TIP3   OH225589   1.898   6.980   7.873 -0.1115  0.2730  0.3237
  465TIP3    H125590   1.901   7.075   7.870 -0.1542  0.3292  1.6039
  465TIP3    H225591   1.811   6.959   7.908  0.3467 -0.1802  1.2464
  466TIP3   OH225592   6.935   7.300   9.308  0.1458  0.5927  0.6317
  466TIP3    H125593   6.913   7.224   9.362  0.2142  1.0779  1.3404
  466TIP3    H225594   6.881   7.371   9.342  1.1025  1.2217  0.8769
  467TIP3   OH225595   1.072   6.598   8.516 -0.8504  0.4932 -0.4709
  467TIP3    H125596   1.087   6.630   8.426  1.3501 -2.2306 -1.2199
  467TIP3    H225597   1.159   6.599   8.556 -1.5442  0.1654  1.1123
  468TIP3   OH225598   5.278   6.923   8.624  0.6924  0.1731 -0.1990
  468TIP3    H125599   5.301   6.851   8.566 -2.0213 -1.0623  0.0642
  468TIP3    H225600   5.206   6.968   8.579 -0.4954  0.0662  1.4849
  469TIP3   OH225601   4.985   6.199   9.637 -0.2373 -0.6117  1.2183
  469TIP3    H125602   4.910   6.214   9.695 -0.3860  2.2608  0.4414
  469TIP3    H225603   5.040   6.277   9.648  1.2579 -1.3851 -0.2734
  470TIP3   OH225604   2.487   3.034   8.157 -0.4965 -0.4909  0.4051
  470TIP3    H125605   2.520   3.124   8.148  0.1172 -0.7865 -0.3303
  470TIP3    H225606   2.427   3.039   8.231  0.9474  0.1382  1.5961
  471TIP3   OH225607   2.927   0.241   6.771 -0.2995  0.0523  0.5315
  471TIP3    H125608   2.884   0.219   6.853  0.3267  3.5467  1.9464
  471TIP3    H225609   2.867   0.300   6.727  0.2337 -0.2422 -0.6357
  472TIP3   OH225610   2.292   1.770   9.600 -0.0868  0.2055 -0.2299
  472TIP3    H125611   2.237   1.761   9.522  0.7253  2.2221 -1.0809
  472TIP3    H225612   2.307   1.864   9.609  0.3095 -0.0207  2.0594
  473TIP3   OH225613   5.623   3.882   8.116  0.0350  0.2354  0.0894
  473TIP3    H125614   5.629   3.927   8.200  1.1970 -0.2566  0.2817
  473TIP3    H225615   5.714   3.866   8.090 -0.3220 -0.6256 -0.7077
  474TIP3   OH225616   0.389   2.155   7.591  0.2598 -0.0153 -0.1590
  474TIP3    H125617   0.322   2.107   7.542  1.4380 -1.0134 -0.8422
  474TIP3    H225618   0.467   2.100   7.586  0.8797  0.6483  1.4637
  475TIP3   OH225619   0.527   4.475   6.692 -0.0069 -0.1576  0.3400
  475TIP3    H125620   0.579   4.399   6.720 -0.7891 -1.3131 -1.1566
  475TIP3    H225621   0.563   4.498   6.606 -0.7162  0.2379  0.1389
  476TIP3   OH225622   1.677   1.368   8.220  0.4094  0.5167 -0.5966
  476TIP3    H125623   1.658   1.400   8.308  3.2856  0.3366  0.1748
  476TIP3    H225624   1.668   1.446   8.164  0.8668  1.1927  0.2403
  477TIP3   OH225625   0.748   2.223   7.913  0.7576 -0.1186  0.8609
  477TIP3    H125626   0.787   2.303   7.877 -3.2914  2.0604  0.6902
  477TIP3    H225627   0.728   2.246   8.004 -0.3123 -0.9642  0.8577
  478TIP3   OH225628   7.115   2.923   9.094  0.1147  0.3780 -0.4221
  478TIP3    H125629   7.058   2.949   9.022 -1.4746 -0.8673  0.3081
  478TIP3    H225630   7.155   3.005   9.124 -0.9676  1.2424 -1.2542
  479TIP3   OH225631   2.561   3.869   6.750  0.5827 -0.0105 -0.2892
  479TIP3    H125632   2.580   3.775   6.749  1.5123  0.0850  1.8108
  479TIP3    H225633   2.647   3.911   6.749  0.2837  0.7150  1.3686
  480TIP3   OH225634   3.160   3.130   9.288 -0.2248 -0.0389  0.0507
  480TIP3    H125635   3.231   3.184   9.320  0.6599 -0.0470 -1.7475
  480TIP3    H225636   3.080   3.171   9.321  0.5762  0.2354  1.7072
  481TIP3   OH225637   3.032   2.449   8.684  0.0075  0.4451  0.5056
  481TIP3    H125638   3.069   2.463   8.597 -0.3727 -3.9258 -0.5733
  481TIP3    H225639   2.947   2.493   8.681  0.2347  0.8369 -1.1154
  482TIP3   OH225640   1.692   7.145   9.554 -0.3053 -0.3882  0.6011
  482TIP3    H125641   1.721   7.208   9.488  0.5001 -1.2982  0.0737
  482TIP3    H225642   1.601   7.126   9.530 -0.2922 -0.0562  0.2743
  483TIP3   OH225643   2.419   7.078   8.835 -0.2115 -0.5220  0.0113
  483TIP3    H125644   2.442   7.158   8.790 -0.7941  0.6273  1.6574
  483TIP3    H225645   2.494   7.060   8.892 -0.0787 -1.1700 -0.3544
  484TIP3   OH225646   6.984   6.637   8.383 -0.3006 -0.0625  0.2386
  484TIP3    H125647   6.938   6.554   8.397  0.0634 -0.0484  1.5824
  484TIP3    H225648   6.929   6.684   8.320 -1.1972 -0.7811  0.4698
  485TIP3   OH225649   6.635   2.777   7.409 -0.0520 -0.2870 -0.1825
  485TIP3    H125650   6.591   2.794   7.326  0.4532  1.8398 -0.0736
  485TIP3    H225651   6.639   2.863   7.452 -0.2366 -1.3142  2.0249
  486TIP3   OH225652   1.025   5.669   7.429  0.0776  0.5740  0.1409
  486TIP3    H125653   1.043   5.690   7.337 -0.7798  0.1318 -0.1366
  486TIP3    H225654   1.112   5.656   7.468  0.4128 -0.6946 -0.9613
  487TIP3   OH225655   3.202   0.587   6.765  0.0301 -0.0639  0.0502
  487TIP3    H125656   3.174   0.518   6.704  1.9019 -0.3906 -0.4963
  487TIP3    H225657   3.292   0.606   6.740  0.5354  0.4958  2.1103
  488TIP3   OH225658   2.115   4.413   7.177  0.0900 -0.1017  0.3328
  488TIP3    H125659   2.109   4.471   7.102  0.1377 -0.6412 -0.0921
  488TIP3    H225660   2.195   4.441   7.223 -0.4343  0.8369  0.7129
  489TIP3   OH225661   5.886   2.233   7.552 -0.0889 -0.1677  0.3255
  489TIP3    H125662   5.905   2.182   7.631 -0.3666 -1.7617 -0.5819
  489TIP3    H225663   5.964   2.286   7.538  1.3715 -2.2893 -0.1011
  490TIP3   OH225664   2.442   2.685   9.566  0.8014  0.0092 -0.1073
  490TIP3    H125665   2.444   2.589   9.568 -0.1339 -0.1250  3.7549
  490TIP3    H225666   2.522   2.712   9.613 -1.2007  0.7484  3.2617
  491TIP3   OH225667   5.504   4.772   7.258  0.3224 -0.1407 -0.3171
  491TIP3    H125668   5.494   4.867   7.256  0.5430 -0.1269 -1.2319
  491TIP3    H225669   5.414   4.738   7.259  0.1891  0.0720  2.5977
  492TIP3   OH225670   5.329   1.240   7.613  0.0060  0.3552  0.4420
  492TIP3    H125671   5.392   1.311   7.627  1.2448 -0.5590 -0.3694
  492TIP3    H225672   5.367   1.187   7.544 -0.8789 -1.1384  1.0647
  493TIP3   OH225673   6.527   0.280   7.555 -0.0776 -0.0483 -0.0972
  493TIP3    H125674   6.461   0.297   7.622 -0.0942  0.6469 -0.2798
  493TIP3    H225675   6.476   0.249   7.480  0.0547 -2.0588  0.6012
  494TIP3   OH225676   7.008   0.729   9.399  0.5710 -0.6384  0.6313
  494TIP3    H125677   7.020   0.667   9.327 -0.6633  0.4352 -0.5621
  494TIP3    H225678   7.095   0.768   9.411  0.8781 -1.0990 -0.0346
  495TIP3   OH225679   3.799   1.164   9.671 -0.2588  0.9033 -0.4834
  495TIP3    H125680   3.715   1.130   9.641 -0.4496  0.1641  0.7929
  495TIP3    H225681   3.792   1.259   9.660 -1.6988  0.9624  0.5884
  496TIP3   OH225682   0.647   6.695   8.727 -0.4378  0.6171 -0.1775
  496TIP3    H125683   0.674   6.652   8.808  2.4483  0.5129 -1.0852
  496TIP3    H225684   0.704   6.658   8.660  0.0817  3.5799 -1.5512
  497TIP3   OH225685   7.533   2.774   7.708 -0.1105 -0.6741 -0.3486
  497TIP3    H125686   7.550   2.868   7.700  0.1874 -0.8377 -2.1889
  497TIP3    H225687   7.619   2.734   7.695 -0.0935 -1.1943  1.2444
  498TIP3   OH225688   3.992   2.909   8.541 -0.4207  0.1816  0.1676
  498TIP3    H125689   4.015   2.999   8.520 -0.4103  0.3354  0.8140
  498TIP3    H225690   3.931   2.883   8.472 -2.1693  1.4345  1.1464
  499TIP3   OH225691   4.743   7.324   9.415  0.2313 -0.8061 -0.1116
  499TIP3    H125692   4.809   7.280   9.360  1.1566  0.8812 -0.4093
  499TIP3    H225693   4.680   7.360   9.353 -1.0487 -2.4295  0.1745
  500TIP3   OH225694   1.976   0.942   9.518 -0.0694  0.3045  0.5635
  500TIP3    H125695   1.922   0.913   9.592 -0.7368  0.3690  0.1036
  500TIP3    H225696   1.918   0.939   9.443  0.2629  1.4019  0.2387
  501TIP3   OH225697   4.427   5.455   8.942 -0.3324  0.2133  0.3039
  501TIP3    H125698   4.355   5.394   8.929 -0.2568 -0.3659  2.2331
  501TIP3    H225699   4.505   5.405   8.919 -0.3630  0.0059  0.6505
  502TIP3   OH225700   0.958   2.805   8.861 -0.1323  0.4346 -0.2466
  502TIP3    H125701   1.017   2.879   8.875  0.6853  0.0866 -1.6355
  502TIP3    H225702   0.897   2.836   8.793 -0.5279  0.2380  0.0182
  503TIP3   OH225703   6.983   5.562   8.277 -0.1683 -0.1490 -0.6186
  503TIP3    H125704   7.041   5.495   8.241  1.2671  0.4180  0.5195
  503TIP3    H225705   7.042   5.629   8.312 -1.4351 -0.1107  1.6790
  504TIP3   OH225706   0.797   1.616   8.585  0.3434  0.2465  0.1597
  504TIP3    H125707   0.772   1.704   8.557 -0.3641  1.1091  3.1668
  504TIP3    H225708   0.842   1.629   8.668  1.5737 -2.1609 -0.0460
  505TIP3   OH225709   6.172   3.469   8.062 -0.6530  0.4489 -0.3360
  505TIP3    H125710   6.124   3.388   8.077  1.2818 -0.5904  0.5088
  505TIP3    H225711   6.238   3.447   7.996  0.6707  0.9786  0.7697
  506TIP3   OH225712   0.691   5.276   8.456  0.1427 -0.8801 -0.4830
  506TIP3    H125713   0.709   5.191   8.415 -0.5183 -1.2774  0.0206
  506TIP3    H225714   0.599   5.271   8.481  0.6714 -0.9939  1.7430
  507TIP3   OH225715   5.503   0.320   8.052  0.5506 -0.1805  0.1156
  507TIP3    H125716   5.511   0.315   8.147  0.2157  2.0458  0.3231
  507TIP3    H225717   5.412   0.345   8.037  0.3112 -1.5387 -0.8725
  508TIP3   OH225718   7.085   5.757   8.406 -0.1898 -0.1180 -0.3384
  508TIP3    H125719   7.036   5.749   8.488  0.0517  1.1665 -0.0414
  508TIP3    H225720   7.118   5.847   8.407 -0.2122 -0.0681 -1.8698
  509TIP3   OH225721   3.190   1.688   7.678  0.3712 -0.0201  0.1086
  509TIP3    H125722   3.222   1.600   7.697 -0.8783 -0.5702 -0.2165
  509TIP3    H225723   3.215   1.740   7.754 -1.7287 -1.4225  1.8592
  510TIP3   OH225724   3.729   0.693   7.099  0.1749 -0.5811  0.1987
  510TIP3    H125725   3.797   0.631   7.073  0.2878 -0.6577  0.6631
  510TIP3    H225726   3.666   0.691   7.027  0.1965 -1.2060  0.1883
  511TIP3   OH225727   4.184   6.385   8.242  0.5790 -0.3618 -0.2669
  511TIP3    H125728   4.185   6.477   8.268  1.6299 -0.7770  1.3368
  511TIP3    H225729   4.147   6.340   8.318 -2.2395 -1.0885 -1.9241
  512TIP3   OH225730   1.976   3.763   9.079 -0.1566 -0.4677  0.4267
  512TIP3    H125731   2.062   3.803   9.064 -0.9140  1.2655  0.3983
  512TIP3    H225732   1.995   3.684   9.130  1.4415 -0.0659  0.5180
  513TIP3   OH225733   6.005   0.924   7.311  0.4432  0.2485  1.0123
  513TIP3    H125734   6.004   0.836   7.272  0.1010  0.6632  0.0606
  513TIP3    H225735   5.913   0.944   7.326  0.5091  0.5396  1.0236
  514TIP3   OH225736   6.953   0.325   7.792  0.1552 -0.0320  0.2246
  514TIP3    H125737   7.045   0.320   7.767  0.2074  1.3401  0.0436
  514TIP3    H225738   6.952   0.306   7.885  0.8026  1.1713  0.4976
  515TIP3   OH225739   5.279   1.652   7.726 -0.0870  0.4213 -0.5580
  515TIP3    H125740   5.345   1.585   7.705 -0.3583  0.3330 -1.1440
  515TIP3    H225741   5.199   1.603   7.744  0.5818  0.2923  2.9268
  516TIP3   OH225742   5.144   6.173   7.300 -0.3012  0.1783  0.0203
  516TIP3    H125743   5.191   6.099   7.338  0.1918  0.6973  0.4226
  516TIP3    H225744   5.127   6.146   7.210  0.6051 -0.0965 -0.0794
  517TIP3   OH225745   3.904   3.615   7.880  0.1931  0.1446  0.3614
  517TIP3    H125746   3.843   3.541   7.885  1.1765 -0.7674 -0.5108
  517TIP3    H225747   3.851   3.692   7.900 -0.7078 -0.8676  2.0184
  518TIP3   OH225748   3.171   1.400   8.239  0.0252  0.4576 -0.0185
  518TIP3    H125749   3.085   1.358   8.236  0.1261  0.2102  0.4889
  518TIP3    H225750   3.163   1.473   8.178 -0.0397 -0.4975 -1.1975
  519TIP3   OH225751   6.288   1.320   8.635  0.2809  0.0814  0.0958
  519TIP3    H125752   6.249   1.391   8.688 -0.5513 -0.3189  0.0279
  519TIP3    H225753   6.239   1.242   8.660  1.2017 -0.4805  0.1724
  520TIP3   OH225754   2.843   6.118   7.032  0.2281  0.9005 -0.3857
  520TIP3    H125755   2.749   6.105   7.040  0.0211  2.5197  0.1294
  520TIP3    H225756   2.869   6.063   6.958 -1.2917  1.2202 -1.1969
  521TIP3   OH225757   1.261   5.997   8.481  0.4772  0.4201 -0.3227
  521TIP3    H125758   1.354   6.012   8.465  0.9243  0.3998  2.0328
  521TIP3    H225759   1.224   6.084   8.498  0.3422  0.2716  0.1385
  522TIP3   OH225760   5.748   1.252   7.820 -0.2817  0.3576  0.1339
  522TIP3    H125761   5.716   1.342   7.814  2.0268  1.1912 -1.4343
  522TIP3    H225762   5.837   1.256   7.783 -1.1770 -3.1148 -3.0332
  523TIP3   OH225763   2.330   2.395   9.017  0.2143  0.1544  0.0665
  523TIP3    H125764   2.377   2.313   9.003 -0.6432 -0.2835 -0.3906
  523TIP3    H225765   2.385   2.461   8.975  2.2442  0.2780  2.7226
  524TIP3   OH225766   4.350   7.005   8.765 -0.0531  0.0830 -0.2647
  524TIP3    H125767   4.391   6.925   8.734 -0.4724  0.5359 -2.1441
  524TIP3    H225768   4.344   6.995   8.860  0.8021 -1.6564 -0.3663
  525TIP3   OH225769   7.514   4.936   7.799  0.0100  0.4865 -0.5036
  525TIP3    H125770   7.608   4.956   7.802  0.0329  0.4498 -0.9445
  525TIP3    H225771   7.481   4.965   7.884  0.5437 -0.1214 -0.0779
  526TIP3   OH225772   5.900   2.572   8.185  0.2139 -0.4207  0.5470
  526TIP3    H125773   5.859   2.569   8.099 -0.5347 -0.5295  0.9009
  526TIP3    H225774   5.864   2.651   8.226  0.5564 -0.3763  0.7691
  527TIP3   OH225775   2.885   0.790   7.316  0.0422 -0.1207  0.5019
  527TIP3    H125776   2.898   0.701   7.284  0.4901  0.8335 -2.3061
  527TIP3    H225777   2.790   0.801   7.319 -0.0241 -0.3710 -0.2849
  528TIP3   OH225778   0.192   2.638   7.235  0.1964  0.4341  0.0412
  528TIP3    H125779   0.212   2.553   7.275  0.2066  0.1172 -0.6155
  528TIP3    H225780   0.160   2.616   7.148  0.2308  1.1099 -0.1485
  529TIP3   OH225781   2.593   0.169   6.799 -0.3104  0.3903 -0.0405
  529TIP3    H125782   2.601   0.260   6.771 -0.0925  0.3036 -0.2684
  529TIP3    H225783   2.562   0.123   6.721 -0.5442  0.2891  0.1097
  530TIP3   OH225784   7.279   4.025   9.264 -0.2458 -0.7088 -0.1345
  530TIP3    H125785   7.301   4.047   9.355  0.4635 -2.8511  0.2635
  530TIP3    H225786   7.352   4.059   9.213 -0.4431  0.1384  0.1310
  531TIP3   OH225787   2.844   7.548   8.595  0.2781  0.0810  1.0252
  531TIP3    H125788   2.802   7.624   8.555 -1.9284 -1.8736 -0.6475
  531TIP3    H225789   2.925   7.536   8.544  0.1113  0.7065  0.6065
  532TIP3   OH225790   1.331   6.597   8.611 -0.2198 -0.1771 -0.0227
  532TIP3    H125791   1.381   6.675   8.589 -0.2660 -0.3390 -0.7262
  532TIP3    H225792   1.395   6.536   8.647 -0.0513 -0.1049 -0.2038
  533TIP3   OH225793   3.910   0.389   8.530  0.1133  0.7013  0.0508
  533TIP3    H125794   3.944   0.339   8.456 -1.2202 -0.8345  0.4159
  533TIP3    H225795   3.937   0.479   8.512  3.3385 -0.1926 -0.1985
  534TIP3   OH225796   6.776   5.668   8.923 -0.1451  0.1159 -0.7199
  534TIP3    H125797   6.740   5.738   8.979 -1.3692  0.3079 -1.7028
  534TIP3    H225798   6.790   5.595   8.983  2.7048  1.6525  0.6667
  535TIP3   OH225799   4.226   7.183   9.447 -0.1455 -0.4324 -0.1878
  535TIP3    H125800   4.150   7.153   9.496  0.6888 -2.1564  0.1036
  535TIP3    H225801   4.292   7.203   9.515 -0.0677  0.3070 -0.4709
  536TIP3   OH225802   4.092   7.297   9.677  0.2849 -0.4374  0.3424
  536TIP3    H125803   4.008   7.330   9.708  0.8299  0.7642  0.5885
  536TIP3    H225804   4.085   7.202   9.684 -0.7788 -0.3169  1.0513
  537TIP3   OH225805   3.236   0.977   8.434  0.1157  0.3164 -0.5569
  537TIP3    H125806   3.151   0.983   8.392 -0.4660  0.9221  0.6664
  537TIP3    H225807   3.267   1.067   8.439  0.3166  0.2218  0.0016
  538TIP3   OH225808   4.475   7.501   9.446  0.1260 -0.3038  0.5944
  538TIP3    H125809   4.524   7.437   9.497  0.1742 -1.2840 -0.6415
  538TIP3    H225810   4.388   7.501   9.485  0.2385 -0.8480  0.8581
  539TIP3   OH225811   1.726   6.449   9.148 -0.4800 -0.6655 -0.1879
  539TIP3    H125812   1.784   6.521   9.173  0.3374 -1.3025 -0.2235
  539TIP3    H225813   1.645   6.466   9.196  0.6515 -1.2359  2.0302
  540TIP3   OH225814   6.544   7.505   8.226  0.6920 -0.2794 -0.5732
  540TIP3    H125815   6.455   7.487   8.197  0.1984 -2.1769  1.8221
  540TIP3    H225816   6.594   7.426   8.202  1.3307  0.0586 -0.3799
  541TIP3   OH225817   0.595   4.214   6.794  0.3961 -0.5113  0.2456
  541TIP3    H125818   0.524   4.151   6.782  0.1111 -0.2355  0.4681
  541TIP3    H225819   0.674   4.166   6.769  0.2715 -1.1850  1.0934
  542TIP3   OH225820   2.087   6.698   7.629  0.0555 -0.3022  0.2803
  542TIP3    H125821   2.124   6.631   7.571 -1.8775 -1.4570  0.2842
  542TIP3    H225822   2.118   6.674   7.716  0.1850 -0.5999  0.1538
  543TIP3   OH225823   2.387   6.616   9.045  0.1910  0.0591  0.2665
  543TIP3    H125824   2.359   6.708   9.042  0.4512  0.1233 -0.4780
  543TIP3    H225825   2.316   6.571   9.091 -0.8113  0.3413 -0.9398
  544TIP3   OH225826   3.451   2.220   9.675  0.1969  0.4531 -0.6305
  544TIP3    H125827   3.415   2.137   9.642  0.4741  0.4367 -0.8936
  544TIP3    H225828   3.513   2.194   9.743 -1.3177  0.5313  0.8606
  545TIP3   OH225829   2.144   6.432   9.187 -0.1867 -0.3359 -0.4793
  545TIP3    H125830   2.075   6.453   9.250 -0.7866  0.5290 -1.3979
  545TIP3    H225831   2.129   6.339   9.167  0.5553 -0.8769  1.2711
  546TIP3   OH225832   6.414   1.735   9.456  0.1616 -0.4047  0.1083
  546TIP3    H125833   6.480   1.677   9.418  0.8651  0.3921  0.0730
  546TIP3    H225834   6.342   1.677   9.481  1.7325 -1.6208  2.1593
  547TIP3   OH225835   0.565   1.978   7.887  0.1501  0.1692 -0.8804
  547TIP3    H125836   0.559   1.904   7.828 -2.3152  0.3913 -1.0159
  547TIP3    H225837   0.646   2.023   7.861  1.3806 -2.0587 -1.1839
  548TIP3   OH225838   2.127   2.193   8.074  1.1234  0.1349  0.2866
  548TIP3    H125839   2.153   2.174   7.984  0.3084 -2.0271  0.4424
  548TIP3    H225840   2.089   2.111   8.106  0.0008  1.2865  2.1184
  549TIP3   OH225841   2.641   5.720   6.833  0.3278  0.1471 -0.1574
  549TIP3    H125842   2.658   5.760   6.748  0.5643 -0.3815 -0.3620
  549TIP3    H225843   2.604   5.791   6.886 -0.8293  0.2017 -1.0143
  550TIP3   OH225844   4.860   4.063   8.672 -0.2000  0.2940 -0.1297
  550TIP3    H125845   4.768   4.039   8.665 -0.6111  2.1926 -2.8587
  550TIP3    H225846   4.908   3.983   8.648 -1.2608  0.0206 -1.4674
  551TIP3   OH225847   1.548   3.901   7.005 -0.1231  0.8099 -0.2255
  551TIP3    H125848   1.459   3.877   6.981  0.6442 -2.0487 -0.5894
  551TIP3    H225849   1.562   3.987   6.965 -2.6586  1.3202 -0.1776
  552TIP3   OH225850   2.186   5.142   9.669  0.4305  0.0799  0.3857
  552TIP3    H125851   2.099   5.102   9.674  0.7593 -0.7706 -0.4222
  552TIP3    H225852   2.173   5.221   9.617  0.2858 -0.4947 -0.4610
  553TIP3   OH225853   7.543   6.617   7.112  0.6125  0.2431  0.3429
  553TIP3    H125854   7.479   6.550   7.136  0.5146  1.0352  2.4670
  553TIP3    H225855   7.490   6.696   7.095  0.7697 -0.0165 -1.6342
  554TIP3   OH225856   2.675   6.337   9.635 -0.1834  0.1405  0.0452
  554TIP3    H125857   2.618   6.271   9.594  1.8413 -0.1048 -2.6614
  554TIP3    H225858   2.643   6.421   9.603  1.2097 -0.0343 -2.0218
  555TIP3   OH225859   6.819   5.724   9.511  0.0490 -0.0197  0.1426
  555TIP3    H125860   6.854   5.770   9.434 -0.2512  0.2447  0.1679
  555TIP3    H225861   6.783   5.792   9.566  1.0730 -0.1100  0.9539
  556TIP3   OH225862   5.802   5.181   7.503 -0.0935  0.0831  0.1226
  556TIP3    H125863   5.849   5.098   7.513  2.3376  0.9823 -2.5035
  556TIP3    H225864   5.743   5.167   7.429 -0.0859  0.4891  0.0349
  557TIP3   OH225865   3.040   3.051   7.321  0.0300 -0.3588  1.0771
  557TIP3    H125866   2.957   3.056   7.368  0.4090 -1.6896  1.9423
  557TIP3    H225867   3.104   3.091   7.380  0.2813 -0.8198  1.1220
  558TIP3   OH225868   5.924   6.447   8.985  0.2109 -0.0026  0.0159
  558TIP3    H125869   5.849   6.437   8.926 -0.0478  0.6539  0.2187
  558TIP3    H225870   5.886   6.483   9.065  0.6970  0.0304  0.2332
  559TIP3   OH225871   1.723   3.747   8.317 -0.3765 -0.1854 -0.1347
  559TIP3    H125872   1.701   3.696   8.239  0.0665  0.0165 -0.4022
  559TIP3    H225873   1.765   3.826   8.282  1.3434 -0.8378  0.3564
  560TIP3   OH225874   7.028   4.139   8.010 -0.4938 -0.3931  0.3879
  560TIP3    H125875   7.087   4.202   7.969  0.4515 -0.5884  1.4092
  560TIP3    H225876   6.959   4.193   8.050 -0.0552 -0.0430  0.6816
  561TIP3   OH225877   0.280   6.791   8.508  0.1853 -0.2406 -0.0806
  561TIP3    H125878   0.233   6.765   8.587  0.7625 -1.8940 -0.2258
  561TIP3    H225879   0.250   6.880   8.489 -0.7911 -0.2366  1.3597
  562TIP3   OH225880   2.885   4.910   9.064  0.5269  0.1042 -0.0364
  562TIP3    H125881   2.875   4.832   9.009  1.0624  0.2691 -0.3716
  562TIP3    H225882   2.859   4.983   9.007 -1.7438  0.0414  0.8133
  563TIP3   OH225883   0.776   4.005   8.147  0.1340  0.3557 -0.1594
  563TIP3    H125884   0.705   3.967   8.199 -0.4981  2.1225  0.3354
  563TIP3    H225885   0.816   4.070   8.205  0.2489  1.4613 -1.4334
  564TIP3   OH225886   0.368   4.996   7.330 -0.2320 -0.1671  0.3610
  564TIP3    H125887   0.283   5.016   7.293  0.7383  2.4401 -0.6926
  564TIP3    H225888   0.363   5.028   7.421  0.2371  2.1319 -0.3478
  565TIP3   OH225889   0.422   3.957   6.325 -0.1533  0.3368 -0.1049
  565TIP3    H125890   0.365   3.908   6.384  1.0431 -0.8725  0.0824
  565TIP3    H225891   0.365   4.025   6.289 -1.6263 -0.6153  0.3223
  566TIP3   OH225892   6.513   4.735   7.160  0.3576  0.3580  0.0745
  566TIP3    H125893   6.503   4.642   7.141 -1.6077  0.5728 -0.1466
  566TIP3    H225894   6.570   4.768   7.092  0.1174 -0.4750 -0.5430
  567TIP3   OH225895   4.826   1.248   9.469  0.0969  0.1571  0.1725
  567TIP3    H125896   4.867   1.219   9.551  0.2336  1.0453  0.4348
  567TIP3    H225897   4.770   1.322   9.495 -0.2819  0.1031 -0.4575
  568TIP3   OH225898   1.922   7.563   7.661 -0.0695 -0.1458  0.6659
  568TIP3    H125899   1.949   7.553   7.569 -0.6832 -0.2377  0.4915
  568TIP3    H225900   1.913   7.473   7.692 -1.8378 -0.1611  0.2171
  569TIP3   OH225901   3.543   3.838   8.745 -0.2634 -0.9895 -0.3544
  569TIP3    H125902   3.544   3.922   8.699 -1.6907 -0.0202  1.2628
  569TIP3    H225903   3.479   3.785   8.696 -0.0794 -0.8076 -0.8025
  570TIP3   OH225904   4.380   7.385   7.118 -0.7478  0.0902 -0.2057
  570TIP3    H125905   4.298   7.367   7.072 -0.9863 -0.5214  0.4469
  570TIP3    H225906   4.419   7.458   7.069 -1.4131  0.0292 -0.8465
  571TIP3   OH225907   1.623   0.062   8.261 -0.3793  0.1974 -0.2224
  571TIP3    H125908   1.708   0.037   8.227  0.9852  0.1260  2.8715
  571TIP3    H225909   1.618   0.157   8.251  0.8569  0.4261  1.0606
  572TIP3   OH225910   5.101   0.139   8.036 -0.0936  0.2903 -0.1473
  572TIP3    H125911   5.021   0.118   7.988 -0.2952  1.2338 -0.2378
  572TIP3    H225912   5.171   0.108   7.980 -0.3763  0.0152 -0.3533
  573TIP3   OH225913   6.059   0.819   9.460  0.1553 -0.3013  0.3783
  573TIP3    H125914   6.002   0.776   9.524 -0.8161  0.3770 -0.0001
  573TIP3    H225915   6.003   0.833   9.384  1.2959 -1.1022 -0.6433
  574TIP3   OH225916   0.737   7.227   7.559  0.0111  0.4089  0.0014
  574TIP3    H125917   0.763   7.173   7.484  0.7257  2.7409 -1.5234
  574TIP3    H225918   0.672   7.174   7.605 -1.3028 -0.6670 -2.8764
  575TIP3   OH225919   6.835   6.745   8.165 -0.6122 -0.2950 -0.2715
  575TIP3    H125920   6.888   6.724   8.088  0.9585 -4.2801  1.6322
  575TIP3    H225921   6.757   6.689   8.156 -0.9251  0.0028  0.5350
  576TIP3   OH225922   3.933   2.630   8.151  0.1551 -0.4121 -1.1038
  576TIP3    H125923   3.930   2.640   8.246 -0.0670 -1.2545 -1.0134
  576TIP3    H225924   3.991   2.700   8.121 -0.6516  0.5649 -0.4611
  577TIP3   OH225925   0.114   0.674   8.095 -0.2111 -0.3932  0.3802
  577TIP3    H125926   0.123   0.760   8.054  0.2458 -0.2642  0.7501
  577TIP3    H225927   0.203   0.647   8.114 -0.4477 -0.0374  2.1484
  578TIP3   OH225928   0.769   3.953   8.946  0.0434 -0.0550  0.2060
  578TIP3    H125929   0.828   4.002   8.888  0.4012 -0.8408 -0.0966
  578TIP3    H225930   0.824   3.924   9.018  0.0088 -0.6907 -0.0179
  579TIP3   OH225931   0.845   3.420   8.945 -0.1385 -0.5076  0.0402
  579TIP3    H125932   0.818   3.471   9.022 -1.0305 -3.5964  1.9824
  579TIP3    H225933   0.940   3.418   8.950 -0.1879 -0.9626  1.3633
  580TIP3   OH225934   5.251   2.975   8.299  0.1075 -0.2284 -0.3941
  580TIP3    H125935   5.278   3.066   8.316 -0.8501  0.3993 -1.9914
  580TIP3    H225936   5.332   2.931   8.271  0.3444  0.4726 -0.8494
  581TIP3   OH225937   3.832   7.473   7.729 -0.8066 -0.3749 -0.4905
  581TIP3    H125938   3.916   7.500   7.766 -1.2017  0.8503 -0.4675
  581TIP3    H225939   3.821   7.527   7.651 -1.8276 -0.1189 -0.1885
  582TIP3   OH225940   6.726   7.379   6.738  0.3683  0.1487  0.0049
  582TIP3    H125941   6.802   7.437   6.740  0.9721 -0.5649 -1.1931
  582TIP3    H225942   6.751   7.306   6.795  0.3286  0.2072  0.0976
  583TIP3   OH225943   1.877   0.839   7.819  0.0530 -0.5074 -0.2889
  583TIP3    H125944   1.942   0.887   7.768 -0.2354 -1.2014 -1.3468
  583TIP3    H225945   1.906   0.847   7.910  0.4367  0.9854 -0.5175
  584TIP3   OH225946   2.012   0.642   9.238 -0.3580  0.1867 -0.0007
  584TIP3    H125947   2.069   0.598   9.175 -1.1634 -1.0285  0.0846
  584TIP3    H225948   1.994   0.576   9.305  0.4001  1.4136  1.4918
  585TIP3   OH225949   4.272   0.200   8.605  0.8018 -0.4541  0.0037
  585TIP3    H125950   4.285   0.295   8.613 -0.4026  0.1028 -3.1435
  585TIP3    H225951   4.340   0.162   8.660  0.2179  2.1592  2.8706
  586TIP3   OH225952   5.136   2.649   7.452 -0.1180  0.3306  0.1505
  586TIP3    H125953   5.097   2.578   7.504  0.6391 -0.2850 -0.0897
  586TIP3    H225954   5.108   2.729   7.496 -1.8393 -0.0639 -0.1694
  587TIP3   OH225955   2.612   4.688   7.026 -0.6148  0.3615  0.4179
  587TIP3    H125956   2.553   4.614   7.012 -1.4423  0.5445  2.6027
  587TIP3    H225957   2.555   4.764   7.036  0.1561  1.0617 -0.2732
  588TIP3   OH225958   2.162   4.036   7.556 -0.3385 -0.3530  0.3109
  588TIP3    H125959   2.071   4.065   7.555 -0.0509  0.5537 -0.7406
  588TIP3    H225960   2.162   3.961   7.615 -1.7200 -0.2223  0.5114
  589TIP3   OH225961   2.672   3.757   8.860 -0.1672  0.0274 -0.0615
  589TIP3    H125962   2.591   3.726   8.820 -0.5600  0.2213  0.5714
  589TIP3    H225963   2.652   3.764   8.953  0.4103  0.6195  0.0243
  590TIP3   OH225964   5.617   4.690   7.021  0.2167  0.0259  0.8005
  590TIP3    H125965   5.589   4.740   7.098 -1.9456 -1.5861  1.1709
  590TIP3    H225966   5.597   4.599   7.043  2.6843 -0.8859 -0.4003
  591TIP3   OH225967   3.357   5.296   7.414  0.0360 -0.0593 -0.2211
  591TIP3    H125968   3.360   5.266   7.504 -1.0456  0.9729  0.1937
  591TIP3    H225969   3.319   5.224   7.365 -0.0023 -0.3775  0.2751
  592TIP3   OH225970   1.931   6.183   6.903  0.0168  0.5140 -0.0880
  592TIP3    H125971   1.876   6.254   6.867 -0.5170 -0.5370 -1.4122
  592TIP3    H225972   1.962   6.135   6.827  1.1633 -0.1240  0.7505
  593TIP3   OH225973   3.061   1.619   9.591 -0.4703  0.3137 -0.0727
  593TIP3    H125974   3.074   1.710   9.563 -0.4611  0.5687  0.7257
  593TIP3    H225975   2.975   1.596   9.558 -1.6030  1.4901  1.8687
  594TIP3   OH225976   4.447   6.036   8.361  0.0556 -0.0572 -0.1189
  594TIP3    H125977   4.469   6.084   8.281 -0.9059  0.4458 -0.1018
  594TIP3    H225978   4.516   6.059   8.423  0.4511  0.0633 -0.5981
  595TIP3   OH225979   6.510   4.123   8.264 -0.6007  0.0720  0.2445
  595TIP3    H125980   6.593   4.077   8.275 -0.6683  0.0176  0.5340
  595TIP3    H225981   6.500   4.173   8.345 -1.5911 -1.0934  0.8760
  596TIP3   OH225982   4.135   0.604   9.210 -0.4827 -0.3517 -0.4366
  596TIP3    H125983   4.172   0.516   9.221 -0.0162 -0.2437 -1.0681
  596TIP3    H225984   4.192   0.660   9.263 -0.1924 -0.2962 -0.8014
  597TIP3   OH225985   0.646   3.052   7.983 -0.3115 -0.9204  0.0947
  597TIP3    H125986   0.677   3.097   7.904 -0.2593 -0.1941  0.5128
  597TIP3    H225987   0.718   2.994   8.007  0.3294  0.0065  0.4810
  598TIP3   OH225988   5.102   3.457   9.070  0.1069 -0.0654  0.4086
  598TIP3    H125989   5.089   3.505   8.987  0.7826 -0.3182  0.1463
  598TIP3    H225990   5.040   3.497   9.131 -0.2317  0.2887 -0.1576
  599TIP3   OH225991   2.928   0.006   9.560  0.1391 -0.0847  0.1667
  599TIP3    H125992   2.873   0.073   9.602  1.1598 -0.5649  2.4357
  599TIP3    H225993   3.010   0.051   9.542 -0.0263 -0.0931 -0.6147
  600TIP3   OH225994   3.969   2.883   9.104 -0.7575  0.3892 -0.5552
  600TIP3    H125995   4.060   2.867   9.081 -1.0834  1.2121 -2.6614
  600TIP3    H225996   3.940   2.802   9.146  0.8721  0.0767  0.0412
  601TIP3   OH225997   0.296   7.162   7.602 -0.3228  0.2228 -0.2092
  601TIP3    H125998   0.358   7.089   7.605  0.8503  1.1131 -1.5086
  601TIP3    H225999   0.311   7.203   7.517 -1.8554  1.2202 -0.0373
  602TIP3   OH226000   4.605   7.030   7.897 -0.0194 -0.0736 -0.3745
  602TIP3    H126001   4.543   6.966   7.931  0.6384 -0.6233 -0.2004
  602TIP3    H226002   4.568   7.058   7.814 -0.4010 -0.5405 -0.3612
  603TIP3   OH226003   2.728   5.349   7.248 -0.2494 -0.3602 -0.0575
  603TIP3    H126004   2.823   5.339   7.245  0.1858  2.8411 -0.5753
  603TIP3    H226005   2.712   5.401   7.327 -1.6194 -1.0468  0.1522
  604TIP3   OH226006   1.063   4.061   7.629  0.0051 -0.0374 -0.3967
  604TIP3    H126007   1.011   4.049   7.549 -0.6913  0.7713 -0.0903
  604TIP3    H226008   1.014   4.013   7.696 -1.0395  1.7165  0.1488
  605TIP3   OH226009   4.664   4.367   8.496  0.0682 -0.7996  0.0946
  605TIP3    H126010   4.630   4.302   8.435 -1.0846 -0.6506  0.5410
  605TIP3    H226011   4.646   4.331   8.583 -1.5765  0.5351  0.3743
  606TIP3   OH226012   5.215   2.512   7.809 -0.3163 -0.1773  0.2307
  606TIP3    H126013   5.144   2.458   7.774 -0.1321 -0.0060 -0.4092
  606TIP3    H226014   5.294   2.462   7.794 -0.2717 -0.2726  0.7543
  607TIP3   OH226015   5.702   3.209   8.078 -0.1829 -0.2061  0.4708
  607TIP3    H126016   5.738   3.120   8.083  1.4821  0.4347  0.6832
  607TIP3    H226017   5.712   3.243   8.167  2.2552  1.2695 -0.2686
  608TIP3   OH226018   4.724   7.490   9.620  0.1830 -0.5492  0.4755
  608TIP3    H126019   4.741   7.436   9.543  2.6457 -0.3614  0.8000
  608TIP3    H226020   4.718   7.426   9.692  0.6676 -0.5569  0.5121
  609TIP3   OH226021   1.158   5.959   7.621  0.1976 -0.2147 -0.4448
  609TIP3    H126022   1.232   6.018   7.635 -0.0461 -0.1947  0.9311
  609TIP3    H226023   1.198   5.875   7.598  0.6678 -0.2091  0.3149
  610TIP3   OH226024   3.846   6.732   7.558  0.2227 -0.1406  0.1442
  610TIP3    H126025   3.854   6.647   7.600  2.2704 -0.1308 -0.1364
  610TIP3    H226026   3.925   6.779   7.583 -1.4517  2.2258  1.4005
  611TIP3   OH226027   3.568   0.540   8.373  0.4997  0.1560  0.0931
  611TIP3    H126028   3.503   0.592   8.421  0.8206 -1.6715  2.7624
  611TIP3    H226029   3.523   0.511   8.294 -0.8799  1.4145  0.3791
  612TIP3   OH226030   1.472   0.557   6.591  0.1504  0.2338 -0.0412
  612TIP3    H126031   1.466   0.465   6.563 -1.1775  0.7408 -1.5840
  612TIP3    H226032   1.483   0.552   6.686  0.4424 -1.5316 -0.1277
  613TIP3   OH226033   1.118   1.481   8.757  0.4256 -0.1523 -0.2635
  613TIP3    H126034   1.206   1.516   8.749  0.7670 -0.6985  0.8527
  613TIP3    H226035   1.105   1.429   8.677  1.1084 -0.0508 -0.4439
  614TIP3   OH226036   7.053   6.970   8.445  0.5639  0.0824  0.1966
  614TIP3    H126037   6.968   6.941   8.410  0.4254  0.8867 -0.1500
  614TIP3    H226038   7.038   6.982   8.538  0.2610  0.3405  0.1161
  615TIP3   OH226039   5.561   1.486   6.737  0.3974  0.3440 -0.1344
  615TIP3    H126040   5.543   1.576   6.711  0.0421  0.5483  0.7883
  615TIP3    H226041   5.652   1.471   6.711  0.3741  0.8773 -0.5305
  616TIP3   OH226042   2.233   7.395   9.251  0.4389 -0.2325 -0.0532
  616TIP3    H126043   2.199   7.308   9.271  1.3646 -0.5581  0.1577
  616TIP3    H226044   2.194   7.417   9.166 -0.9952 -0.1966  0.5896
  617TIP3   OH226045   3.777   4.334   8.946 -0.2387  0.4647 -0.0094
  617TIP3    H126046   3.755   4.245   8.974 -0.6285  0.3864 -0.5723
  617TIP3    H226047   3.825   4.322   8.864  1.8297  0.6281  1.0924
  618TIP3   OH226048   4.919   5.019   7.663  0.1590 -0.2318  0.2295
  618TIP3    H126049   4.846   5.071   7.629  1.8633  2.0844 -0.0564
  618TIP3    H226050   4.914   4.937   7.614 -2.0818 -0.0574  0.0582
  619TIP3   OH226051   0.083   3.748   9.197  0.1460 -0.0799 -0.0495
  619TIP3    H126052  -0.001   3.765   9.240  0.3970 -0.9173  0.8044
  619TIP3    H226053   0.094   3.821   9.136 -0.6575  0.6473  0.6516
  620TIP3   OH226054   6.128   6.341   7.463  0.4885 -0.2692  0.3982
  620TIP3    H126055   6.112   6.379   7.550 -0.2016 -2.0870  1.1159
  620TIP3    H226056   6.210   6.293   7.473  1.9239  1.8014 -0.8019
  621TIP3   OH226057   0.458   0.952   8.478 -0.0177 -0.4236  0.5074
  621TIP3    H126058   0.521   1.011   8.518  1.9517 -1.6488 -0.6089
  621TIP3    H226059   0.387   1.008   8.448  1.8839  1.4476 -0.7434
  622TIP3   OH226060   0.460   2.253   8.396  0.1091  0.2847 -0.5078
  622TIP3    H126061   0.528   2.186   8.404  0.3819  0.8141  3.3180
  622TIP3    H226062   0.487   2.322   8.457 -2.8198  1.4502 -0.3805
  623TIP3   OH226063   2.425   1.057   9.433 -0.8711 -0.0901 -0.1498
  623TIP3    H126064   2.385   1.001   9.499 -1.8501 -0.3305 -0.9230
  623TIP3    H226065   2.352   1.105   9.393 -0.0495  1.9684  0.6539
  624TIP3   OH226066   6.439   3.173   7.823  0.4760  0.6056  0.3728
  624TIP3    H126067   6.462   3.093   7.776 -1.3479  1.8407 -3.0065
  624TIP3    H226068   6.523   3.205   7.858  1.9503 -0.7386 -1.6726
  625TIP3   OH226069   2.219   0.702   7.517 -0.2346  0.4022  0.1302
  625TIP3    H126070   2.149   0.646   7.484  0.0391  1.0633 -1.6824
  625TIP3    H226071   2.296   0.679   7.464  0.2723  1.3954  0.4099
  626TIP3   OH226072   5.181   4.828   9.063  0.0169  0.1719 -0.4409
  626TIP3    H126073   5.206   4.917   9.086 -0.0138 -0.3440  1.8313
  626TIP3    H226074   5.244   4.773   9.110 -1.0845 -1.0253 -0.3265
  627TIP3   OH226075   4.688   7.306   9.858 -0.4038 -0.1318  0.0035
  627TIP3    H126076   4.595   7.285   9.855 -0.0681 -1.8629  0.5188
  627TIP3    H226077   4.729   7.240   9.802  0.7685 -1.0906  1.9095
  628TIP3   OH226078   5.696   4.710   8.786 -0.5913 -0.1050 -0.1956
  628TIP3    H126079   5.619   4.756   8.819 -0.0809 -0.2672  1.2825
  628TIP3    H226080   5.661   4.648   8.722 -1.5269  0.7489 -0.5397
  629TIP3   OH226081   3.827   0.232   8.026  0.0516 -0.5522 -0.0717
  629TIP3    H126082   3.841   0.307   8.084 -0.8276 -0.6139  0.2224
  629TIP3    H226083   3.892   0.244   7.956 -0.3205  0.6820 -0.2268
  630TIP3   OH226084   6.846   0.583   8.743  0.4596  0.3799  0.6516
  630TIP3    H126085   6.804   0.571   8.658  1.4628 -1.5536  0.3883
  630TIP3    H226086   6.937   0.605   8.722  0.5783  0.4696  1.2315
  631TIP3   OH226087   3.624   2.924   9.343  0.3452 -0.1783 -0.5910
  631TIP3    H126088   3.704   2.877   9.367 -0.1123 -0.1282  1.2240
  631TIP3    H226089   3.650   3.016   9.338  0.1900  0.0073  1.3135
  632TIP3   OH226090   5.407   5.581   9.643 -0.0367  0.0276 -0.0630
  632TIP3    H126091   5.448   5.572   9.557 -0.4398  3.1738 -0.6991
  632TIP3    H226092   5.320   5.545   9.633 -0.6370  1.7271 -1.5261
  633TIP3   OH226093   5.122   6.238   8.853  0.1299 -0.0896 -0.4618
  633TIP3    H126094   5.150   6.313   8.801 -0.0448 -0.0410 -0.4868
  633TIP3    H226095   5.105   6.169   8.789  0.0439 -0.0705 -0.4608
  634TIP3   OH226096   7.020   4.246   8.764  0.2085  0.0692  0.5013
  634TIP3    H126097   6.983   4.276   8.847  0.2662  0.4661  0.3847
  634TIP3    H226098   7.037   4.153   8.778 -0.4489 -0.0256  0.6951
  635TIP3   OH226099   5.269   5.591   7.639 -0.1400  0.1731  0.4874
  635TIP3    H126100   5.289   5.629   7.554  0.5348  1.2153  1.0908
  635TIP3    H226101   5.318   5.644   7.702  0.8046 -1.6444  1.3904
  636TIP3   OH226102   1.634   7.423   7.964 -0.4981 -0.4219  0.0794
  636TIP3    H126103   1.635   7.513   7.932  2.3262 -0.3960 -0.0406
  636TIP3    H226104   1.705   7.380   7.915 -0.4931 -2.1757  1.5279
  637TIP3   OH226105   3.482   1.568   9.369 -0.1607 -0.5579 -0.4127
  637TIP3    H126106   3.420   1.540   9.437  0.3922  0.7782  0.6956
  637TIP3    H226107   3.549   1.617   9.417  1.5705 -1.6404 -1.6267
  638TIP3   OH226108   2.302   2.587   8.571 -0.0059  0.5391 -0.2020
  638TIP3    H126109   2.261   2.570   8.486  1.9084  0.7321 -1.2071
  638TIP3    H226110   2.230   2.581   8.634 -1.2963 -0.5891 -1.7140
  639TIP3   OH226111   0.949   4.051   7.063  0.1045  0.3029  0.6284
  639TIP3    H126112   0.856   4.066   7.050 -0.0643  0.2961  1.7254
  639TIP3    H226113   0.956   4.016   7.152  1.0047 -1.1720  0.0121
  640TIP3   OH226114   4.703   2.698   9.170  0.2382  0.1833  0.2959
  640TIP3    H126115   4.720   2.790   9.149  1.1323  0.0076  0.1923
  640TIP3    H226116   4.614   2.698   9.205  0.0614  1.0215 -0.1001
  641TIP3   OH226117   1.813   0.590   7.799 -0.0693 -0.1575  0.5627
  641TIP3    H126118   1.844   0.681   7.799 -0.1970 -0.1137 -0.2618
  641TIP3    H226119   1.893   0.537   7.801  0.0485 -0.0331 -0.4307
  642TIP3   OH226120   2.588   2.708   9.158  1.1207 -0.5097  0.0841
  642TIP3    H126121   2.527   2.760   9.211  0.5617 -0.8944 -0.1735
  642TIP3    H226122   2.537   2.683   9.081  2.0087  0.2740 -0.7746
  643TIP3   OH226123   4.260   7.502   8.910 -0.6978  0.0312 -0.2289
  643TIP3    H126124   4.267   7.407   8.913 -0.3198  0.0771  0.9638
  643TIP3    H226125   4.166   7.520   8.906 -1.1093 -0.3864  3.7526
  644TIP3   OH226126   5.994   2.667   6.866 -0.7802  0.2613  0.1856
  644TIP3    H126127   5.933   2.732   6.903 -1.3505  0.5076 -1.1108
  644TIP3    H226128   5.951   2.583   6.880 -0.8368  0.3200  0.3675
  645TIP3   OH226129   1.174   6.593   7.779  0.3799 -0.3147  0.2214
  645TIP3    H126130   1.213   6.586   7.866  1.6982 -1.3614 -0.4078
  645TIP3    H226131   1.232   6.654   7.732  1.3245 -1.8420 -0.7077
  646TIP3   OH226132   4.580   3.378   8.861  0.3755  0.1203  0.7351
  646TIP3    H126133   4.675   3.392   8.865  0.5446 -0.6280 -0.3767
  646TIP3    H226134   4.561   3.322   8.936  0.8909 -0.1233  0.6880
  647TIP3   OH226135   0.574   3.313   7.107  0.1699 -0.1873  0.0010
  647TIP3    H126136   0.573   3.335   7.200  1.2587 -1.0928  0.2475
  647TIP3    H226137   0.511   3.242   7.098  1.7545 -1.7476  0.5298
  648TIP3   OH226138   2.188   7.291   7.388 -0.8324  0.1839  0.3502
  648TIP3    H126139   2.140   7.282   7.470  0.1692  1.5625  1.1183
  648TIP3    H226140   2.268   7.338   7.411 -1.9186  3.4319 -1.8879
  649TIP3   OH226141   3.791   3.738   8.752 -0.2936 -0.0471  0.0299
  649TIP3    H126142   3.702   3.772   8.762 -0.7148 -1.4115  1.3506
  649TIP3    H226143   3.834   3.801   8.694 -2.4262  0.0547 -1.5680
  650TIP3   OH226144   6.192   3.998   8.658  0.3378  0.4726  0.5562
  650TIP3    H126145   6.118   4.008   8.719  1.8484  0.5950  2.4522
  650TIP3    H226146   6.237   3.920   8.687  3.2149  2.5251  2.0493
  651TIP3   OH226147   4.596   3.582   7.749 -0.4217  0.0253 -0.1544
  651TIP3    H126148   4.659   3.649   7.725  0.3059 -0.9246 -0.9791
  651TIP3    H226149   4.522   3.631   7.785  0.7202  1.1621  0.7429
  652TIP3   OH226150   4.477   0.347   8.912 -0.2234  0.1722  0.3391
  652TIP3    H126151   4.426   0.279   8.955 -2.1806  0.0882 -1.9437
  652TIP3    H226152   4.551   0.301   8.873  0.4908 -0.0312  1.8613
  653TIP3   OH226153   4.999   6.537   7.815  0.2554  0.0086  0.0501
  653TIP3    H126154   5.062   6.482   7.862  0.5665 -1.7652 -2.2825
  653TIP3    H226155   4.979   6.489   7.735 -2.3276  1.6116 -0.4084
  654TIP3   OH226156   1.943   5.205   7.055  0.5890 -0.2365  0.9448
  654TIP3    H126157   2.019   5.205   6.997 -0.8440  0.3792 -1.0574
  654TIP3    H226158   1.928   5.297   7.076 -1.1165 -0.0135 -0.9122
  655TIP3   OH226159   1.797   3.156   6.749 -0.3030  0.6249  0.1008
  655TIP3    H126160   1.820   3.247   6.767  0.1865  0.8765 -1.6243
  655TIP3    H226161   1.858   3.129   6.680 -0.3808 -1.0476  0.6293
  656TIP3   OH226162   1.366   0.011   7.549 -0.1762 -0.2606 -0.0684
  656TIP3    H126163   1.445  -0.028   7.587  1.1692  2.0043 -0.3714
  656TIP3    H226164   1.366   0.100   7.583 -2.5611 -0.1590 -0.2165
  657TIP3   OH226165   2.576   0.542   9.142 -0.1765 -0.2791 -0.2767
  657TIP3    H126166   2.579   0.587   9.058 -0.7198  0.5320  0.1233
  657TIP3    H226167   2.631   0.465   9.130  1.1779  0.7336 -0.8376
  658TIP3   OH226168   2.562   0.648   8.104 -0.3722  0.8437 -0.4683
  658TIP3    H126169   2.517   0.657   8.188  1.1937 -0.6116  0.6133
  658TIP3    H226170   2.503   0.595   8.050 -1.6153  2.2147 -0.4933
  659TIP3   OH226171   7.071   7.017   8.136  0.3916  0.2169  0.1011
  659TIP3    H126172   7.113   7.080   8.078  0.4561  0.5388  0.4895
  659TIP3    H226173   7.023   7.072   8.199 -2.6215 -0.0812 -1.6994
  660TIP3   OH226174   6.843   3.859   7.961 -0.3777  0.0796  0.6142
  660TIP3    H126175   6.824   3.951   7.980  2.8134  1.1285 -0.5522
  660TIP3    H226176   6.773   3.831   7.903 -0.3821  2.4432 -0.6372
  661TIP3   OH226177   5.582   5.739   6.591  0.0417  0.4148 -0.1740
  661TIP3    H126178   5.658   5.791   6.617  2.1800 -1.1495 -2.7262
  661TIP3    H226179   5.609   5.648   6.604 -0.4167 -0.2752 -3.2646
  662TIP3   OH226180   4.149   2.170   8.106  0.3466 -0.2231  0.5636
  662TIP3    H126181   4.227   2.162   8.160  1.0729 -1.4609 -0.6133
  662TIP3    H226182   4.163   2.109   8.034 -0.2224  1.9486 -1.4870
  663TIP3   OH226183   0.055   6.603   7.951 -0.8207  0.2036  0.5442
  663TIP3    H126184   0.121   6.539   7.979 -1.0718  0.1222  0.9659
  663TIP3    H226185   0.056   6.670   8.020 -1.0826  0.2702  0.4847
  664TIP3   OH226186   6.489   6.965   7.060  0.1574  0.0922  0.3679
  664TIP3    H126187   6.429   6.991   6.990 -0.8823 -1.1750  0.7231
  664TIP3    H226188   6.568   6.937   7.015 -0.3920 -0.4268 -0.3012
  665TIP3   OH226189   5.853   1.167   6.894  0.3533  0.1834  0.2142
  665TIP3    H126190   5.894   1.243   6.853 -0.1746  0.6248  0.4862
  665TIP3    H226191   5.765   1.198   6.919  0.6555 -0.0662  1.6648
  666TIP3   OH226192   3.939   5.342   8.098 -0.1253 -0.3660  0.3159
  666TIP3    H126193   4.016   5.343   8.155  1.7302 -0.4049 -2.0000
  666TIP3    H226194   3.921   5.435   8.081 -1.3047 -0.3239  1.7093
  667TIP3   OH226195   2.699   1.098   8.967  0.1104 -0.7871 -0.2979
  667TIP3    H126196   2.656   1.074   9.049 -1.8339 -1.0433 -1.3267
  667TIP3    H226197   2.720   1.013   8.926  0.2169 -0.6682 -0.4912
  668TIP3   OH226198   4.153   3.739   7.411 -0.3140 -0.0341 -0.2715
  668TIP3    H126199   4.117   3.820   7.373  2.0284  1.8270  1.1662
  668TIP3    H226200   4.150   3.755   7.506  1.5700 -0.9693 -0.0150
  669TIP3   OH226201   2.437   1.526   9.595  0.3891  0.2234 -0.2111
  669TIP3    H126202   2.374   1.481   9.652  1.2571  0.0168  0.6151
  669TIP3    H226203   2.404   1.615   9.588  0.2884  0.2680  0.6765
  670TIP3   OH226204   5.756   4.466   8.157  0.0928  0.5667 -0.0617
  670TIP3    H126205   5.688   4.529   8.133  0.7777  1.6925  0.8941
  670TIP3    H226206   5.834   4.494   8.109 -0.0068 -0.5639 -0.9447
  671TIP3   OH226207   4.926   7.165   9.267  0.4235 -0.2630  0.1809
  671TIP3    H126208   4.974   7.217   9.202 -1.1045 -1.1754 -1.7777
  671TIP3    H226209   4.922   7.077   9.230 -0.8354 -0.7209  1.3082
  672TIP3   OH226210   5.796   2.221   8.141 -0.1676  0.4290  0.3098
  672TIP3    H126211   5.804   2.129   8.114 -0.1564 -0.0288  1.7832
  672TIP3    H226212   5.886   2.249   8.155 -0.1439  0.8169 -0.5964
  673TIP3   OH226213   3.407   3.986   7.058  0.0336 -0.1435  0.5198
  673TIP3    H126214   3.392   4.076   7.085 -0.0004  0.0169 -0.0266
  673TIP3    H226215   3.321   3.945   7.058  0.3001 -0.8460  3.0660
  674TIP3   OH226216   2.171   1.277   8.428 -0.2220  0.3234 -0.5644
  674TIP3    H126217   2.231   1.275   8.503 -2.2050  1.8497  1.1723
  674TIP3    H226218   2.198   1.353   8.377  0.5535 -0.1851 -0.9401
  675TIP3   OH226219   5.370   5.316   8.706  0.3544  0.2202  0.1638
  675TIP3    H126220   5.367   5.371   8.785  2.5458  0.5978  0.0607
  675TIP3    H226221   5.281   5.282   8.697 -0.9991  3.3238  0.5263
  676TIP3   OH226222   5.906   5.307   7.730  0.1872  0.3858 -0.6288
  676TIP3    H126223   5.843   5.361   7.778 -0.6652  0.8193 -2.1582
  676TIP3    H226224   5.852   5.255   7.671  1.2171  0.0717 -1.3152
  677TIP3   OH226225   3.388   0.486   7.371  0.3224  0.5637  0.0137
  677TIP3    H126226   3.428   0.502   7.457  2.6755  0.0468 -0.9018
  677TIP3    H226227   3.445   0.532   7.310 -2.4351  2.6326 -1.1891
  678TIP3   OH226228   3.796   4.939   7.702 -0.0168 -0.7340 -0.0543
  678TIP3    H126229   3.838   4.971   7.782  0.3725 -1.8590  0.2138
  678TIP3    H226230   3.709   4.911   7.731 -0.4137  0.1722 -0.3170
  679TIP3   OH226231   6.025   7.199   7.279 -0.3493  0.1925 -0.3140
  679TIP3    H126232   5.987   7.140   7.213 -1.5880 -1.1614  1.4872
  679TIP3    H226233   5.961   7.269   7.288 -0.4293  0.0978 -0.1590
  680TIP3   OH226234   0.720   3.067   8.296 -0.2790 -0.5798  0.2278
  680TIP3    H126235   0.694   3.073   8.204  1.1742 -0.1461 -0.1867
  680TIP3    H226236   0.640   3.042   8.342 -0.8388 -1.7128 -1.2638
  681TIP3   OH226237   6.490   4.566   9.130  0.5451 -0.0529  0.0891
  681TIP3    H126238   6.431   4.629   9.172 -0.5790 -0.0128 -1.4441
  681TIP3    H226239   6.529   4.615   9.057  1.6193 -0.4135  0.4077
  682TIP3   OH226240   2.003   4.439   9.483 -0.3180  0.2370  0.3818
  682TIP3    H126241   1.938   4.418   9.416 -0.3863  1.6747 -0.0188
  682TIP3    H226242   2.053   4.511   9.447 -0.0038  0.6835  1.6621
  683TIP3   OH226243   5.017   6.521   8.242  0.0481  0.4049 -0.2342
  683TIP3    H126244   4.954   6.589   8.217  2.1369  2.4124 -0.3895
  683TIP3    H226245   5.095   6.541   8.190  0.4781 -2.7401 -1.0136
  684TIP3   OH226246   5.441   1.036   9.682  0.0935 -0.0054 -0.4855
  684TIP3    H126247   5.528   1.043   9.721  0.0436 -0.2418 -0.3309
  684TIP3    H226248   5.440   1.102   9.613  0.1267  0.5284  0.0219
  685TIP3   OH226249   2.978   6.090   9.156 -0.1449 -0.4078 -0.1113
  685TIP3    H126250   3.009   6.140   9.081  0.0319  0.5432  0.5846
  685TIP3    H226251   2.882   6.096   9.151 -0.1278 -0.1261 -0.1137
  686TIP3   OH226252   1.394   0.769   8.904  0.3692 -0.3674 -0.4163
  686TIP3    H126253   1.348   0.695   8.944 -0.9056  0.8111  0.4021
  686TIP3    H226254   1.381   0.757   8.810 -0.8577 -0.5560 -0.2448
  687TIP3   OH226255   2.604   5.959   8.670 -0.0572 -0.0398 -0.2914
  687TIP3    H126256   2.633   5.870   8.688 -3.1201 -0.8453  1.5241
  687TIP3    H226257   2.519   5.949   8.628 -0.6681  2.0037  0.3172
  688TIP3   OH226258   6.597   0.684   8.891 -0.0404  0.6516  0.0580
  688TIP3    H126259   6.606   0.731   8.975 -0.2410  2.8969 -1.0974
  688TIP3    H226260   6.686   0.662   8.866  0.0248 -0.0102  0.8213
  689TIP3   OH226261   7.346   4.442   9.170 -0.1139  0.3928  0.4628
  689TIP3    H126262   7.370   4.395   9.090  0.1873  1.3592 -0.0332
  689TIP3    H226263   7.260   4.480   9.151 -0.9470 -0.9615  1.3185
  690TIP3   OH226264   6.519   6.461   8.909 -0.2296 -0.5553  0.3742
  690TIP3    H126265   6.459   6.493   8.976  0.1583  1.2892 -0.0951
  690TIP3    H226266   6.485   6.375   8.884 -0.7946 -0.9509  2.3849
  691TIP3   OH226267   0.975   7.564   9.065  0.0851 -0.6808  0.2945
  691TIP3    H126268   0.974   7.469   9.051  2.0395 -0.5215 -1.4237
  691TIP3    H226269   0.929   7.600   8.990  1.1719 -0.1996 -0.1522
  692TIP3   OH226270   1.908   2.578   7.840 -0.4566 -0.0984  0.1736
  692TIP3    H126271   1.890   2.648   7.904  0.7468  0.0115  0.4241
  692TIP3    H226272   1.857   2.602   7.763 -0.5899  0.6941  0.4995
  693TIP3   OH226273   1.531   3.146   8.440  0.6362 -0.0442 -0.4236
  693TIP3    H126274   1.483   3.222   8.473  0.6601  0.1692 -0.8769
  693TIP3    H226275   1.614   3.148   8.487  0.0794 -0.6158  0.6259
  694TIP3   OH226276   3.933   0.182   8.785  0.7734  0.5113  0.6173
  694TIP3    H126277   4.005   0.189   8.722 -0.1975 -1.5645 -0.8420
  694TIP3    H226278   3.943   0.259   8.842  1.3454  2.8813 -2.4227
  695TIP3   OH226279   6.231   0.697   9.277 -0.2745  0.1073 -0.1856
  695TIP3    H126280   6.160   0.727   9.335 -2.0243 -1.4090 -1.4073
  695TIP3    H226281   6.292   0.652   9.336 -0.7892  0.6475  0.7899
  696TIP3   OH226282   3.304   4.091   7.888 -0.4230  0.2454  0.1262
  696TIP3    H126283   3.333   4.091   7.797  2.3209 -0.5016  0.9038
  696TIP3    H226284   3.309   4.182   7.915 -1.5846  0.5207 -0.5409
  697TIP3   OH226285   7.072   5.118   8.008  0.2226 -0.4709 -0.8590
  697TIP3    H126286   7.089   5.210   8.030  1.1591 -0.9033  0.2716
  697TIP3    H226287   6.988   5.099   8.051  1.9401 -1.2551  2.4218
  698TIP3   OH226288   5.132   7.460   6.907 -0.3230 -0.7833 -0.1809
  698TIP3    H126289   5.191   7.432   6.837 -0.8171  0.9923 -1.3749
  698TIP3    H226290   5.174   7.429   6.987  1.4410 -0.9057 -1.0916
  699TIP3   OH226291   2.259   6.407   7.936  0.2007  0.2772  0.3255
  699TIP3    H126292   2.213   6.327   7.911  1.1801 -0.2630  0.1907
  699TIP3    H226293   2.191   6.463   7.974 -0.4003 -0.8259  0.9285
  700TIP3   OH226294   2.123   0.472   8.833  0.7179  0.6501 -0.4863
  700TIP3    H126295   2.030   0.472   8.808  0.9381  1.6548 -1.3926
  700TIP3    H226296   2.145   0.380   8.843  0.0308  0.3058 -1.8610
  701TIP3   OH226297   2.859   0.004   8.038  0.3572 -0.8834 -0.0315
  701TIP3    H126298   2.944   0.005   8.082 -0.2569 -0.7225  1.2164
  701TIP3    H226299   2.868  -0.060   7.968  1.3468 -1.2490  0.4133
  702TIP3   OH226300   3.651   2.309   8.542  0.3587 -0.3261 -0.0531
  702TIP3    H126301   3.732   2.331   8.494  0.3745 -0.1604  0.0512
  702TIP3    H226302   3.641   2.214   8.528  1.1812 -0.5636  0.8736
  703TIP3   OH226303   4.615   1.859   9.136  0.0242  1.2336 -0.0295
  703TIP3    H126304   4.548   1.793   9.155  0.5611  0.9500  0.9076
  703TIP3    H226305   4.648   1.835   9.049  0.3158  0.1719  0.3625
  704TIP3   OH226306   5.083   1.996   7.869  0.4703 -0.2169 -0.0005
  704TIP3    H126307   5.013   1.968   7.810  0.2596  0.6067 -0.1613
  704TIP3    H226308   5.091   2.090   7.854  0.7989 -0.0884  0.8807
  705TIP3   OH226309   3.858   5.113   6.953 -0.5997 -0.0070  0.1025
  705TIP3    H126310   3.829   5.133   7.042 -2.4873  0.2751 -0.5443
  705TIP3    H226311   3.835   5.021   6.940  0.6150 -0.3492  0.2367
  706TIP3   OH226312   3.938   5.300   6.770  0.0447 -0.1289 -0.2729
  706TIP3    H126313   3.875   5.232   6.794 -0.5406 -0.1002 -1.6426
  706TIP3    H226314   4.020   5.274   6.813 -1.0409  0.2759  2.2499
  707TIP3   OH226315   1.206   5.492   8.319 -0.2980 -0.2487 -0.3854
  707TIP3    H126316   1.203   5.587   8.328  0.6290 -0.1838 -0.6116
  707TIP3    H226317   1.200   5.459   8.409  1.2506  0.1124 -0.1112
  708TIP3   OH226318   4.170   5.260   8.262  0.4531  0.0390  0.2251
  708TIP3    H126319   4.261   5.289   8.270  0.6721 -0.7673  0.7857
  708TIP3    H226320   4.175   5.164   8.265 -0.4520 -0.0005  0.6508
  709TIP3   OH226321   3.698   3.534   9.342 -0.1329  0.6104 -0.5625
  709TIP3    H126322   3.637   3.607   9.332  0.7340  1.1234 -2.6605
  709TIP3    H226323   3.656   3.460   9.298  0.1049  0.5755 -0.7375
  710TIP3   OH226324   1.797   4.919   8.563 -0.5218 -0.1739 -0.1728
  710TIP3    H126325   1.724   4.896   8.620  0.7802 -1.4148  1.0757
  710TIP3    H226326   1.836   4.996   8.603  0.1901 -0.8488  0.4730
  711TIP3   OH226327   6.867   3.595   9.077 -0.0001  1.4227 -0.5240
  711TIP3    H126328   6.826   3.676   9.106 -1.7287  0.6438 -0.6210
  711TIP3    H226329   6.796   3.530   9.081  1.5434 -0.3199  0.5007
  712TIP3   OH226330   6.808   1.080   8.948  0.5777  0.2012 -0.1682
  712TIP3    H126331   6.867   1.032   9.006 -0.3730  1.1320  1.6540
  712TIP3    H226332   6.798   1.166   8.989 -3.6536 -0.5770  0.8721
  713TIP3   OH226333   3.428   6.955   8.848 -0.0135  0.0818  0.3462
  713TIP3    H126334   3.407   6.871   8.890  1.6524 -0.5938 -0.0977
  713TIP3    H226335   3.458   7.011   8.920  0.0335 -0.0937  0.4624
  714TIP3   OH226336   7.243   5.812   7.537  0.0833 -0.1607 -0.3046
  714TIP3    H126337   7.276   5.748   7.599  1.4700  0.6482 -0.1657
  714TIP3    H226338   7.156   5.834   7.571  1.0703  0.8100  1.8514
  715TIP3   OH226339   0.255   4.350   6.744 -0.1593 -0.1631 -0.2790
  715TIP3    H126340   0.303   4.271   6.770 -0.6268 -0.0877  0.8876
  715TIP3    H226341   0.306   4.422   6.781 -2.0257 -0.1541  2.6004
  716TIP3   OH226342   6.408   4.367   8.085  0.7179  0.3500  0.4405
  716TIP3    H126343   6.445   4.308   8.151  0.4481  0.7514  0.9587
  716TIP3    H226344   6.465   4.358   8.009 -0.2710 -1.8580 -0.1142
  717TIP3   OH226345   2.530   6.177   7.395 -0.3841 -0.6970  0.4364
  717TIP3    H126346   2.604   6.157   7.336 -0.2854  0.1124  0.2774
  717TIP3    H226347   2.465   6.218   7.338 -0.0158  0.7160  1.0111
  718TIP3   OH226348   4.128   7.178   8.800 -0.4655 -0.0178  0.2501
  718TIP3    H126349   4.198   7.135   8.749  0.5216 -1.0643  2.3640
  718TIP3    H226350   4.092   7.243   8.739  1.0447 -0.7538 -1.5723
  719TIP3   OH226351   5.229   1.600   9.038 -0.1070 -0.3886 -0.4742
  719TIP3    H126352   5.203   1.618   9.128 -2.4156  1.0940 -1.3379
  719TIP3    H226353   5.294   1.667   9.018  0.5223 -0.8144  0.1101
  720TIP3   OH226354   1.862   1.480   8.005 -0.0214  0.0800 -0.0342
  720TIP3    H126355   1.878   1.386   7.993  1.6281  0.2462  0.5556
  720TIP3    H226356   1.893   1.519   7.923 -1.4121  0.0730 -0.5898
  721TIP3   OH226357   6.309   2.487   7.821  0.0937  0.0638 -0.0410
  721TIP3    H126358   6.393   2.524   7.847  0.2846 -0.1988 -0.2760
  721TIP3    H226359   6.249   2.561   7.819  0.0533  0.0877  1.2143
  722TIP3   OH226360   6.269   7.320   7.368  0.1109  0.3807  0.2954
  722TIP3    H126361   6.175   7.306   7.379  0.2182  0.3700  1.3050
  722TIP3    H226362   6.309   7.264   7.434  0.8666 -0.1166 -0.5597
  723TIP3   OH226363   3.906   3.857   8.330  0.3147  0.1876  0.1431
  723TIP3    H126364   3.865   3.812   8.256 -0.1706  1.9908 -0.7423
  723TIP3    H226365   3.865   3.817   8.407  0.3151 -1.2401 -0.5639
  724TIP3   OH226366   7.468   3.868   7.548  0.0486  0.2996  0.1172
  724TIP3    H126367   7.424   3.948   7.576 -4.4288 -1.5871 -0.5595
  724TIP3    H226368   7.427   3.846   7.464 -1.9827 -4.4526  1.9429
  725TIP3   OH226369   0.353   3.663   8.331  0.2485  0.3293 -0.3048
  725TIP3    H126370   0.340   3.569   8.327 -0.2802  0.4265 -0.9726
  725TIP3    H226371   0.436   3.674   8.378  0.8383 -0.5045 -1.1176
  726TIP3   OH226372   6.312   6.703   9.173  0.0354  0.1684  0.3547
  726TIP3    H126373   6.347   6.792   9.179  1.1823 -0.2090 -0.3495
  726TIP3    H226374   6.378   6.648   9.216  0.1996 -0.5229 -0.7205
  727TIP3   OH226375   2.103   2.376   9.179 -0.4687  0.3171 -0.1834
  727TIP3    H126376   2.177   2.393   9.121 -2.7507  1.5921 -3.0005
  727TIP3    H226377   2.064   2.462   9.194 -0.4507 -0.0783  2.7334
  728TIP3   OH226378   5.009   2.976   8.200 -0.1153  0.6745 -0.0167
  728TIP3    H126379   4.995   3.055   8.149 -0.3009  1.3547  1.0646
  728TIP3    H226380   5.098   2.985   8.235  0.0021  0.2248 -0.1887
  729TIP3   OH226381   6.476   0.207   7.291 -0.2749  0.3592 -0.2374
  729TIP3    H126382   6.473   0.175   7.201 -0.5586  2.4838 -1.0628
  729TIP3    H226383   6.553   0.264   7.294  1.7396 -2.2148  1.8806
  730TIP3   OH226384   1.767   3.776   7.106 -0.3074 -0.0463 -0.3899
  730TIP3    H126385   1.687   3.806   7.061 -1.8582 -0.4454  1.9080
  730TIP3    H226386   1.804   3.711   7.047 -2.8514 -1.3632 -0.6813
  731TIP3   OH226387   5.046   3.562   9.595  0.2105 -0.3509 -0.0166
  731TIP3    H126388   4.996   3.531   9.520  1.5938  0.2353 -1.2289
  731TIP3    H226389   5.075   3.649   9.570  0.6051 -0.0991  1.2565
  732TIP3   OH226390   6.000   0.053   6.902 -0.2298 -0.5716 -0.1768
  732TIP3    H126391   6.091   0.057   6.931 -0.6194  0.3326  0.9587
  732TIP3    H226392   5.961  -0.017   6.954 -1.0100  1.2616  1.8206
  733TIP3   OH226393   1.899   5.197   6.628 -0.0331 -0.2892  0.2498
  733TIP3    H126394   1.953   5.134   6.674 -1.2168 -1.1589  0.5038
  733TIP3    H226395   1.890   5.162   6.539  0.4423  0.2483 -0.0172
  734TIP3   OH226396   0.442   3.083   7.179 -0.4207 -0.9048 -0.3433
  734TIP3    H126397   0.359   3.049   7.145 -1.5771  1.9255 -0.6262
  734TIP3    H226398   0.422   3.109   7.269  0.2411 -0.5069 -0.3060
  735TIP3   OH226399   4.850   5.465   7.058 -0.8317 -0.3337 -0.5293
  735TIP3    H126400   4.908   5.475   6.983  0.7753 -0.1410  0.7039
  735TIP3    H226401   4.803   5.548   7.064 -0.2546  0.0058 -0.7269
  736TIP3   OH226402   7.392   6.412   8.537 -0.3545 -0.6724 -0.2619
  736TIP3    H126403   7.315   6.447   8.581  0.6702 -0.4648  1.4726
  736TIP3    H226404   7.435   6.358   8.603  0.3870 -1.7293 -1.5586
  737TIP3   OH226405   6.094   7.269   7.568 -0.1317 -0.0786  0.0483
  737TIP3    H126406   6.125   7.218   7.642 -1.8895 -1.4619 -0.1151
  737TIP3    H226407   6.117   7.359   7.589  0.7149 -0.6243  1.5629
  738TIP3   OH226408   7.258   4.727   8.292  0.2928  0.8250 -0.1410
  738TIP3    H126409   7.308   4.808   8.300  0.8772  0.8171 -2.7848
  738TIP3    H226410   7.198   4.743   8.219 -2.3160  0.1543  1.7152
  739TIP3   OH226411   7.319   1.161   8.552 -0.1910  0.1434 -0.0861
  739TIP3    H126412   7.228   1.183   8.532  0.1754  0.8146 -1.1027
  739TIP3    H226413   7.366   1.244   8.542  0.8116 -0.5521 -1.4189
  740TIP3   OH226414   1.588   1.603   8.102 -0.1505  1.0108 -0.8847
  740TIP3    H126415   1.535   1.675   8.137  0.6620  1.1820  0.0529
  740TIP3    H226416   1.666   1.647   8.066 -0.0321  0.6559 -1.0668
  741TIP3   OH226417   2.142   2.528   8.335  0.3854  0.0398  0.1581
  741TIP3    H126418   2.191   2.585   8.276  0.5468 -1.4348 -1.2200
  741TIP3    H226419   2.097   2.466   8.276  0.9882 -1.8381  1.5900
  742TIP3   OH226420   4.270   5.883   8.711 -0.0865  0.1127  0.2070
  742TIP3    H126421   4.361   5.883   8.742  0.6554  1.7680 -1.7302
  742TIP3    H226422   4.237   5.796   8.732  2.4250 -1.0577 -0.3449
  743TIP3   OH226423   6.322   2.657   6.440  0.2456 -0.3133 -0.2784
  743TIP3    H126424   6.268   2.646   6.518  0.2187 -2.2816 -0.5122
  743TIP3    H226425   6.285   2.595   6.376  0.5009  0.9656 -1.7302
  744TIP3   OH226426   4.501   3.227   7.296 -0.4381 -0.7179 -0.0866
  744TIP3    H126427   4.527   3.269   7.214 -1.0207 -0.2698 -0.0546
  744TIP3    H226428   4.422   3.177   7.274 -0.6828 -0.4754  0.2268
  745TIP3   OH226429   5.485   6.027   9.458  0.0654 -0.3746 -0.7924
  745TIP3    H126430   5.419   5.962   9.483 -0.2076  0.2725  0.2552
  745TIP3    H226431   5.550   5.978   9.408 -0.5009 -1.2992 -0.6498
  746TIP3   OH226432   2.006   1.526   6.927 -0.3326  0.7033 -0.1253
  746TIP3    H126433   1.964   1.585   6.989 -0.0939  1.2534 -0.4676
  746TIP3    H226434   1.952   1.532   6.848  0.0672  0.9872 -0.3829
  747TIP3   OH226435   5.545   5.661   9.881  0.1915 -0.1976  0.1725
  747TIP3    H126436   5.475   5.690   9.940  1.7360 -2.2569  3.2859
  747TIP3    H226437   5.500   5.633   9.802 -2.2353  0.8744  1.0883
  748TIP3   OH226438   3.377   3.029   7.778 -0.2577  0.0870  0.4034
  748TIP3    H126439   3.284   3.033   7.756 -0.5332 -2.8202  0.6570
  748TIP3    H226440   3.422   3.064   7.701 -1.5022  0.8381 -0.0079
  749TIP3   OH226441   0.539   7.305   7.077 -0.6341 -0.3660 -0.0610
  749TIP3    H126442   0.445   7.318   7.088 -0.4436 -0.5798  2.4330
  749TIP3    H226443   0.547   7.219   7.036 -1.5253  0.1315 -1.3216
  750TIP3   OH226444   7.403   6.420   7.268 -0.2725  0.2628 -0.0339
  750TIP3    H126445   7.407   6.341   7.320 -1.2070  0.9565  1.1466
  750TIP3    H226446   7.332   6.404   7.205 -0.1013 -0.0410 -0.1471
  751TIP3   OH226447   1.653   0.366   7.066  0.7702 -0.4627 -0.7973
  751TIP3    H126448   1.702   0.389   6.987  0.5873 -0.3697 -0.8829
  751TIP3    H226449   1.572   0.327   7.034 -0.4599  1.8780 -0.6928
  752TIP3   OH226450   6.210   5.011   8.927 -0.4796  0.1453 -0.8333
  752TIP3    H126451   6.302   5.003   8.952 -0.8067 -0.1620  0.3002
  752TIP3    H226452   6.192   5.105   8.932 -0.5384  0.0874  0.0841
  753TIP3   OH226453   2.759   1.468   8.912 -0.3450 -0.0637 -0.3117
  753TIP3    H126454   2.817   1.543   8.904 -0.2452 -0.0752  0.3015
  753TIP3    H226455   2.671   1.504   8.899 -0.2910  0.1444 -0.1105
  754TIP3   OH226456   4.754   5.649   7.724  0.1369 -0.1115 -0.0444
  754TIP3    H126457   4.684   5.585   7.736 -1.2481  1.0810 -1.3760
  754TIP3    H226458   4.807   5.613   7.653 -0.0481 -0.2688 -0.1051
  755TIP3   OH226459   4.139   1.154   9.197  0.3727 -0.1203  0.7290
  755TIP3    H126460   4.064   1.206   9.169  1.3856  1.8609  1.5477
  755TIP3    H226461   4.101   1.086   9.253 -1.1285 -1.2094 -1.4517
  756TIP3   OH226462   5.065   4.218   7.627  0.0536 -0.4228 -0.7401
  756TIP3    H126463   5.130   4.200   7.695  0.8264  1.0588 -1.0459
  756TIP3    H226464   5.093   4.301   7.589  0.4857 -1.8395 -3.8645
  757TIP3   OH226465   2.565   4.254   9.028  0.0556 -0.2710  0.1827
  757TIP3    H126466   2.602   4.319   9.088 -2.1627  0.4977  0.7858
  757TIP3    H226467   2.599   4.170   9.060 -0.8304  0.1382  2.3885
  758TIP3   OH226468   7.214   2.036   9.457  0.1148  0.1950 -0.0218
  758TIP3    H126469   7.210   2.092   9.535 -1.1079 -1.3903  1.1387
  758TIP3    H226470   7.269   1.962   9.484 -1.7290 -1.2472  0.0230
  759TIP3   OH226471   1.440   3.391   8.568 -1.4315  0.0057 -0.2677
  759TIP3    H126472   1.389   3.408   8.648 -0.9370 -0.1226  0.0799
  759TIP3    H226473   1.436   3.473   8.519 -0.4738  0.5834  0.5973
  760TIP3   OH226474   2.398   2.781   8.395  0.2794 -0.4698 -0.1528
  760TIP3    H126475   2.471   2.720   8.386  0.0183 -0.8743  0.4601
  760TIP3    H226476   2.348   2.749   8.469  0.9932  1.3419  1.2026
  761TIP3   OH226477   3.663   1.993   8.772  0.7128 -0.0525 -0.2988
  761TIP3    H126478   3.743   2.043   8.753  1.7790 -1.8501 -0.7716
  761TIP3    H226479   3.639   1.954   8.688  0.6398 -1.3439  0.3048
  762TIP3   OH226480   0.867   4.568   8.894  0.0839  0.0171 -0.4699
  762TIP3    H126481   0.916   4.617   8.960  1.2114  0.5233 -1.6528
  762TIP3    H226482   0.806   4.631   8.857 -0.2280 -0.1457 -0.2357
  763TIP3   OH226483   5.866   3.297   8.809  0.1176  0.8048 -0.2929
  763TIP3    H126484   5.922   3.351   8.754 -0.3626  1.5062 -0.1065
  763TIP3    H226485   5.832   3.229   8.751  0.7182  0.7118 -0.5323
  764TIP3   OH226486   1.644   5.322   8.124  0.0843 -0.6119  0.2485
  764TIP3    H126487   1.624   5.405   8.081  0.3802 -0.7506 -0.1644
  764TIP3    H226488   1.696   5.273   8.060  1.6657 -0.3016  1.2414
  765TIP3   OH226489   1.385   5.048   8.089  0.0466  0.0417  0.7338
  765TIP3    H126490   1.382   4.965   8.042  1.2233  1.1931 -1.5011
  765TIP3    H226491   1.302   5.051   8.138  0.2334 -2.6747  1.4070
  766TIP3   OH226492   5.212   3.647   8.536 -0.1777 -0.4130 -0.2841
  766TIP3    H126493   5.139   3.585   8.536  0.3191 -1.0458  0.9511
  766TIP3    H226494   5.288   3.594   8.515  0.2352 -0.2141  0.6631
  767TIP3   OH226495   4.041   5.499   9.501 -0.0471  0.3483 -0.2093
  767TIP3    H126496   4.001   5.573   9.455  0.5410  0.7176 -0.1335
  767TIP3    H226497   4.124   5.533   9.533 -0.8376  0.3780  1.9216
  768TIP3   OH226498   7.103   3.237   7.405  0.2166  0.5048  0.1607
  768TIP3    H126499   7.165   3.222   7.477  0.3734  4.7374  1.1407
  768TIP3    H226500   7.018   3.243   7.447  0.1718  1.9417 -0.0748
  769TIP3   OH226501   3.282   6.679   8.957  0.0470  0.2992 -0.6336
  769TIP3    H126502   3.203   6.707   9.002 -0.5124 -0.6830 -0.9720
  769TIP3    H226503   3.331   6.629   9.022  0.5905  1.2380 -0.3080
  770TIP3   OH226504   2.129   2.979   9.506 -0.3610  0.0286  0.1065
  770TIP3    H126505   2.224   2.969   9.511 -0.3801  0.5058  3.0834
  770TIP3    H226506   2.105   2.934   9.425  2.4585  0.6932 -1.2579
  771TIP3   OH226507   2.929   3.250   9.080  0.0629 -0.0247 -0.9478
  771TIP3    H126508   2.988   3.252   9.005  2.8394 -3.1756  0.8709
  771TIP3    H226509   2.916   3.157   9.097 -2.2737  0.5980  1.1961
  772TIP3   OH226510   4.492   6.873   7.567  0.0894  0.0611 -0.3084
  772TIP3    H126511   4.498   6.809   7.496  0.0286 -0.6137  0.2893
  772TIP3    H226512   4.500   6.821   7.647  0.9231  0.9047  0.1714
  773TIP3   OH226513   1.087   3.721   7.535  0.8438 -0.4047 -0.0613
  773TIP3    H126514   1.138   3.643   7.516  0.4027 -1.0474  1.2541
  773TIP3    H226515   1.031   3.733   7.458  2.6131  0.0760 -1.3448
  774TIP3   OH226516   3.751   0.449   8.748  0.4480  0.0896 -0.1306
  774TIP3    H126517   3.811   0.432   8.675  0.2420  0.4343 -0.3852
  774TIP3    H226518   3.806   0.491   8.814  0.4366  0.6278 -0.4604
  775TIP3   OH226519   5.803   0.805   7.056 -0.3704  0.4030 -0.0598
  775TIP3    H126520   5.884   0.757   7.072 -1.5858 -1.8694 -0.2799
  775TIP3    H226521   5.776   0.836   7.143 -0.4314 -0.8695  0.4023
  776TIP3   OH226522   4.056   1.715   8.992  0.2063  0.3662 -0.4659
  776TIP3    H126523   3.971   1.754   8.971  1.1807  0.7353 -4.5373
  776TIP3    H226524   4.097   1.777   9.053 -1.5404  1.2987 -0.1881
  777TIP3   OH226525   3.069   7.356   8.098  0.5790 -0.0016 -0.2487
  777TIP3    H126526   3.090   7.273   8.139  0.1392 -0.6619 -1.3046
  777TIP3    H226527   3.146   7.376   8.043  0.4686  0.0222 -0.3972
  778TIP3   OH226528   3.904   2.094   9.533 -0.1615 -0.5824 -0.0706
  778TIP3    H126529   3.864   2.181   9.533 -0.9779 -0.9144  1.2424
  778TIP3    H226530   3.847   2.041   9.478 -1.5283 -1.0088  1.6482
  779TIP3   OH226531   6.216   5.731   7.904  0.1662 -0.1288  0.8350
  779TIP3    H126532   6.203   5.673   7.829 -0.7815  1.0628  0.0449
  779TIP3    H226533   6.309   5.723   7.925  0.5117 -0.2868 -0.6452
  780TIP3   OH226534   4.192   5.267   6.886  0.2228 -0.1228  0.3998
  780TIP3    H126535   4.230   5.179   6.888  0.5332  0.0174  1.2051
  780TIP3    H226536   4.262   5.324   6.916 -0.2160  0.3031  0.6238
  781TIP3   OH226537   4.069   6.348   9.141  0.2849  0.0582 -0.0612
  781TIP3    H126538   4.017   6.297   9.079 -1.5247  1.1485  0.5070
  781TIP3    H226539   4.017   6.425   9.159  2.1617  1.2770  0.4776
  782TIP3   OH226540   4.495   4.410   7.726  0.5666 -0.0757  0.4401
  782TIP3    H126541   4.408   4.380   7.700 -0.0063  1.2835  0.7147
  782TIP3    H226542   4.548   4.331   7.730 -0.3819 -0.8028 -0.7948
  783TIP3   OH226543   5.016   6.289   8.392  0.1828 -0.0469  0.2136
  783TIP3    H126544   5.012   6.376   8.353  0.5523 -0.5577 -1.0241
  783TIP3    H226545   4.982   6.231   8.324  0.5541 -0.9439  0.7749
  784TIP3   OH226546   0.940   5.372   8.546 -0.5131 -0.1588 -0.1164
  784TIP3    H126547   0.856   5.327   8.548  0.0399 -1.2217  0.1542
  784TIP3    H226548   0.979   5.355   8.632  0.5024 -0.7527 -0.6639
  785TIP3   OH226549   0.909   7.308   7.789  0.3319  0.0815  0.5901
  785TIP3    H126550   0.996   7.268   7.795  0.5241  0.5061  0.6606
  785TIP3    H226551   0.881   7.292   7.699  0.8151  0.6147  0.3371
  786TIP3   OH226552   6.347   3.455   9.121 -0.2594  0.0223 -0.1359
  786TIP3    H126553   6.291   3.453   9.198 -0.0234  2.4131  0.1835
  786TIP3    H226554   6.291   3.427   9.049 -1.5246  1.1280  0.3775
  787TIP3   OH226555   0.912   3.565   9.203 -0.0701 -0.3913 -0.6200
  787TIP3    H126556   0.817   3.565   9.215 -0.0773 -0.4799 -0.6705
  787TIP3    H226557   0.931   3.647   9.158 -0.0678 -0.1590 -0.2020
  788TIP3   OH226558   1.397   5.246   6.754 -0.0832  0.3778 -0.2360
  788TIP3    H126559   1.330   5.180   6.773 -0.3308  0.4895 -0.7042
  788TIP3    H226560   1.477   5.196   6.743 -0.2932  0.1377 -0.7007
  789TIP3   OH226561   2.789   1.593   9.512  0.4682  0.0028  0.5294
  789TIP3    H126562   2.715   1.533   9.499  0.8790 -0.0085 -2.6330
  789TIP3    H226563   2.753   1.680   9.496  0.7688  0.1702  0.7460
  790TIP3   OH226564   3.831   7.423   6.828 -0.4714  0.0304  0.2098
  790TIP3    H126565   3.832   7.396   6.920 -3.3592 -1.0073  0.0608
  790TIP3    H226566   3.844   7.342   6.779 -0.6299  0.2906 -0.2703
  791TIP3   OH226567   0.010   4.826   8.415 -0.1298 -0.3900  0.6271
  791TIP3    H126568   0.001   4.794   8.505 -0.7170 -0.4406  0.5553
  791TIP3    H226569   0.073   4.766   8.374  0.9522  0.2585  1.2917
  792TIP3   OH226570   1.114   1.702   6.771 -0.1411 -0.1655  0.1206
  792TIP3    H126571   1.182   1.754   6.813 -1.9129  0.7883  1.9879
  792TIP3    H226572   1.059   1.766   6.725 -0.8296 -0.6889  0.1866
  793TIP3   OH226573   0.807   7.345   8.802 -0.5182 -0.1036 -0.6676
  793TIP3    H126574   0.770   7.403   8.736  0.6685  1.8781  0.3179
  793TIP3    H226575   0.866   7.287   8.753 -2.1378 -0.8939 -1.7442
  794TIP3   OH226576   4.517   0.101   9.699 -0.1314  0.6670 -0.3342
  794TIP3    H126577   4.459   0.090   9.624  0.7991  0.3187 -1.0233
  794TIP3    H226578   4.574   0.024   9.698 -1.4008 -0.4298  1.9677
  795TIP3   OH226579   2.632   6.654   8.681 -0.1821  0.8518  0.2710
  795TIP3    H126580   2.649   6.560   8.682 -0.1756  0.8535  0.6086
  795TIP3    H226581   2.652   6.682   8.592 -0.3506  0.5031  0.1237
  796TIP3   OH226582   4.063   5.824   6.828  0.4001 -0.0621  0.6635
  796TIP3    H126583   4.157   5.815   6.844  0.1021 -2.5715  1.3590
  796TIP3    H226584   4.029   5.735   6.828 -2.2970  0.8186  2.2436
  797TIP3   OH226585   4.320   3.055   8.413 -0.2640 -0.3189 -0.1989
  797TIP3    H126586   4.305   2.987   8.479 -2.4120  0.1872 -0.0826
  797TIP3    H226587   4.323   3.007   8.330 -0.5389 -0.6886 -0.0003
  798TIP3   OH226588   5.082   1.046   8.156 -0.4857  0.0317  0.4681
  798TIP3    H126589   5.086   0.978   8.088  1.3826  1.0959 -0.5423
  798TIP3    H226590   5.106   1.127   8.111 -0.2817  0.9552  2.1690
  799TIP3   OH226591   5.014   7.142   7.621 -0.1543 -0.3760  0.0486
  799TIP3    H126592   5.038   7.212   7.681 -1.0562  0.6254 -0.7263
  799TIP3    H226593   4.967   7.078   7.675  0.0285 -0.0293  0.6166
  800TIP3   OH226594   4.260   0.383   9.315  0.4787  0.0100  0.2305
  800TIP3    H126595   4.208   0.307   9.343 -0.2587  0.5717  0.4057
  800TIP3    H226596   4.275   0.432   9.396 -1.4430  1.5132 -0.2516
  801TIP3   OH226597   4.341   6.956   8.369  0.5463  0.3632  0.8209
  801TIP3    H126598   4.356   6.888   8.434  1.2025 -0.2493  0.0636
  801TIP3    H226599   4.248   6.976   8.375  0.2211 -1.0201  0.6684
  802TIP3   OH226600   2.435   6.162   8.300  0.2956 -0.4993  0.4154
  802TIP3    H126601   2.406   6.253   8.305  0.4121 -0.5413  2.9090
  802TIP3    H226602   2.511   6.158   8.359 -0.4318 -2.4467  1.2817
  803TIP3   OH226603   4.107   5.993   9.048 -0.3199  0.0098  0.0423
  803TIP3    H126604   4.097   5.899   9.034 -3.3083  0.1840  0.3824
  803TIP3    H226605   4.097   6.004   9.143 -0.4991  0.7278 -0.0562
  804TIP3   OH226606   4.456   5.891   9.228 -0.1540  0.3945  0.0197
  804TIP3    H126607   4.415   5.814   9.266 -0.0873  0.9081  1.1902
  804TIP3    H226608   4.549   5.869   9.221 -0.0876  0.4614  0.6272
  805TIP3   OH226609   2.049   5.799   8.964 -0.1743 -0.5753  0.2301
  805TIP3    H126610   2.129   5.764   9.003  0.9683  0.9219 -0.6331
  805TIP3    H226611   2.012   5.725   8.915  0.8932 -1.1966  0.3302
  806TIP3   OH226612   5.152   3.827   9.504  0.0544 -0.3894 -0.5289
  806TIP3    H126613   5.220   3.813   9.438 -1.1750  0.7113 -2.1220
  806TIP3    H226614   5.186   3.898   9.559  0.1323  0.3197 -1.4582
  807TIP3   OH226615   7.545   1.076   7.668  0.3023 -0.2494  0.0121
  807TIP3    H126616   7.477   1.060   7.603 -0.4455 -0.2415  0.7686
  807TIP3    H226617   7.606   1.003   7.658  0.1753 -0.2725 -0.6538
  808TIP3   OH226618   1.208   1.017   9.283 -0.2208 -0.5215 -0.2330
  808TIP3    H126619   1.252   0.937   9.313 -1.0705 -1.0908 -0.4355
  808TIP3    H226620   1.118   1.007   9.315  0.5106  2.2665  3.3040
  809TIP3   OH226621   3.288   2.404   8.804  0.1829  0.1865 -0.0949
  809TIP3    H126622   3.336   2.486   8.794  0.9760 -0.3967 -1.3697
  809TIP3    H226623   3.197   2.427   8.791  0.2901  1.0110  0.5278
  810TIP3   OH226624   0.969   1.139   8.991 -0.6088 -0.3126  0.2583
  810TIP3    H126625   0.919   1.065   8.957 -1.7407  0.1209  0.9229
  810TIP3    H226626   1.034   1.098   9.049  1.0182 -1.0091 -1.9185
  811TIP3   OH226627   2.984   0.262   7.268 -0.6245 -0.0992  0.3064
  811TIP3    H126628   2.939   0.344   7.288 -0.2475 -0.2818  2.0332
  811TIP3    H226629   3.063   0.264   7.321  0.2477 -0.8540 -0.8976
  812TIP3   OH226630   7.355   2.450   8.579  0.2630 -0.2485  0.5374
  812TIP3    H126631   7.407   2.504   8.519  1.4683 -1.0171  0.8473
  812TIP3    H226632   7.365   2.361   8.546  0.1451 -0.5559  1.3074
  813TIP3   OH226633   3.806   5.043   9.536 -0.0125  0.2235 -1.0323
  813TIP3    H126634   3.892   5.056   9.577 -0.8310  1.2387  0.4583
  813TIP3    H226635   3.798   5.116   9.473  0.5950 -0.4396 -1.9075
  814TIP3   OH226636   0.354   5.820   8.727  0.3313 -0.4805 -0.1111
  814TIP3    H126637   0.439   5.784   8.751  0.9468  0.7562 -0.3623
  814TIP3    H226638   0.371   5.876   8.652 -0.5196  0.5979  0.4665
  815TIP3   OH226639   2.364   0.702   8.315  0.4390 -0.7421  0.0974
  815TIP3    H126640   2.401   0.749   8.390 -0.1354  1.1110 -0.7238
  815TIP3    H226641   2.307   0.636   8.354  0.1263  0.2042  1.3042
  816TIP3   OH226642   0.762   0.976   8.705 -0.1010 -0.3210 -0.1103
  816TIP3    H126643   0.712   1.048   8.665  0.7181 -0.1073 -0.7936
  816TIP3    H226644   0.748   0.987   8.799  0.0577  0.7835 -0.1921
  817TIP3   OH226645   4.653   5.158   7.973 -0.3714 -0.0121  0.3516
  817TIP3    H126646   4.571   5.180   7.928 -1.0567 -0.6630  1.2393
  817TIP3    H226647   4.627   5.147   8.064  0.6014 -0.8404  0.5379
  818TIP3   OH226648   2.664   0.989   8.453 -1.4931  0.1753  0.6112
  818TIP3    H126649   2.713   0.915   8.419 -0.6282  0.6734  0.7380
  818TIP3    H226650   2.575   0.956   8.465 -1.0787 -0.8834  0.8431
  819TIP3   OH226651   2.736   0.348   8.730 -0.0401  0.1384 -0.7293
  819TIP3    H126652   2.769   0.297   8.805  1.0544 -1.4763 -2.2330
  819TIP3    H226653   2.654   0.385   8.761  0.2918 -0.6240  1.2237
  820TIP3   OH226654   5.307   3.401   7.124  0.5841 -0.0737  0.0046
  820TIP3    H126655   5.238   3.402   7.190  0.3911  0.9821 -0.1875
  820TIP3    H226656   5.319   3.309   7.102 -1.6849 -0.2148 -0.9179
  821TIP3   OH226657   1.856   0.562   7.242 -0.4245 -0.1613  0.3795
  821TIP3    H126658   1.898   0.492   7.291  1.5457 -0.1857 -1.2276
  821TIP3    H226659   1.768   0.568   7.280  0.6595 -0.7431  3.2561
  822TIP3   OH226660   6.125   1.908   9.005 -0.7902  0.6375  0.2576
  822TIP3    H126661   6.052   1.969   9.002  0.3200  2.0567  0.6724
  822TIP3    H226662   6.180   1.939   9.077  0.4455 -0.0975 -0.3187
  823TIP3   OH226663   6.321   3.036   7.321  0.8240 -0.7094 -0.1160
  823TIP3    H126664   6.330   2.941   7.322  1.0611 -0.6953 -0.3854
  823TIP3    H226665   6.350   3.061   7.233  1.2533 -0.3466  0.1214
  824TIP3   OH226666   7.032   6.790   9.027  0.5093  0.6348 -0.2205
  824TIP3    H126667   6.939   6.772   9.042  0.6353 -1.1315 -1.2397
  824TIP3    H226668   7.034   6.882   8.998 -0.9117  0.7039 -0.1741
  825TIP3   OH226669   1.844   4.549   6.465 -0.1635 -0.0391  0.4986
  825TIP3    H126670   1.847   4.461   6.502  0.8395 -0.4753 -0.5337
  825TIP3    H226671   1.920   4.594   6.502  0.0215 -0.0162  0.1043
  826TIP3   OH226672   6.988   7.570   9.528 -0.5361  0.3067 -0.1350
  826TIP3    H126673   7.006   7.653   9.572  1.8080 -0.1939  0.0163
  826TIP3    H226674   7.068   7.553   9.477 -1.4421 -1.2823 -1.0894
  827TIP3   OH226675   2.360   3.473   9.652 -0.0077 -0.2575 -0.3226
  827TIP3    H126676   2.323   3.541   9.709 -0.4155 -0.4530 -0.3490
  827TIP3    H226677   2.394   3.408   9.713 -0.0591 -0.2627 -0.2985
  828TIP3   OH226678   1.173   7.277   9.280  0.1292 -0.4305 -0.2005
  828TIP3    H126679   1.177   7.183   9.293  0.2675 -0.4322 -0.2625
  828TIP3    H226680   1.253   7.299   9.232 -1.3519 -0.7636 -3.0529
  829TIP3   OH226681   4.716   4.865   7.932  0.2828  0.1435  0.5264
  829TIP3    H126682   4.700   4.958   7.916 -0.3697  0.0767  0.7352
  829TIP3    H226683   4.709   4.856   8.027 -0.4436 -0.2442  0.4496
  830TIP3   OH226684   5.275   1.161   7.862  0.2396 -0.1949 -0.1458
  830TIP3    H126685   5.249   1.073   7.834 -2.0170  0.2449  0.3569
  830TIP3    H226686   5.276   1.213   7.782 -0.7961 -0.1560 -0.1406
  831TIP3   OH226687   3.860   5.659   8.337 -0.0143 -0.1833 -0.1661
  831TIP3    H126688   3.953   5.659   8.315 -0.0157  0.6769 -0.2152
  831TIP3    H226689   3.857   5.693   8.426 -0.0855 -2.7233  0.8800
  832TIP3   OH226690   5.432   0.598   6.721  0.2184  0.1296 -0.1356
  832TIP3    H126691   5.394   0.665   6.665 -0.5731 -2.4878 -2.9999
  832TIP3    H226692   5.376   0.597   6.798 -0.5927  1.7681 -0.6532
  833TIP3   OH226693   1.770   3.985   9.503  0.3609  0.0816 -0.3649
  833TIP3    H126694   1.778   3.921   9.431  1.2422 -0.3575  0.1070
  833TIP3    H226695   1.841   4.047   9.487  0.1263  0.3743 -0.2624
  834TIP3   OH226696   5.310   0.946   7.504 -0.3442 -0.3261 -0.6748
  834TIP3    H126697   5.347   0.988   7.427  1.7160 -2.0968 -0.7663
  834TIP3    H226698   5.305   0.853   7.481 -2.7604 -0.4987  0.2200
  835TIP3   OH226699   3.406   3.332   8.467  0.0472 -0.0635  0.4526
  835TIP3    H126700   3.334   3.379   8.426  1.5598  0.9659 -1.1603
  835TIP3    H226701   3.424   3.259   8.409  0.7265  0.0718  0.4862
  836TIP3   OH226702   7.333   5.716   8.220  0.1424  0.6841 -1.0332
  836TIP3    H126703   7.362   5.625   8.216 -0.4093  0.3867  0.9552
  836TIP3    H226704   7.272   5.719   8.293  0.6009  2.7837 -0.6742
  837TIP3   OH226705   3.506   1.836   7.410 -0.4262  0.3602 -0.3739
  837TIP3    H126706   3.509   1.774   7.338 -1.2566  0.1238 -0.2095
  837TIP3    H226707   3.417   1.870   7.409  0.2674  2.3470 -1.1164
  838TIP3   OH226708   5.251   0.897   9.159  0.3057  0.1794  0.8804
  838TIP3    H126709   5.281   0.807   9.172  0.1846 -0.0032 -0.0168
  838TIP3    H226710   5.295   0.925   9.078 -1.1325  0.2654  0.0959
  839TIP3   OH226711   4.076   0.826   8.493  0.6185  0.0360 -0.5551
  839TIP3    H126712   4.131   0.756   8.528  0.6050  0.1285 -0.3449
  839TIP3    H226713   3.994   0.782   8.469  0.5134  0.0226 -0.1786
  840TIP3   OH226714   1.829   1.122   8.488  0.4181 -0.1476 -0.6377
  840TIP3    H126715   1.757   1.075   8.446  1.0246 -2.1948  0.4393
  840TIP3    H226716   1.893   1.135   8.418  0.5204 -1.5866 -0.8377
  841TIP3   OH226717   2.116   5.261   9.333  0.4619  0.3440 -0.2445
  841TIP3    H126718   2.088   5.172   9.356 -2.1819  0.8831 -0.9928
  841TIP3    H226719   2.128   5.306   9.416 -1.8509  0.2605  0.1996
  842TIP3   OH226720   0.997   4.683   6.373 -0.0820  0.5464 -0.0825
  842TIP3    H126721   0.967   4.593   6.381 -0.2869  0.6598  0.4530
  842TIP3    H226722   0.926   4.735   6.410  0.9506  0.8016  1.6291
  843TIP3   OH226723   0.851   2.586   7.110  0.0524 -0.1049 -0.3771
  843TIP3    H126724   0.760   2.586   7.079  0.0311 -0.1380 -0.3138
  843TIP3    H226725   0.884   2.499   7.086  0.2718  0.1422 -1.0034
  844TIP3   OH226726   0.204   1.923   7.778 -0.2868 -0.2838 -0.2990
  844TIP3    H126727   0.164   1.875   7.706 -1.9449 -0.5033  0.7276
  844TIP3    H226728   0.251   1.857   7.828 -1.8173 -0.7343  0.6021
  845TIP3   OH226729   4.227   3.989   9.219 -0.2329 -0.2327  0.2950
  845TIP3    H126730   4.267   3.918   9.270 -0.1920 -0.2974  0.1733
  845TIP3    H226731   4.242   3.964   9.128  0.4533  0.3089  0.2518
  846TIP3   OH226732   3.010   0.631   9.235 -0.1698  0.6000 -0.1884
  846TIP3    H126733   2.917   0.640   9.258 -0.2910  2.6361 -1.2354
  846TIP3    H226734   3.057   0.666   9.310 -0.4631  3.7913 -1.3040
  847TIP3   OH226735   3.177   2.698   8.364  0.1545 -0.1981 -0.0689
  847TIP3    H126736   3.244   2.685   8.296 -0.0210 -1.4805 -0.0333
  847TIP3    H226737   3.181   2.618   8.416 -1.7146 -0.5241 -0.3472
  848TIP3   OH226738   4.000   0.188   9.552  0.1210 -0.1288  0.1789
  848TIP3    H126739   3.909   0.157   9.554 -0.2233  0.8730  0.6458
  848TIP3    H226740   4.049   0.116   9.513 -1.0952 -0.1479 -1.4224
  849TIP3   OH226741   6.725   1.310   7.847  0.0682  0.2162 -0.5996
  849TIP3    H126742   6.779   1.270   7.779  1.5943  1.8350 -0.4087
  849TIP3    H226743   6.743   1.258   7.925  1.1122  0.5002 -0.6271
  850TIP3   OH226744   1.655   3.550   8.143  0.0020 -0.1678  0.0724
  850TIP3    H126745   1.618   3.468   8.174 -1.3924  0.0090 -1.0127
  850TIP3    H226746   1.723   3.524   8.080 -1.4025 -0.5339 -1.3550
  851TIP3   OH226747   6.017   3.854   7.687  0.1958  0.6029 -0.1274
  851TIP3    H126748   6.015   3.830   7.595  2.2995 -0.0217 -0.0665
  851TIP3    H226749   6.101   3.900   7.698 -0.2700  1.1727  1.3524
  852TIP3   OH226750   2.748   6.391   7.902 -0.4072  0.3509  0.2306
  852TIP3    H126751   2.657   6.404   7.930 -0.8944 -1.3299 -0.4264
  852TIP3    H226752   2.776   6.477   7.873 -0.9713  1.4325  2.6519
  853TIP3   OH226753   5.036   0.338   8.694  0.0296  0.0300  0.0703
  853TIP3    H126754   5.082   0.325   8.777 -0.5997  0.3852  0.4864
  853TIP3    H226755   4.970   0.404   8.714  0.5541  0.9022 -0.9853
  854TIP3   OH226756   0.632   3.834   7.203  0.1250 -0.0484  0.5816
  854TIP3    H126757   0.586   3.754   7.230  1.0139 -0.9254 -0.4527
  854TIP3    H226758   0.612   3.843   7.110  1.2251  0.0984  0.3469
  855TIP3   OH226759   5.518   5.872   8.099 -0.2732  0.3205 -0.2274
  855TIP3    H126760   5.605   5.876   8.059  0.1708 -1.4302  0.4663
  855TIP3    H226761   5.457   5.873   8.025  0.4826 -1.7366 -0.9357
  856TIP3   OH226762   2.222   6.861   7.232  0.3129  0.5909 -0.4656
  856TIP3    H126763   2.233   6.892   7.322  0.5939  0.3088 -0.4037
  856TIP3    H226764   2.309   6.865   7.193  0.2043  0.6522 -0.7091
  857TIP3   OH226765   2.455   6.816   9.367 -0.1221 -0.1230  0.1446
  857TIP3    H126766   2.461   6.722   9.351  1.8116  0.1905 -1.1856
  857TIP3    H226767   2.543   6.842   9.391 -0.8237  1.2408  1.4209
  858TIP3   OH226768   2.460   7.511   9.164 -0.5592  0.7467 -0.2650
  858TIP3    H126769   2.386   7.453   9.177 -2.1426  2.9110  0.9808
  858TIP3    H226770   2.530   7.474   9.218 -1.3273 -0.2986  0.0417
  859TIP3   OH226771   6.019   6.384   8.309 -0.3004 -0.6580  0.2720
  859TIP3    H126772   6.107   6.420   8.310 -0.1173 -1.0687 -0.7471
  859TIP3    H226773   6.031   6.290   8.296 -0.8655 -0.8285  0.8816
  860TIP3   OH226774   1.931   6.987   8.625  0.2685  0.2563 -0.4677
  860TIP3    H126775   1.839   6.997   8.600  0.6963 -0.7627 -2.5636
  860TIP3    H226776   1.965   7.077   8.625 -0.9559  0.8063  1.5783
  861TIP3   OH226777   3.901   2.943   9.529  0.4412 -0.0569 -0.8701
  861TIP3    H126778   3.840   2.870   9.528  0.1247  0.1798  0.1004
  861TIP3    H226779   3.981   2.908   9.568 -0.1042  0.3805  0.7367
  862TIP3   OH226780   6.107   1.584   8.034  0.1727 -0.1028 -0.5425
  862TIP3    H126781   6.164   1.636   8.092 -0.7826  1.4428 -0.9260
  862TIP3    H226782   6.126   1.493   8.057 -0.1118  0.4371  2.1890
  863TIP3   OH226783   3.361   7.564   7.309 -0.1733 -0.1550 -0.3546
  863TIP3    H126784   3.364   7.480   7.354 -0.6622 -1.2846 -2.2857
  863TIP3    H226785   3.447   7.573   7.269 -0.2519  0.0775 -0.4716
  864TIP3   OH226786   1.188   1.991   7.217 -0.3035 -0.4029  0.4102
  864TIP3    H126787   1.197   1.900   7.186 -0.0768 -0.2845  0.1298
  864TIP3    H226788   1.099   1.994   7.254 -0.3496 -0.7127  0.3321
  865TIP3   OH226789   6.156   3.065   8.390 -0.0162  0.1174 -0.2727
  865TIP3    H126790   6.068   3.083   8.423  0.2650 -0.2545  0.6988
  865TIP3    H226791   6.155   2.972   8.367  0.4408 -0.1665  0.7961
  866TIP3   OH226792   5.585   0.064   7.995 -0.2533 -0.4256 -0.0679
  866TIP3    H126793   5.562   0.153   8.021 -0.6444 -0.4799 -0.2214
  866TIP3    H226794   5.520   0.009   8.039  0.5270 -0.7105  0.7482
  867TIP3   OH226795   7.270   6.332   7.708 -0.0611  0.0571  0.2397
  867TIP3    H126796   7.193   6.389   7.704  0.3989  0.6319 -1.5535
  867TIP3    H226797   7.233   6.243   7.708 -0.7635  0.3041 -1.3431
  868TIP3   OH226798   0.538   1.627   8.898  0.3811 -0.9066  0.5357
  868TIP3    H126799   0.576   1.686   8.963  2.2137 -1.4336  0.0007
  868TIP3    H226800   0.518   1.683   8.824  3.0514 -1.0081 -0.3652
  869TIP3   OH226801   0.911   0.072   9.324 -0.0964  0.5727 -0.0426
  869TIP3    H126802   0.916   0.028   9.239 -0.5299 -0.2838  0.3610
  869TIP3    H226803   0.986   0.039   9.373  0.3861  1.3766 -0.2225
  870TIP3   OH226804   0.770   3.782   8.341  0.2147  0.4325  0.0993
  870TIP3    H126805   0.775   3.725   8.265  1.1257  0.3109  0.2432
  870TIP3    H226806   0.854   3.770   8.386  0.6299  2.2346 -0.1191
  871TIP3   OH226807   6.912   5.292   8.945 -0.0828 -0.1481 -0.8737
  871TIP3    H126808   6.955   5.362   8.896 -0.9441  0.5030 -0.7188
  871TIP3    H226809   6.911   5.218   8.884  1.5987 -0.3275 -0.7445
  872TIP3   OH226810   6.958   3.603   8.437 -0.1037 -0.4740  0.8983
  872TIP3    H126811   6.927   3.672   8.496 -0.4957  0.3773 -0.2491
  872TIP3    H226812   7.015   3.649   8.375  1.7082 -1.6371  1.6252
  873TIP3   OH226813   3.161   5.011   8.227 -0.4706 -0.0361  0.5118
  873TIP3    H126814   3.217   4.990   8.302 -0.2795  0.5440  0.5406
  873TIP3    H226815   3.149   4.928   8.182  1.2667 -0.0049 -0.0704
  874TIP3   OH226816   5.877   1.869   8.749  0.0473 -0.1009 -0.0750
  874TIP3    H126817   5.873   1.808   8.823  0.5317  0.5775  0.5301
  874TIP3    H226818   5.911   1.817   8.677  2.3295 -0.1263  0.9251
  875TIP3   OH226819   4.294   0.602   8.447  0.0889  0.4522  0.5250
  875TIP3    H126820   4.338   0.569   8.525  0.9103  1.5548  0.5451
  875TIP3    H226821   4.363   0.644   8.396 -0.0750 -1.6569 -1.6337
  876TIP3   OH226822   6.771   1.270   8.469 -0.3940 -0.5692  0.2775
  876TIP3    H126823   6.710   1.256   8.541 -0.1820  0.3105  0.6428
  876TIP3    H226824   6.720   1.319   8.404 -0.7616 -1.8719 -0.4449
  877TIP3   OH226825   5.842   3.794   8.995  0.3771  0.3243  0.3150
  877TIP3    H126826   5.759   3.751   9.018  0.4743  0.2984  0.6181
  877TIP3    H226827   5.855   3.771   8.903  0.9563 -1.1830  0.7410
  878TIP3   OH226828   3.589   3.214   9.354 -0.1375 -0.0600 -0.0307
  878TIP3    H126829   3.509   3.231   9.404  0.0839  0.6672  0.0919
  878TIP3    H226830   3.568   3.244   9.266 -0.6450 -1.6549 -0.4974
  879TIP3   OH226831   7.515   7.055   8.360  0.2812 -0.0575 -0.6745
  879TIP3    H126832   7.520   7.120   8.289 -0.0440 -0.8718 -1.4545
  879TIP3    H226833   7.600   7.061   8.404  0.3816  0.6483 -0.9545
  880TIP3   OH226834   4.911   0.138   8.307 -0.1529 -0.4213  0.2733
  880TIP3    H126835   4.977   0.135   8.238 -0.4222 -1.0270  0.0295
  880TIP3    H226836   4.952   0.094   8.381 -0.2205 -0.6681  0.1679
  881TIP3   OH226837   4.684   2.986   9.174 -0.1576  0.2260 -0.3526
  881TIP3    H126838   4.623   3.043   9.127 -1.1690 -1.2369 -0.9117
  881TIP3    H226839   4.698   3.029   9.258 -0.8966  1.2764 -0.7500
  882TIP3   OH226840   1.894   0.030   8.851 -0.3071 -0.3290 -0.1608
  882TIP3    H126841   1.965   0.054   8.791 -1.1597  1.5264 -0.4973
  882TIP3    H226842   1.831  -0.016   8.796  0.1932 -1.1371 -0.0654
  883TIP3   OH226843   5.591   3.276   7.835  0.7237  0.5045  0.1225
  883TIP3    H126844   5.521   3.339   7.851  1.1879  0.9059  0.5827
  883TIP3    H226845   5.651   3.286   7.909  1.2308  0.1094 -0.2245
  884TIP3   OH226846   1.206   4.345   9.180  0.3819  0.2267  0.5151
  884TIP3    H126847   1.281   4.402   9.168 -0.3610  1.0921 -0.2185
  884TIP3    H226848   1.141   4.400   9.226 -0.8214  0.4437 -1.3391
  885TIP3   OH226849   4.197   2.909   9.378  0.3751  0.0020 -0.0741
  885TIP3    H126850   4.234   2.896   9.466 -0.4130 -0.9523  0.1395
  885TIP3    H226851   4.155   2.826   9.358  0.3602  0.2864 -1.2818
  886TIP3   OH226852   5.599   6.147   9.038 -0.1407 -0.0749 -0.6769
  886TIP3    H126853   5.691   6.130   9.019  0.0447 -1.3434  1.1510
  886TIP3    H226854   5.551   6.093   8.975  0.4029 -0.9150 -0.3884
  887TIP3   OH226855   5.072   1.130   8.684  0.1151  0.3604 -0.0217
  887TIP3    H126856   5.094   1.205   8.740  0.2698 -0.4242  1.0024
  887TIP3    H226857   5.034   1.065   8.744  0.5395 -0.6147 -0.7759
  888TIP3   OH226858   6.832   4.295   8.087 -0.2602  0.4550  0.2511
  888TIP3    H126859   6.762   4.231   8.072  1.2266 -1.0886 -0.5500
  888TIP3    H226860   6.794   4.360   8.145 -1.9865 -0.9766  0.8044
  889TIP3   OH226861   6.614   3.484   9.111  0.2335  0.4473 -0.2237
  889TIP3    H126862   6.519   3.492   9.113  0.1460 -0.4680  1.5426
  889TIP3    H226863   6.631   3.393   9.137  1.5572  0.0471 -2.2746
  890TIP3   OH226864   0.085   5.516   7.756  0.5515  0.0384 -0.3388
  890TIP3    H126865   0.036   5.519   7.838  1.4899 -1.9326  0.3645
  890TIP3    H226866   0.027   5.468   7.696  1.0248 -1.1089  0.0906
  891TIP3   OH226867   5.479   1.422   9.315  0.1063 -0.2855 -0.2660
  891TIP3    H126868   5.469   1.380   9.401  1.1746  0.3985  0.2192
  891TIP3    H226869   5.463   1.515   9.331  1.8011  0.0817 -0.4575
  892TIP3   OH226870   2.047   6.300   7.748 -0.1496 -0.3307 -0.0062
  892TIP3    H126871   2.105   6.273   7.676 -0.6316 -1.5695  0.0550
  892TIP3    H226872   1.973   6.343   7.705  1.1045  1.9468 -0.0542
  893TIP3   OH226873   0.758   6.263   7.437 -0.0118  0.9241 -0.0221
  893TIP3    H126874   0.741   6.313   7.358 -1.0263 -0.8215 -0.9819
  893TIP3    H226875   0.853   6.258   7.442  0.0740  0.3209 -1.6616
  894TIP3   OH226876   1.995   6.598   7.960 -0.0430 -0.3697 -0.0151
  894TIP3    H126877   2.047   6.675   7.936 -2.4824  0.5948 -2.7995
  894TIP3    H226878   1.996   6.598   8.056  0.1741  3.0749  0.1297
  895TIP3   OH226879   4.585   7.450   8.013 -0.6721  0.2967  0.2592
  895TIP3    H126880   4.658   7.469   7.954  0.2295 -2.2009  0.4274
  895TIP3    H226881   4.524   7.523   8.001  0.9300  1.4534 -1.3746
  896TIP3   OH226882   3.503   5.635   9.481 -0.2616  0.3970  0.1039
  896TIP3    H126883   3.504   5.730   9.487  1.6841  0.3782  0.6547
  896TIP3    H226884   3.470   5.606   9.566 -3.9237  0.5292 -1.0833
  897TIP3   OH226885   0.693   0.002   7.738 -0.7189 -0.1744 -0.1821
  897TIP3    H126886   0.641   0.067   7.690  0.6728 -0.0979 -1.6713
  897TIP3    H226887   0.723  -0.059   7.671 -0.2784 -1.1819  0.8926
  898TIP3   OH226888   5.856   1.429   8.163 -0.3665 -0.0175 -0.1458
  898TIP3    H126889   5.917   1.419   8.236  2.3946  1.3333 -2.0736
  898TIP3    H226890   5.857   1.344   8.119 -0.7514 -0.3356  0.4571
  899TIP3   OH226891   6.971   5.954   8.930  0.3733 -0.6977 -0.2797
  899TIP3    H126892   6.948   5.901   8.853 -0.2313 -0.6787 -0.1173
  899TIP3    H226893   7.015   5.893   8.989 -1.1471 -1.2642  0.3046
  900TIP3   OH226894   5.559   6.447   9.091  0.1706 -0.2072  1.2675
  900TIP3    H126895   5.489   6.495   9.045  0.0977 -0.7410  0.8127
  900TIP3    H226896   5.556   6.359   9.053  0.8361 -0.3406  1.5244
  901TIP3   OH226897   1.490   4.848   6.857 -0.1515  0.7248 -0.1233
  901TIP3    H126898   1.427   4.867   6.926 -1.6097  0.7927 -1.3996
  901TIP3    H226899   1.491   4.927   6.803  0.7238  0.5613 -0.3548
  902TIP3   OH226900   5.496   0.388   8.332 -0.4769  0.2986 -0.0521
  902TIP3    H126901   5.450   0.472   8.328 -0.4953  0.4758  2.4071
  902TIP3    H226902   5.565   0.401   8.397 -0.6218 -1.6444  0.5613
  903TIP3   OH226903   2.684   2.842   8.821 -0.3888  0.0453 -0.7433
  903TIP3    H126904   2.775   2.871   8.825 -1.3680  3.6124  0.1214
  903TIP3    H226905   2.646   2.873   8.904 -2.8306  0.6891 -1.9969
  904TIP3   OH226906   3.976   4.493   8.253 -0.1395  0.9923 -0.1140
  904TIP3    H126907   4.056   4.461   8.294 -0.1496 -0.7336 -1.3442
  904TIP3    H226908   4.006   4.544   8.177 -0.1546 -1.3003 -1.7474
  905TIP3   OH226909   0.634   3.549   9.167 -0.0534  0.0100  0.1837
  905TIP3    H126910   0.558   3.606   9.154 -0.8916 -0.9660  0.6674
  905TIP3    H226911   0.602   3.461   9.146  1.0741 -0.3551 -0.0540
  906TIP3   OH226912   5.766   2.975   9.466 -0.5980  0.9987 -0.7888
  906TIP3    H126913   5.731   2.886   9.469 -0.8248  1.0866 -0.8082
  906TIP3    H226914   5.692   3.031   9.489  0.1637  1.0359  2.0343
  907TIP3   OH226915   4.374   1.134   9.053  0.0735  0.2510 -0.6782
  907TIP3    H126916   4.445   1.078   9.086  1.5658  2.6530  0.4011
  907TIP3    H226917   4.305   1.125   9.119  0.3713 -0.1779 -0.4170
  908TIP3   OH226918   4.293   0.949   9.510 -0.1295  0.1647  0.5899
  908TIP3    H126919   4.354   0.893   9.462  0.7178 -1.2099  3.1051
  908TIP3    H226920   4.339   1.032   9.519  0.4292 -0.1324  0.5274
  909TIP3   OH226921   7.291   0.412   8.592 -0.1623  0.2944 -0.2222
  909TIP3    H126922   7.306   0.478   8.660 -1.8483  2.0229 -1.4144
  909TIP3    H226923   7.378   0.390   8.560  0.4653  1.8744  0.2945
  910TIP3   OH226924   4.547   2.606   8.945  0.0283 -0.0838  0.0897
  910TIP3    H126925   4.573   2.659   9.020 -1.7248 -1.6898  1.9382
  910TIP3    H226926   4.582   2.519   8.964 -0.2156 -0.4654 -1.1296
  911TIP3   OH226927   0.057   2.557   9.003  0.0005  1.0934  0.0283
  911TIP3    H126928   0.136   2.602   9.031  0.7723  0.0548 -0.4310
  911TIP3    H226929   0.083   2.465   8.992 -0.9279  0.9604 -1.3743
  912TIP3   OH226930   2.371   0.570   7.311  0.0561 -0.0260 -0.2031
  912TIP3    H126931   2.456   0.572   7.266 -0.4893 -2.8352 -1.5835
  912TIP3    H226932   2.316   0.630   7.260  0.6350  0.1570 -0.6277
  913TIP3   OH226933   0.713   6.975   8.697  0.4258 -0.1818  0.3569
  913TIP3    H126934   0.770   7.003   8.769 -0.2716 -0.9105  1.2187
  913TIP3    H226935   0.697   6.882   8.713 -0.9312 -0.0222  0.1047
  914TIP3   OH226936   0.926   2.323   8.410  0.1040  0.1763  0.9764
  914TIP3    H126937   1.001   2.263   8.410 -0.2987 -0.3839  2.4619
  914TIP3    H226938   0.939   2.377   8.488 -0.6456  0.5781  0.8299
  915TIP3   OH226939   0.123   1.489   7.437 -0.1546 -0.4583 -0.0355
  915TIP3    H126940   0.062   1.419   7.460 -1.5514  0.7424  0.0854
  915TIP3    H226941   0.194   1.445   7.391 -1.9091 -1.7304 -1.6843
  916TIP3   OH226942   1.398   4.662   8.558  0.0862 -0.7346  0.4658
  916TIP3    H126943   1.443   4.578   8.549  0.6197 -0.3437 -0.7273
  916TIP3    H226944   1.307   4.638   8.574  0.2004 -1.5522 -0.0405
  917TIP3   OH226945   3.039   6.799   9.060 -0.4266 -0.1321  0.4837
  917TIP3    H126946   2.986   6.744   9.118 -0.4349 -0.5476  0.0943
  917TIP3    H226947   2.988   6.803   8.979  0.0997 -0.4854  0.1261
  918TIP3   OH226948   6.110   1.520   7.770 -0.3120 -0.6032  0.1884
  918TIP3    H126949   6.101   1.542   7.863 -2.4990 -0.4088 -0.0263
  918TIP3    H226950   6.136   1.601   7.728 -0.6326 -0.3641  0.4499
  919TIP3   OH226951   6.655   4.073   9.201  0.1096  0.7301 -0.6214
  919TIP3    H126952   6.661   4.166   9.223 -1.1104  0.6068  0.3500
  919TIP3    H226953   6.591   4.038   9.263 -0.1745 -0.5640 -1.6060
  920TIP3   OH226954   6.072   1.889   7.910  0.4665 -0.4426  0.2934
  920TIP3    H126955   6.168   1.887   7.909  0.4723 -1.9415 -1.2394
  920TIP3    H226956   6.046   1.809   7.863 -1.5408 -0.2711  1.0229
  921TIP3   OH226957   3.398   4.473   6.997 -0.6593 -0.3250  0.0429
  921TIP3    H126958   3.405   4.404   6.931 -4.0372 -1.5262  0.7737
  921TIP3    H226959   3.360   4.548   6.950 -0.1482 -0.0851 -0.0018
  922TIP3   OH226960   2.510   6.367   8.051  0.2324 -0.1408 -0.1765
  922TIP3    H126961   2.499   6.272   8.039  0.4819 -0.0883 -0.9061
  922TIP3    H226962   2.431   6.405   8.013 -0.1967 -0.0864  0.7637
  923TIP3   OH226963   0.921   4.487   8.332  0.0352  0.3760 -0.1563
  923TIP3    H126964   0.983   4.436   8.385 -0.4685 -0.4502 -0.3466
  923TIP3    H226965   0.967   4.501   8.249  0.3101  0.5168  0.0209
  924TIP3   OH226966   1.769   6.076   7.391  0.0675  0.2220  0.7772
  924TIP3    H126967   1.784   6.164   7.356  1.1713  0.9060  2.8565
  924TIP3    H226968   1.709   6.089   7.464 -0.9690 -0.9929  0.1905
  925TIP3   OH226969   1.987   1.896   8.924  0.2273  0.4770 -0.2985
  925TIP3    H126970   2.009   1.968   8.983 -1.6886  1.2484 -0.4580
  925TIP3    H226971   2.071   1.867   8.889  1.2512  1.0680  1.5535
  926TIP3   OH226972   1.499   6.041   8.361  0.2543 -0.2030  0.2835
  926TIP3    H126973   1.475   6.026   8.270 -0.4776  1.4173  0.1694
  926TIP3    H226974   1.592   6.060   8.360  0.3715 -0.7954 -0.0449
  927TIP3   OH226975   2.063   4.737   8.844  0.3367  0.1984  0.4392
  927TIP3    H126976   2.008   4.780   8.909 -1.1235  0.0090 -0.6027
  927TIP3    H226977   2.127   4.803   8.818 -0.0672  0.7895  0.9221
  928TIP3   OH226978   4.882   6.511   7.172  0.4099 -0.4266  0.2263
  928TIP3    H126979   4.955   6.551   7.125 -0.4503  0.6865 -0.2121
  928TIP3    H226980   4.814   6.497   7.105 -0.3778  0.0757  0.8935
  929TIP3   OH226981   5.954   7.061   8.335 -0.0444  0.3294 -0.1365
  929TIP3    H126982   5.923   6.982   8.290 -1.3372  0.5178  0.4097
  929TIP3    H226983   5.988   7.028   8.419 -0.5339  0.3459  0.0688
  930TIP3   OH226984   3.425   7.170   6.964 -0.2483  0.0851  0.5687
  930TIP3    H126985   3.496   7.108   6.949 -0.4370  0.2473 -1.3398
  930TIP3    H226986   3.413   7.213   6.879 -0.9173  1.8947  1.5259
  931TIP3   OH226987   5.639   5.480   6.712 -0.0165  0.2735  0.1409
  931TIP3    H126988   5.580   5.405   6.702  0.1650  0.1039  0.3427
  931TIP3    H226989   5.727   5.442   6.713  0.0956  0.5252 -0.1493
  932TIP3   OH226990   2.804   7.022   7.502 -0.0281  0.4081 -0.5530
  932TIP3    H126991   2.712   6.997   7.515 -0.1498  1.5146  1.1281
  932TIP3    H226992   2.853   6.942   7.519 -0.6015  0.2722  0.5516
  933TIP3   OH226993   0.859   6.320   7.180 -0.3620  0.5630  0.0822
  933TIP3    H126994   0.777   6.280   7.153 -0.0761 -0.9394  1.3087
  933TIP3    H226995   0.926   6.275   7.128 -0.2383  1.2622 -0.3774
  934TIP3   OH226996   5.731   5.756   8.291  0.0562 -0.1410  0.2332
  934TIP3    H126997   5.752   5.704   8.369  0.1817  0.2462  0.4588
  934TIP3    H226998   5.694   5.838   8.326  1.6865  0.7596 -0.0618
  935TIP3   OH226999   5.590   7.035   8.461  0.1652  0.2851  0.4851
  935TIP3    H127000   5.517   7.022   8.401 -0.1630  0.2912  0.8856
  935TIP3    H227001   5.587   6.959   8.519  1.0395 -0.2033 -0.0776
  936TIP3   OH227002   7.219   6.606   8.910 -0.1849  0.2518 -0.0887
  936TIP3    H127003   7.197   6.523   8.951  0.9529 -0.1362 -0.2223
  936TIP3    H227004   7.142   6.661   8.923 -0.1451 -0.1103  1.8811
  937TIP3   OH227005   3.064   3.857   8.626  0.0189 -0.0723  0.1378
  937TIP3    H127006   3.043   3.817   8.710  0.6668 -1.6001 -0.4009
  937TIP3    H227007   3.065   3.951   8.644  0.8760 -0.3995  2.0063
  938TIP3   OH227008   4.641   4.881   9.060  0.5134  0.6789  0.0356
  938TIP3    H127009   4.552   4.917   9.062  0.6910  1.1192  0.1995
  938TIP3    H227010   4.661   4.862   9.152 -0.5965 -2.4550 -0.2394
  939TIP3   OH227011   4.381   2.362   7.329  0.2039 -0.0131 -0.6649
  939TIP3    H127012   4.390   2.422   7.403 -2.7819  1.4947 -1.3676
  939TIP3    H227013   4.431   2.402   7.258  0.6108  0.1033 -0.3124
  940TIP3   OH227014   5.708   7.179   7.725 -0.1384 -0.4383 -0.1746
  940TIP3    H127015   5.623   7.136   7.736 -1.0321  0.9946 -1.0211
  940TIP3    H227016   5.709   7.247   7.793 -0.0202  0.0462 -0.6516
  941TIP3   OH227017   3.391   0.202   6.628  0.3556 -0.0332  0.4773
  941TIP3    H127018   3.380   0.117   6.672  0.7420 -0.3362  0.0103
  941TIP3    H227019   3.329   0.199   6.555  1.2271 -0.4404 -0.2776
  942TIP3   OH227020   3.684   2.665   9.535 -0.1195  0.7342  0.8248
  942TIP3    H127021   3.672   2.575   9.504 -0.4304  0.7810  0.8049
  942TIP3    H227022   3.754   2.659   9.600 -0.5299  0.3825  1.2390
  943TIP3   OH227023   4.190   4.526   8.685  0.1179 -0.5642 -0.7779
  943TIP3    H127024   4.263   4.556   8.631 -0.2721  0.5196 -0.7305
  943TIP3    H227025   4.232   4.491   8.764  0.6004  0.1817 -0.6855
  944TIP3   OH227026   5.554   1.103   9.181 -0.0822  0.4272  0.0175
  944TIP3    H127027   5.596   1.121   9.097  1.2351  1.1317  0.7889
  944TIP3    H227028   5.596   1.163   9.242 -0.3480 -0.7028  1.3708
  945TIP3   OH227029   2.793   1.972   8.715  0.7440 -0.1379 -0.0839
  945TIP3    H127030   2.835   2.058   8.727 -0.7460  0.4086  1.7942
  945TIP3    H227031   2.710   1.992   8.671  1.1185 -0.8491 -1.1506
  946TIP3   OH227032   3.065   3.979   7.583  0.3328 -0.0244  0.1835
  946TIP3    H127033   2.977   3.942   7.591  0.3954  0.0039  1.1029
  946TIP3    H227034   3.102   3.936   7.506  0.2223 -1.5087  0.9305
  947TIP3   OH227035   0.167   1.967   8.151 -0.1946  0.0472 -0.5063
  947TIP3    H127036   0.118   2.041   8.115 -0.7305  0.6842  1.4417
  947TIP3    H227037   0.252   2.003   8.173  0.9366 -0.8454 -2.9939
  948TIP3   OH227038   6.215   6.886   8.254 -0.0502 -0.3052 -0.4374
  948TIP3    H127039   6.191   6.915   8.166  1.0217 -0.0655 -0.6556
  948TIP3    H227040   6.268   6.957   8.290  0.2944 -0.8036  0.0594
  949TIP3   OH227041   1.187   7.251   7.870  0.4215  0.3898 -0.1407
  949TIP3    H127042   1.245   7.313   7.914  1.7742 -0.2438 -0.9323
  949TIP3    H227043   1.237   7.169   7.869  0.0215  0.1164 -1.8892
  950TIP3   OH227044   2.094   3.705   6.795 -0.0557  0.7282  0.9345
  950TIP3    H127045   2.168   3.746   6.838  0.5776  0.5068  0.0865
  950TIP3    H227046   2.057   3.774   6.740  0.9903  0.2206 -0.4670
  951TIP3   OH227047   4.436   3.310   9.314  0.3489 -0.7251  0.3082
  951TIP3    H127048   4.426   3.404   9.328 -1.4450 -0.8955  0.5194
  951TIP3    H227049   4.356   3.284   9.268  0.9470 -2.1035 -0.0178
  952TIP3   OH227050   4.113   2.290   7.803  0.5759 -0.0197 -0.7695
  952TIP3    H127051   4.041   2.296   7.740 -1.3019 -1.2746  1.1162
  952TIP3    H227052   4.145   2.200   7.795  0.2735 -0.2112  0.0977
  953TIP3   OH227053   6.498   0.342   8.130  0.0339 -0.6682 -0.3044
  953TIP3    H127054   6.426   0.312   8.074  0.2635 -0.4487 -0.7158
  953TIP3    H227055   6.560   0.269   8.131 -0.1965 -0.8650  0.0661
  954TIP3   OH227056   6.590   0.582   7.549  0.2063  0.1174 -0.4286
  954TIP3    H127057   6.661   0.563   7.610  0.2784 -0.2656 -0.6281
  954TIP3    H227058   6.570   0.674   7.564 -0.4775 -0.2305  0.8917
  955TIP3   OH227059   6.181   7.339   8.306 -0.3871  0.0016  0.1888
  955TIP3    H127060   6.197   7.399   8.379  2.0171 -0.8148  0.4332
  955TIP3    H227061   6.250   7.359   8.243 -0.3721 -1.5584 -0.3377
  956TIP3   OH227062   0.905   0.147   8.096 -0.4802 -0.1604 -0.5750
  956TIP3    H127063   0.811   0.149   8.080 -0.8122 -2.4432  0.6794
  956TIP3    H227064   0.942   0.108   8.016 -0.9174 -1.5950 -0.1049
  957TIP3   OH227065   1.968   1.663   7.801 -0.7492 -0.1288  0.1062
  957TIP3    H127066   2.035   1.599   7.774 -0.4382  0.1349  0.2471
  957TIP3    H227067   1.894   1.646   7.743 -1.1669 -1.4876  0.9850
  958TIP3   OH227068   7.507   2.029   7.377  0.2131 -0.3572 -0.6563
  958TIP3    H127069   7.466   1.986   7.302 -1.1785 -0.0383 -0.1075
  958TIP3    H227070   7.599   2.004   7.372 -0.4113 -2.8614 -0.7323
  959TIP3   OH227071   4.175   5.479   7.708  0.2411  0.0217 -0.5785
  959TIP3    H127072   4.180   5.403   7.766 -0.9516  0.7839  0.5914
  959TIP3    H227073   4.249   5.534   7.733  0.0160  0.1121 -0.0946
  960TIP3   OH227074   4.035   2.569   8.823  0.4328  0.0330 -0.3470
  960TIP3    H127075   4.112   2.541   8.775 -0.2681 -1.3356 -0.7104
  960TIP3    H227076   4.028   2.508   8.897 -0.7388 -0.3811 -0.7710
  961TIP3   OH227077   5.123   6.809   7.921  0.5069  0.3071 -0.0801
  961TIP3    H127078   5.130   6.749   7.847  0.0123 -2.0903  1.7185
  961TIP3    H227079   5.032   6.839   7.919  0.5242  0.3472 -0.4679
  962TIP3   OH227080   1.611   0.177   7.897 -0.2577  0.2575  0.7363
  962TIP3    H127081   1.580   0.207   7.812  0.3861  1.1752  0.8156
  962TIP3    H227082   1.543   0.205   7.958  0.1206  1.1760  0.7492
  963TIP3   OH227083   4.356   1.042   7.501  0.6166  0.4918 -0.4103
  963TIP3    H127084   4.288   1.037   7.568 -0.2734  0.9678 -1.2473
  963TIP3    H227085   4.407   0.961   7.512  0.1536  0.3094  0.4743
  964TIP3   OH227086   1.522   2.958   9.163  0.1458 -0.2912  0.2054
  964TIP3    H127087   1.441   2.929   9.206 -0.6184  0.6077 -0.6025
  964TIP3    H227088   1.585   2.888   9.183 -0.6537 -0.7207  1.3406
  965TIP3   OH227089   7.475   1.144   9.105 -0.0135  0.2427  0.3842
  965TIP3    H127090   7.521   1.126   9.187 -1.4158 -1.1477  0.9002
  965TIP3    H227091   7.397   1.192   9.131 -0.1246  0.4021 -0.2221
  966TIP3   OH227092   5.053   7.366   8.464  0.0277 -0.0106  0.7616
  966TIP3    H127093   5.066   7.420   8.387 -0.8548  0.6741  1.0776
  966TIP3    H227094   4.959   7.369   8.480 -0.2294 -2.5421  0.1450
  967TIP3   OH227095   4.798   1.996   7.747 -0.4854  0.2013  0.1066
  967TIP3    H127096   4.720   1.943   7.729 -0.0686 -1.1641  2.0462
  967TIP3    H227097   4.790   2.070   7.686 -3.7903  0.6428  0.8633
  968TIP3   OH227098   1.471   6.336   7.979  0.5688  0.1249 -0.2650
  968TIP3    H127099   1.515   6.320   7.895  1.1466 -1.6413  0.3133
  968TIP3    H227100   1.536   6.311   8.045  0.6117  2.7452  0.8006
  969TIP3   OH227101   4.175   3.887   8.249 -0.4026  0.1749  0.0028
  969TIP3    H127102   4.154   3.881   8.156 -1.3415  0.2113  0.2059
  969TIP3    H227103   4.091   3.881   8.294 -0.0020  0.5256  0.8369
  970TIP3   OH227104   6.466   7.408   8.783 -0.3719 -0.4130 -0.0332
  970TIP3    H127105   6.544   7.456   8.755 -0.6903  0.0803 -0.0785
  970TIP3    H227106   6.496   7.355   8.856  0.3473 -1.3109 -0.9406
  971TIP3   OH227107   6.399   6.779   8.441  0.2668  0.4918 -1.1099
  971TIP3    H127108   6.355   6.841   8.500 -2.0726 -0.7961 -1.3610
  971TIP3    H227109   6.369   6.804   8.354 -1.5914 -1.5392 -1.1304
  972TIP3   OH227110   4.682   5.472   9.222  0.1366 -0.2696  0.1585
  972TIP3    H127111   4.704   5.485   9.130  0.7926 -1.9501  0.0389
  972TIP3    H227112   4.679   5.377   9.233 -1.6154 -0.1169  1.4919
  973TIP3   OH227113   1.209   4.050   9.370 -0.0101 -0.1042 -0.2015
  973TIP3    H127114   1.179   3.970   9.327 -0.1795 -1.5392  2.3643
  973TIP3    H227115   1.298   4.030   9.400  0.5549  1.2695 -0.8709
  974TIP3   OH227116   0.407   2.994   8.938  0.1832  0.4774 -0.1680
  974TIP3    H127117   0.478   2.966   8.996 -0.1366 -2.3051 -0.9820
  974TIP3    H227118   0.328   2.960   8.980 -0.4659  1.7184 -0.3447
  975TIP3   OH227119   2.198   1.161   8.101 -0.2661 -0.1552  0.3437
  975TIP3    H127120   2.215   1.084   8.154  1.2153  0.5477  0.9259
  975TIP3    H227121   2.212   1.235   8.160  0.1555  0.6059 -0.6783
  976TIP3   OH227122   0.184   6.885   9.276  0.8722 -0.2403  0.1734
  976TIP3    H127123   0.129   6.959   9.301  0.9758 -0.5861  1.5480
  976TIP3    H227124   0.136   6.808   9.306  1.2287 -0.6641 -0.3275
  977TIP3   OH227125   3.616   2.595   8.334 -0.2951 -0.1087  0.0899
  977TIP3    H127126   3.656   2.663   8.280  0.5758  0.2237  1.1256
  977TIP3    H227127   3.537   2.570   8.286 -0.4968  1.4382 -0.4469
  978TIP3   OH227128   3.016   4.928   9.564  0.1065 -0.1836 -0.6801
  978TIP3    H127129   2.928   4.918   9.600  0.2255 -0.2954 -0.4185
  978TIP3    H227130   3.011   4.885   9.478  0.0698 -0.7427 -0.4054
  979TIP3   OH227131   2.888   4.291   8.620 -0.3858  0.1282 -0.2547
  979TIP3    H127132   2.961   4.285   8.559 -0.1686  0.3770 -0.0203
  979TIP3    H227133   2.885   4.205   8.663 -0.3579  0.0519 -0.4048
  980TIP3   OH227134   5.746   0.485   7.405 -0.3945 -0.0928 -0.2406
  980TIP3    H127135   5.656   0.511   7.384 -1.2584 -0.8148  2.2491
  980TIP3    H227136   5.736   0.412   7.465  1.8549  0.2839  0.6651
  981TIP3   OH227137   1.494   1.328   7.504 -0.1031 -0.7780  0.0330
  981TIP3    H127138   1.490   1.277   7.585  1.4732 -2.7624 -1.0518
  981TIP3    H227139   1.423   1.392   7.513 -2.0443 -2.9569  1.6185
  982TIP3   OH227140   6.808   5.327   8.244  0.2272 -0.2367  0.1465
  982TIP3    H127141   6.772   5.338   8.156  0.9034 -1.3957 -0.3063
  982TIP3    H227142   6.876   5.394   8.251  1.1210 -0.9965 -0.7775
  983TIP3   OH227143   4.715   6.555   9.859 -0.4766  0.0075 -0.0371
  983TIP3    H127144   4.696   6.478   9.806  1.7016  1.3314 -3.0647
  983TIP3    H227145   4.803   6.581   9.833  0.3026  1.5301  3.5049
  984TIP3   OH227146   0.957   1.208   8.710 -0.3245  0.5239 -0.1298
  984TIP3    H127147   0.874   1.255   8.699 -0.0017  1.2520  0.5118
  984TIP3    H227148   0.975   1.212   8.804  0.6334  0.7145 -0.3116
  985TIP3   OH227149   6.006   3.485   9.149 -0.2339  0.5635  0.6142
  985TIP3    H127150   6.060   3.440   9.084 -0.3903 -0.2979  1.0735
  985TIP3    H227151   5.921   3.441   9.145 -0.3624  0.7578  1.1338
  986TIP3   OH227152   6.625   7.558   7.902  0.7978 -0.1814 -0.4202
  986TIP3    H127153   6.666   7.639   7.871 -0.4228  1.0197  0.8949
  986TIP3    H227154   6.698   7.499   7.921  1.7606  0.8678 -0.7404
  987TIP3   OH227155   3.695   0.619   9.500 -0.3426  0.1302  0.0192
  987TIP3    H127156   3.625   0.559   9.525 -0.0013 -0.1764  0.2661
  987TIP3    H227157   3.774   0.565   9.500  0.0546  0.6822  0.7650
  988TIP3   OH227158   4.155   0.129   7.585  0.3415 -0.5822  0.3532
  988TIP3    H127159   4.146   0.051   7.530  3.4720  0.1272 -1.4140
  988TIP3    H227160   4.103   0.196   7.540 -0.3429 -1.0010  0.5079
  989TIP3   OH227161   4.584   2.277   7.982  0.0277 -0.4573  0.2790
  989TIP3    H127162   4.563   2.303   8.072 -0.5687 -0.4403  0.1408
  989TIP3    H227163   4.676   2.301   7.970 -0.0650  0.1060  0.6813
  990TIP3   OH227164   2.086   4.455   8.180 -0.5066  0.3666  0.4447
  990TIP3    H127165   2.124   4.383   8.231 -0.9635  0.8264  1.4668
  990TIP3    H227166   2.141   4.531   8.202 -2.0475  1.0830  2.0968
  991TIP3   OH227167   5.867   7.470   7.141 -0.4035 -0.2682 -0.5686
  991TIP3    H127168   5.929   7.431   7.079 -0.1891  0.2068 -0.6605
  991TIP3    H227169   5.923   7.506   7.210 -0.6529 -0.9715  0.0085
  992TIP3   OH227170   3.683   2.842   9.082  0.5502 -0.2684  0.5323
  992TIP3    H127171   3.683   2.843   9.178 -0.3500 -0.9306  0.5474
  992TIP3    H227172   3.590   2.849   9.058  0.7377 -0.4940 -0.2841
  993TIP3   OH227173   2.161   7.042   8.837  0.7702 -0.6601  0.3068
  993TIP3    H127174   2.256   7.053   8.849  0.5383  0.8786  0.9731
  993TIP3    H227175   2.141   7.093   8.759  0.3495 -0.1520  0.7422
  994TIP3   OH227176   7.504   4.623   8.735  0.0595  0.0036 -0.3079
  994TIP3    H127177   7.441   4.593   8.670 -2.0304  3.2584 -0.0426
  994TIP3    H227178   7.453   4.632   8.815  1.8621 -1.0169  1.0118
  995TIP3   OH227179   3.735   5.392   6.941 -0.3139 -0.0539 -0.1005
  995TIP3    H127180   3.726   5.485   6.922 -0.5233 -0.2063 -0.7896
  995TIP3    H227181   3.822   5.368   6.910  0.0864  0.0852  0.8671
  996TIP3   OH227182   6.191   4.679   7.775 -0.5316  0.0123 -0.4536
  996TIP3    H127183   6.193   4.663   7.870  1.1909 -1.1293 -0.6418
  996TIP3    H227184   6.103   4.653   7.749 -1.3546  1.2337  0.9624
  997TIP3   OH227185   4.338   6.471   9.093 -0.3216 -0.5425  1.1247
  997TIP3    H127186   4.256   6.422   9.093 -2.1776  2.2717 -0.3625
  997TIP3    H227187   4.369   6.465   9.003 -0.3559  0.5367  1.0201
  998TIP3   OH227188   3.162   6.644   8.160  0.7719  0.1594  0.2858
  998TIP3    H127189   3.090   6.586   8.188  0.0073  0.0695 -1.6902
  998TIP3    H227190   3.192   6.686   8.240  0.3414 -1.8465  1.5710
  999TIP3   OH227191   0.025   5.787   8.343 -0.3998  0.0128 -0.0872
  999TIP3    H127192   0.088   5.802   8.273  1.1505 -0.1140  1.2209
  999TIP3    H227193  -0.050   5.747   8.300  1.4517 -2.3704 -1.3482
 1000TIP3   OH227194   2.443   0.940   8.788 -0.3320  0.5741 -0.0573
 1000TIP3    H127195   2.405   1.013   8.837 -0.1809 -0.6379  2.0043
 1000TIP3    H227196   2.530   0.928   8.827 -1.1425 -1.9916  1.1882
 1001TIP3   OH227197   1.412   3.987   7.690  0.3701 -0.1180  0.3163
 1001TIP3    H127198   1.398   4.074   7.653  0.4403 -1.1625 -2.3896
 1001TIP3    H227199   1.325   3.958   7.719 -0.1258 -0.1231 -1.1357
 1002TIP3   OH227200   6.454   4.800   8.249  0.4888  0.1747 -0.4696
 1002TIP3    H127201   6.389   4.792   8.179  0.1629 -0.2214 -0.1322
 1002TIP3    H227202   6.402   4.793   8.330  0.7119  1.7617 -0.1656
 1003TIP3   OH227203   2.916   4.681   8.033  0.4704 -0.1545 -0.2476
 1003TIP3    H127204   2.885   4.726   8.112 -0.7105 -1.2457 -0.0483
 1003TIP3    H227205   2.850   4.614   8.017  1.3912 -0.8138 -1.4058
 1004TIP3   OH227206   3.846   2.524   7.254 -0.6154  0.6071 -0.0773
 1004TIP3    H127207   3.882   2.609   7.279 -3.1222  1.9545 -0.7989
 1004TIP3    H227208   3.918   2.462   7.270  0.6456  2.5256  2.3913
 1005TIP3   OH227209   3.573   1.670   7.211 -0.4293  0.2365 -0.1566
 1005TIP3    H127210   3.545   1.638   7.125 -2.0166  0.3158  0.2920
 1005TIP3    H227211   3.629   1.601   7.246  0.6790  0.4429 -1.4600
 1006TIP3   OH227212   3.767   0.891   9.549  0.3967 -0.1740 -0.6049
 1006TIP3    H127213   3.724   0.809   9.524 -0.2159 -0.4932  1.3713
 1006TIP3    H227214   3.698   0.957   9.541  0.6998  0.0528 -1.4913
 1007TIP3   OH227215   7.192   4.867  19.662  0.0132  0.1703 -0.1723
 1007TIP3    H127216   7.179   4.946  19.714  1.8384  1.4180 -1.4826
 1007TIP3    H227217   7.209   4.798  19.726  1.6743  1.5351  0.9564
 1008TIP3   OH227218   1.847   3.178   7.090  0.3937 -0.5357  0.0062
 1008TIP3    H127219   1.762   3.154   7.053  0.9786 -1.8914 -0.5314
 1008TIP3    H227220   1.905   3.183   7.014  1.0933 -1.0140  0.5049
 1009TIP3   OH227221   5.108   5.958   8.397 -0.1074  0.2289 -0.1593
 1009TIP3    H127222   5.034   5.915   8.440 -0.8751  0.5420 -1.1208
 1009TIP3    H227223   5.148   6.011   8.466 -0.5363 -0.2555  0.4790
 1010TIP3   OH227224   0.601   3.724   7.565  0.1618  0.3731 -0.0933
 1010TIP3    H127225   0.654   3.749   7.641 -1.0527 -0.0598  0.9164
 1010TIP3    H227226   0.564   3.807   7.534  0.7008  0.5569 -0.2579
 1011TIP3   OH227227   2.068   4.513   8.484 -0.4085  0.1264  0.2259
 1011TIP3    H127228   2.140   4.485   8.541  1.0638  1.7106 -0.7402
 1011TIP3    H227229   2.016   4.434   8.470  1.6026 -1.2892  0.3079
 1012TIP3   OH227230   6.122   1.777   7.628 -0.2825  0.2015 -0.5944
 1012TIP3    H127231   6.109   1.774   7.533 -0.9119 -0.9570 -0.4874
 1012TIP3    H227232   6.196   1.836   7.640  0.2926 -0.2318 -1.8564
 1013TIP3   OH227233   5.967   6.955   8.899  0.0103  0.6132  0.2254
 1013TIP3    H127234   5.972   6.889   8.830  0.7069  0.4490  0.4341
 1013TIP3    H227235   5.875   6.953   8.926  0.4037 -1.7130  1.6434
 1014TIP3   OH227236   4.983   2.067   7.256  0.5041  0.3584  0.4161
 1014TIP3    H127237   5.044   2.141   7.255  0.5125  0.3958 -1.8930
 1014TIP3    H227238   5.013   2.010   7.185 -1.3017 -0.3350  0.1511
 1015TIP3   OH227239   4.272   3.544   8.286  0.2009  0.1830  0.3023
 1015TIP3    H127240   4.257   3.600   8.363 -1.1870 -0.7981  0.7857
 1015TIP3    H227241   4.216   3.581   8.218  0.9378  0.6614 -0.0548
 1016TIP3   OH227242   0.907   4.598   7.641 -0.2286  0.2654 -0.1235
 1016TIP3    H127243   0.982   4.638   7.685 -1.0589 -0.0362  1.6543
 1016TIP3    H227244   0.880   4.663   7.576  1.0955  0.6862 -0.2882
 1017TIP3   OH227245   6.554   2.578   6.607  0.1552  0.2321 -0.2172
 1017TIP3    H127246   6.510   2.517   6.547  1.4700 -1.2347  0.2619
 1017TIP3    H227247   6.522   2.664   6.580 -1.8658 -0.6409 -0.8392
 1018TIP3   OH227248   2.944   4.310   7.822 -0.6089 -0.0874 -0.2139
 1018TIP3    H127249   2.860   4.351   7.843 -1.1869 -1.5587  0.4570
 1018TIP3    H227250   2.998   4.326   7.899  0.1642  1.8312 -1.0793
 1019TIP3   OH227251   4.345   2.595   7.530 -0.8794  0.3670  0.9291
 1019TIP3    H127252   4.300   2.636   7.603 -0.2015 -1.4870  2.4657
 1019TIP3    H227253   4.429   2.640   7.525 -1.9676  2.3961 -0.5924
 1020TIP3   OH227254   4.608   5.119   8.534  0.4671  0.2525  0.3034
 1020TIP3    H127255   4.523   5.122   8.580 -0.0321  0.8045 -0.6327
 1020TIP3    H227256   4.630   5.026   8.532 -0.6528 -0.0100 -0.3925
 1021TIP3   OH227257   2.577   4.328   9.559  0.1943  0.1892 -0.6246
 1021TIP3    H127258   2.531   4.397   9.607 -0.3568 -0.1567 -0.6410
 1021TIP3    H227259   2.623   4.373   9.488 -1.0094  0.4472 -1.2778
 1022TIP3   OH227260   3.934   0.738   7.553 -0.7852  0.3695  0.7724
 1022TIP3    H127261   3.882   0.752   7.474 -1.4241 -0.4580  1.0416
 1022TIP3    H227262   3.872   0.704   7.617  0.4802 -3.2299  0.3321
 1023TIP3   OH227263   0.494   3.030   8.437  0.4457  0.6345  0.2766
 1023TIP3    H127264   0.404   3.033   8.406 -0.2508  0.2427  2.1555
 1023TIP3    H227265   0.489   3.051   8.531  1.9381 -2.2309  1.1209
 1024TIP3   OH227266   7.536   3.699   7.868 -0.1901  0.3782  0.3054
 1024TIP3    H127267   7.466   3.643   7.901  0.3831  0.5085  1.8151
 1024TIP3    H227268   7.519   3.707   7.774 -0.7457 -1.6457  0.1998
 1025TIP3   OH227269   3.313   1.161   9.084  0.2422  0.0738 -0.2554
 1025TIP3    H127270   3.308   1.170   8.989  0.3551  1.3819 -0.1564
 1025TIP3    H227271   3.364   1.236   9.113 -1.5167  0.8473  1.0285
 1026TIP3   OH227272   1.800   0.217   9.425 -0.1202  0.4693 -0.3806
 1026TIP3    H127273   1.761   0.190   9.342  0.8003 -0.2955 -0.5740
 1026TIP3    H227274   1.833   0.306   9.408  1.2025 -0.1566 -1.2365
 1027TIP3   OH227275   1.551   0.351   8.206 -0.4784  0.3018 -0.0764
 1027TIP3    H127276   1.643   0.331   8.223 -0.6730 -0.7647 -0.1930
 1027TIP3    H227277   1.533   0.428   8.259  1.1698  2.2041 -2.1020
 1028TIP3   OH227278   3.904   3.975   8.598  0.3880  0.0106 -0.0308
 1028TIP3    H127279   3.817   4.015   8.605  0.7630  0.6675  1.3540
 1028TIP3    H227280   3.918   3.965   8.504 -0.7573  0.8524 -0.3232
 1029TIP3   OH227281   2.512   5.474   8.689 -0.2152  0.4141  0.1963
 1029TIP3    H127282   2.578   5.410   8.662 -0.8775  0.3404 -1.3880
 1029TIP3    H227283   2.466   5.432   8.762  0.3437 -0.2737  0.1630
 1030TIP3   OH227284   3.435   5.282   8.493  0.0288 -0.9763 -0.2800
 1030TIP3    H127285   3.410   5.191   8.508 -0.0341 -0.8799  0.2044
 1030TIP3    H227286   3.352   5.327   8.477 -0.4066 -0.2860  3.1937
 1031TIP3   OH227287   3.158   0.619   7.469  0.5228  0.3982  0.4544
 1031TIP3    H127288   3.218   0.558   7.427 -0.6671  0.3629 -1.3540
 1031TIP3    H227289   3.071   0.580   7.457  0.0375  0.8754  2.1769
 1032TIP3   OH227290   1.546   3.698   7.933  0.2670 -0.2507 -0.1772
 1032TIP3    H127291   1.612   3.763   7.911 -0.2472  0.6977  0.9709
 1032TIP3    H227292   1.588   3.640   7.996  0.6533 -0.9334 -1.0344
 1033TIP3   OH227293   1.078   3.220   8.733 -0.5775 -0.5168 -0.1423
 1033TIP3    H127294   1.139   3.152   8.703 -0.9691 -0.4381 -1.1557
 1033TIP3    H227295   1.007   3.219   8.668 -0.5157  0.9675 -0.2607
 1034TIP3   OH227296   1.181   0.650   7.118  0.0257  0.3181 -0.0482
 1034TIP3    H127297   1.102   0.612   7.157 -1.2866  1.5433 -1.4058
 1034TIP3    H227298   1.161   0.743   7.107  1.1463  0.4177 -1.6406
 1035TIP3   OH227299   7.009   1.326   7.961  0.9577  0.3908 -0.4621
 1035TIP3    H127300   6.981   1.342   8.051  1.1421  0.2405 -0.3782
 1035TIP3    H227301   7.102   1.306   7.967  1.1302  1.0824 -0.7658
 1036TIP3   OH227302   3.159   4.332   6.923 -0.4714  0.3940 -0.4309
 1036TIP3    H127303   3.085   4.380   6.959  1.6475  3.2605  0.4449
 1036TIP3    H227304   3.158   4.353   6.829 -1.4455 -0.6692 -0.6894
 1037TIP3   OH227305   0.551   6.360   8.625  0.1903  0.2581  0.3096
 1037TIP3    H127306   0.611   6.304   8.674 -0.8888 -1.0910  0.1540
 1037TIP3    H227307   0.608   6.418   8.574  1.4102 -1.6669 -0.6290
 1038TIP3   OH227308   1.073   2.541   9.331  0.1345 -0.2715  0.1847
 1038TIP3    H127309   1.001   2.518   9.272  0.3818 -0.3978 -0.0708
 1038TIP3    H227310   1.151   2.505   9.289  0.5983  1.3306 -0.4170
 1039TIP3   OH227311   4.252   2.848   8.606 -0.0849  0.0612  0.0526
 1039TIP3    H127312   4.279   2.773   8.553 -0.5611  0.8826 -1.3986
 1039TIP3    H227313   4.158   2.856   8.590  0.0916  1.4444 -0.4574
 1040TIP3   OH227314   2.484   2.787   8.011  0.1914  0.3644  0.3765
 1040TIP3    H127315   2.504   2.852   8.079  0.6959 -0.5267  1.0999
 1040TIP3    H227316   2.407   2.741   8.044  1.5471 -1.3614  1.3340
 1041TIP3   OH227317   1.489   7.091   8.370  0.4703  0.2901  0.3021
 1041TIP3    H127318   1.488   7.083   8.274  2.2738 -0.0402  0.2864
 1041TIP3    H227319   1.462   7.182   8.386  1.1586  0.6670 -0.5735
 1042TIP3   OH227320   6.033   6.490   7.988  0.0389 -0.0762  0.3117
 1042TIP3    H127321   6.027   6.565   8.048  2.2700  1.4784 -1.2547
 1042TIP3    H227322   6.057   6.417   8.044 -1.9569  0.3660  1.8562
 1043TIP3   OH227323   3.313   2.136   8.905 -0.3257 -0.2983  0.3846
 1043TIP3    H127324   3.354   2.173   8.983 -3.8378  0.9417  1.8332
 1043TIP3    H227325   3.317   2.206   8.839 -1.3519  0.4035  1.0338
 1044TIP3   OH227326   0.735   3.490   8.650  0.0816 -0.0311 -0.5988
 1044TIP3    H127327   0.710   3.523   8.737  1.8810  0.5702 -0.2738
 1044TIP3    H227328   0.749   3.396   8.664  1.0392  0.1796 -0.0506
 1045TIP3   OH227329   2.971   6.368   7.343  0.4504 -0.2604 -0.0321
 1045TIP3    H127330   3.057   6.354   7.382  0.0860 -0.9003  0.5599
 1045TIP3    H227331   2.931   6.437   7.396  0.1241 -0.8290  0.4781
 1046TIP3   OH227332   1.406   5.077   9.410  0.4367  0.7350  0.0467
 1046TIP3    H127333   1.321   5.112   9.437 -1.5790 -2.7026 -1.1228
 1046TIP3    H227334   1.427   5.123   9.329 -1.3130  0.4074 -0.6378
 1047TIP3   OH227335   1.665   2.955   8.748 -0.0809 -0.0975 -0.6052
 1047TIP3    H127336   1.573   2.928   8.738 -0.3317  0.1053  0.8328
 1047TIP3    H227337   1.695   2.906   8.825  0.8404  0.2862 -0.7139
 1048TIP3   OH227338   7.452   6.019   9.137 -0.1196 -0.4934 -0.6201
 1048TIP3    H127339   7.389   6.070   9.087 -1.0452 -0.8388  0.1537
 1048TIP3    H227340   7.430   5.928   9.118  0.1492 -0.6202 -0.3428
 1049TIP3   OH227341   6.817   7.281   8.760 -0.2318 -0.1058 -0.4904
 1049TIP3    H127342   6.768   7.242   8.687 -0.4786 -1.5613  0.4094
 1049TIP3    H227343   6.817   7.213   8.827 -0.5912  1.4415  1.1488
 1050TIP3   OH227344   0.666   7.487   7.225 -0.2086 -0.5483 -0.2752
 1050TIP3    H127345   0.737   7.526   7.174  0.2084 -1.3275 -0.3171
 1050TIP3    H227346   0.629   7.421   7.167 -1.2883  0.1698 -0.4195
 1051TIP3   OH227347   3.136   3.111   8.869 -0.2971 -0.3608  0.7298
 1051TIP3    H127348   3.229   3.122   8.891 -0.5722  0.7235  1.4561
 1051TIP3    H227349   3.130   3.133   8.776  0.0664  0.2912  0.8550
 1052TIP3   OH227350   5.487   0.001   7.644  0.4558  0.1650 -0.1148
 1052TIP3    H127351   5.493  -0.084   7.688 -0.4106  0.0296 -0.2544
 1052TIP3    H227352   5.578   0.023   7.623  0.8726  0.0877  1.4626
 1053TIP3   OH227353   4.540   0.937   9.190  0.0968  0.4115  0.2846
 1053TIP3    H127354   4.612   0.903   9.137 -1.2337 -0.7328 -0.8803
 1053TIP3    H227355   4.486   0.860   9.209 -1.4228  1.3846  0.1187
 1054TIP3   OH227356   3.759   0.703   7.358  0.5085 -0.0174 -0.4282
 1054TIP3    H127357   3.736   0.690   7.266 -1.1142 -0.0092 -0.0600
 1054TIP3    H227358   3.715   0.631   7.404  1.0612  0.1482  0.3773
 1055TIP3   OH227359   5.801   1.783   7.240  0.0550  0.3126  0.4401
 1055TIP3    H127360   5.758   1.817   7.319  1.0959  2.3875  0.1687
 1055TIP3    H227361   5.789   1.851   7.175  2.7191  0.4761  0.0139
 1056TIP3   OH227362   6.665   6.523   7.871 -0.1957 -0.0518  0.3067
 1056TIP3    H127363   6.620   6.545   7.953 -1.2780 -0.6331 -0.1261
 1056TIP3    H227364   6.754   6.558   7.883 -0.4869  0.3120  1.5252
 1057TIP3   OH227365   5.778   5.072   6.926 -0.4670  0.1729  0.6172
 1057TIP3    H127366   5.792   5.078   7.020  1.5811  1.5349  0.3057
 1057TIP3    H227367   5.717   5.143   6.906 -0.2667  0.4073  0.8286
 1058TIP3   OH227368   6.773   2.510   7.044 -0.2004 -0.0239  0.0432
 1058TIP3    H127369   6.775   2.490   6.951 -0.7611 -1.7333  0.3635
 1058TIP3    H227370   6.849   2.567   7.058 -0.2482  0.4454 -1.4777
 1059TIP3   OH227371   2.168   1.811   7.326 -0.2951 -0.0825  0.1716
 1059TIP3    H127372   2.171   1.812   7.230  1.9609 -0.8534  0.1753
 1059TIP3    H227373   2.087   1.765   7.347 -0.1727 -1.0802 -1.3868
 1060TIP3   OH227374   4.646   3.148   9.374 -0.1164  0.7524 -0.4665
 1060TIP3    H127375   4.576   3.214   9.369 -1.0454 -0.0849  0.8715
 1060TIP3    H227376   4.723   3.197   9.404 -0.9408  1.1574  1.0910
 1061TIP3   OH227377   2.749   3.050   7.209  0.2694  0.3021 -0.2227
 1061TIP3    H127378   2.679   3.098   7.165 -0.5398 -2.1563 -1.8107
 1061TIP3    H227379   2.709   2.967   7.235  1.6468  0.3337  2.2715
 1062TIP3   OH227380   2.784   2.052   9.560  0.2714  0.0124 -0.0720
 1062TIP3    H127381   2.777   2.134   9.610 -0.7992 -0.6774  0.9661
 1062TIP3    H227382   2.864   2.011   9.592  1.0019  0.7866 -0.8424
 1063TIP3   OH227383   3.889   3.506   9.541 -0.1495 -0.1357  0.0707
 1063TIP3    H127384   3.854   3.494   9.629 -0.8434 -1.5394 -0.3727
 1063TIP3    H227385   3.812   3.523   9.486 -0.0306 -1.7614 -0.6608
 1064TIP3   OH227386   6.205   0.705   8.389 -0.2707 -0.6407 -0.4998
 1064TIP3    H127387   6.261   0.633   8.416  0.6404  1.0032  2.2875
 1064TIP3    H227388   6.263   0.766   8.344 -0.0355  0.3807  1.1074
 1065TIP3   OH227389   5.663   1.383   7.457  0.3243 -0.2592 -0.5411
 1065TIP3    H127390   5.714   1.464   7.447  0.1536 -0.2897 -1.9078
 1065TIP3    H227391   5.702   1.322   7.395 -1.5494 -0.1719 -1.8859
 1066TIP3   OH227392   6.507   4.472   7.050 -0.2738 -0.4402  0.2374
 1066TIP3    H127393   6.526   4.480   6.956 -1.6954  2.3512  0.0615
 1066TIP3    H227394   6.414   4.452   7.053 -0.6507  1.2567  0.9950
 1067TIP3   OH227395   3.381   4.251   7.143  0.1927 -0.4969 -0.5491
 1067TIP3    H127396   3.376   4.338   7.102  0.8306 -0.8810 -1.4798
 1067TIP3    H227397   3.296   4.240   7.187  0.1861  0.6785 -0.2350
 1068TIP3   OH227398   2.337   4.155   6.357 -0.3874 -0.0168 -0.1744
 1068TIP3    H127399   2.417   4.153   6.409 -0.2964  0.0352 -0.3130
 1068TIP3    H227400   2.342   4.237   6.308  0.1343 -0.6650 -1.2299
 1069TIP3   OH227401   7.408   4.096   7.665  0.1771 -0.1956  0.0386
 1069TIP3    H127402   7.491   4.136   7.690  0.6597 -0.3611 -1.2514
 1069TIP3    H227403   7.367   4.072   7.748  0.6247  1.4471  0.7730
 1070TIP3   OH227404   5.126   6.113   9.092 -0.6655  0.1170  0.0825
 1070TIP3    H127405   5.124   6.191   9.148 -1.8556 -0.0297  0.2718
 1070TIP3    H227406   5.138   6.147   9.003  1.2838  0.3491  0.3956
 1071TIP3   OH227407   6.392   1.719   9.019 -0.0744 -0.3138 -0.6649
 1071TIP3    H127408   6.403   1.765   9.102 -2.1281 -0.1036 -0.4718
 1071TIP3    H227409   6.375   1.628   9.044  0.0608 -0.4039 -0.8938
 1072TIP3   OH227410   0.051   3.621   8.689 -0.0519 -0.5198  0.4938
 1072TIP3    H127411  -0.012   3.637   8.759  0.6127 -2.0706  1.4861
 1072TIP3    H227412   0.127   3.583   8.734  1.7697  1.5874 -0.5935
 1073TIP3   OH227413   6.604   0.761   8.272 -0.7239 -0.1364 -0.3148
 1073TIP3    H127414   6.666   0.692   8.249 -1.1285 -0.1580 -1.3591
 1073TIP3    H227415   6.587   0.747   8.366 -0.9030 -1.5296 -0.5330
 1074TIP3   OH227416   1.062   0.428   8.034  0.4291 -0.1386  0.1118
 1074TIP3    H127417   1.108   0.374   7.970 -0.8137 -0.9289 -0.1377
 1074TIP3    H227418   1.124   0.437   8.107  1.4863 -0.0310 -0.7746
 1075TIP3   OH227419   2.594   4.687   7.460 -0.8297 -0.3016 -0.7614
 1075TIP3    H127420   2.616   4.613   7.404 -1.6837 -0.8858 -0.3553
 1075TIP3    H227421   2.519   4.729   7.417 -1.2777 -0.5577 -0.2593
 1076TIP3   OH227422   6.867   4.467   8.385  0.9749 -0.0107 -0.2773
 1076TIP3    H127423   6.915   4.502   8.310  0.8983 -0.8867 -0.7521
 1076TIP3    H227424   6.782   4.441   8.349  1.1495 -0.9898 -0.0355
 1077TIP3   OH227425   4.638   1.212   7.737  0.2558  0.2346 -0.4122
 1077TIP3    H127426   4.674   1.257   7.661  0.8445 -1.4186 -1.1412
 1077TIP3    H227427   4.667   1.122   7.728  0.1364 -0.0600  1.6573
 1078TIP3   OH227428   5.110   2.634   9.526  0.5147 -0.3188 -0.1057
 1078TIP3    H127429   5.022   2.601   9.507  0.3463  0.7422 -1.2941
 1078TIP3    H227430   5.095   2.724   9.555  1.2194 -0.1563 -0.2486
 1079TIP3   OH227431   1.921   2.004   7.319 -0.1924  0.8529  0.0828
 1079TIP3    H127432   1.917   1.980   7.227  1.9169 -2.3596  0.6579
 1079TIP3    H227433   1.891   1.925   7.365 -0.6594  2.1755  2.1896
 1080TIP3   OH227434   0.907   3.794   7.362  0.1074 -0.3327  0.4723
 1080TIP3    H127435   0.816   3.770   7.375 -0.4490  0.5701 -1.4037
 1080TIP3    H227436   0.906   3.889   7.353  1.1860 -0.3346  0.1311
 1081TIP3   OH227437   1.199   1.769   8.309 -0.3995 -0.1989  0.1865
 1081TIP3    H127438   1.149   1.691   8.333  0.9066 -1.4161 -0.9075
 1081TIP3    H227439   1.169   1.790   8.221 -0.9253  0.7174  0.5681
 1082TIP3   OH227440   5.654   3.661   9.167 -0.3231 -0.8561  0.0019
 1082TIP3    H127441   5.567   3.626   9.150  0.5227 -2.7469 -0.6412
 1082TIP3    H227442   5.711   3.584   9.172  1.4044  0.3498 -0.1017
 1083TIP3   OH227443   2.390   2.296   6.758  0.5858 -0.6172  0.1544
 1083TIP3    H127444   2.402   2.202   6.745 -0.5893 -0.5557 -1.7570
 1083TIP3    H227445   2.477   2.333   6.748  0.8988 -1.4067 -0.1152
 1084TIP3   OH227446   4.393   6.995   9.918 -0.4602  0.6037  0.3471
 1084TIP3    H127447   4.448   6.929   9.875  0.8614  0.9527  1.4451
 1084TIP3    H227448   4.371   6.957  10.002  1.1415  1.9087  1.4168
 1085TIP3   OH227449   1.731   0.528   8.578  0.3214  0.1816  0.3602
 1085TIP3    H127450   1.644   0.519   8.539  0.9669  2.8300 -2.0459
 1085TIP3    H227451   1.787   0.555   8.505  2.7253  0.5649  2.2319
 1086TIP3   OH227452   3.505   4.317   7.559  0.2235  0.0497  0.0776
 1086TIP3    H127453   3.596   4.309   7.586  0.0413  2.3345  1.6438
 1086TIP3    H227454   3.465   4.234   7.586  1.9011 -1.2896 -1.2666
 1087TIP3   OH227455   6.526   6.296   7.696 -0.0675  0.0376  0.3905
 1087TIP3    H127456   6.617   6.310   7.724  0.7044  0.7786 -2.1629
 1087TIP3    H227457   6.484   6.381   7.708 -0.5103 -0.3690  1.7968
 1088TIP3   OH227458   5.604   1.777   9.640 -0.6807  0.1105  0.1505
 1088TIP3    H127459   5.624   1.839   9.710 -0.8129 -0.1288  0.4025
 1088TIP3    H227460   5.526   1.731   9.670  0.3231 -1.2928  0.6896
 1089TIP3   OH227461   2.831   6.144   7.312 -0.0281  0.1994  0.2939
 1089TIP3    H127462   2.876   6.223   7.343  0.7419  0.1174 -0.5691
 1089TIP3    H227463   2.863   6.132   7.223 -0.7270 -0.6595  0.1481
 1090TIP3   OH227464   1.249   6.926   8.562  0.0333  0.2547  0.4227
 1090TIP3    H127465   1.205   6.934   8.647 -2.2452  0.7547 -0.7334
 1090TIP3    H227466   1.275   7.015   8.540 -0.3071  0.2867  0.1410
 1091TIP3   OH227467   1.600   0.801   6.588  0.1015 -0.2723  0.2850
 1091TIP3    H127468   1.656   0.752   6.649 -1.0423  0.8846  2.3801
 1091TIP3    H227469   1.539   0.735   6.554  0.3693 -0.8437  0.8784
 1092TIP3   OH227470   6.247   1.023   7.378  0.2826  0.3978  0.0732
 1092TIP3    H127471   6.155   1.012   7.354 -0.0721 -0.7359  1.7564
 1092TIP3    H227472   6.296   0.973   7.312 -0.5266 -1.3002  0.6964
 1093TIP3   OH227473   1.777   6.490   8.595 -0.5550  0.4433 -0.1316
 1093TIP3    H127474   1.742   6.457   8.678  0.7788 -2.0015 -0.4450
 1093TIP3    H227475   1.817   6.574   8.617  1.4453 -1.0023  2.1727
 1094TIP3   OH227476   4.410   2.292   7.749  0.0069  0.3335  0.3297
 1094TIP3    H127477   4.460   2.312   7.828 -0.4322  1.2085  0.4073
 1094TIP3    H227478   4.342   2.360   7.747  0.1126  0.4178 -0.8840
 1095TIP3   OH227479   3.101   1.840   9.440  0.1577 -0.2848  0.1436
 1095TIP3    H127480   3.171   1.793   9.394 -0.7358 -0.5980 -0.9574
 1095TIP3    H227481   3.078   1.912   9.382 -1.7892 -1.3630 -0.5289
 1096TIP3   OH227482   0.020   3.313   7.928  0.0858 -0.4430  0.1225
 1096TIP3    H127483   0.099   3.329   7.877  0.2153 -0.3878  0.3392
 1096TIP3    H227484   0.012   3.389   7.985  0.5374 -0.9871  0.9361
 1097TIP3   OH227485   2.358   4.570   7.243  0.1948 -0.0237 -0.6898
 1097TIP3    H127486   2.388   4.661   7.250  0.3995 -0.2308  2.4680
 1097TIP3    H227487   2.402   4.536   7.165  4.3333  1.1557  0.8608
 1098TIP3   OH227488   7.324   4.401   7.335 -0.0674 -0.2999 -0.1366
 1098TIP3    H127489   7.265   4.423   7.263  0.6959  3.1273  0.1274
 1098TIP3    H227490   7.412   4.410   7.298  0.3294 -1.0825  0.5820
 1099TIP3   OH227491   6.065   0.030   8.111  0.2352  0.0448 -0.5077
 1099TIP3    H127492   5.976   0.012   8.140  0.0780  1.5702  0.0719
 1099TIP3    H227493   6.055   0.092   8.038  0.8170  1.4328  0.5340
 1100TIP3   OH227494   5.326   6.013   8.272 -0.2276  0.4519  0.1642
 1100TIP3    H127495   5.259   5.956   8.311 -0.0807 -0.3540 -0.7213
 1100TIP3    H227496   5.374   5.956   8.213  1.0235  1.1083  0.5119
 1101TIP3   OH227497   1.895   0.148   7.894  0.4570  0.3732  0.9199
 1101TIP3    H127498   1.804   0.145   7.923 -0.0073 -0.7805 -0.5092
 1101TIP3    H227499   1.899   0.085   7.822  2.8258 -1.0056  2.1336
 1102TIP3   OH227500   6.816   7.371   9.583 -0.0179 -0.5530 -0.6567
 1102TIP3    H127501   6.896   7.422   9.595 -1.0827  1.3013 -0.9519
 1102TIP3    H227502   6.757   7.431   9.535 -1.9674 -1.4321  0.5288
 1103TIP3   OH227503   5.278   5.554   7.925  0.4732 -0.4460 -0.5462
 1103TIP3    H127504   5.283   5.579   8.017  1.4647 -1.2459 -0.3632
 1103TIP3    H227505   5.358   5.590   7.886  1.0988 -1.8712 -0.6300
 1104TIP3   OH227506   1.666   0.797   8.945  0.6341 -0.2513 -0.1292
 1104TIP3    H127507   1.657   0.892   8.931 -0.2651 -0.5486 -1.8716
 1104TIP3    H227508   1.577   0.768   8.965  1.0068 -0.6750  1.0015
 1105TIP3   OH227509   0.457   1.450   8.270  0.0537 -0.0150  0.0282
 1105TIP3    H127510   0.457   1.412   8.182 -0.6683 -3.9519  1.5237
 1105TIP3    H227511   0.547   1.478   8.284  0.8639 -1.8744 -1.0591
 1106TIP3   OH227512   0.337   1.424   8.538 -0.2043 -0.0458 -0.5488
 1106TIP3    H127513   0.259   1.386   8.578 -0.1739 -0.0490 -0.4923
 1106TIP3    H227514   0.403   1.356   8.545 -0.8457 -0.9959 -2.7916
 1107TIP3   OH227515   0.857   0.859   6.718 -0.3894  0.3797 -0.3494
 1107TIP3    H127516   0.853   0.937   6.774 -1.3893 -1.2095  1.9177
 1107TIP3    H227517   0.790   0.801   6.753  0.4761 -1.6183 -1.8371
 1108TIP3   OH227518   3.367   6.669   7.774 -0.6458  0.2071 -0.5578
 1108TIP3    H127519   3.338   6.690   7.685 -1.7277 -1.6977 -0.6920
 1108TIP3    H227520   3.459   6.644   7.764 -0.6195  0.4852 -1.0524
 1109TIP3   OH227521   1.338   5.158   8.496  0.2229 -0.1286  0.7858
 1109TIP3    H127522   1.315   5.156   8.589 -1.0020 -1.6218  0.4860
 1109TIP3    H227523   1.348   5.067   8.471  0.7954  0.2652 -0.5052
 1110TIP3   OH227524   6.019   0.453   7.837 -0.2025  0.7023 -0.4358
 1110TIP3    H127525   5.929   0.467   7.808  0.3510  2.9164 -1.2770
 1110TIP3    H227526   6.051   0.540   7.859  1.5250 -0.1333  0.5715
 1111TIP3   OH227527   5.814   0.917   6.823 -0.5194  0.4065 -0.4659
 1111TIP3    H127528   5.814   1.011   6.842  0.6796  0.4612 -0.6296
 1111TIP3    H227529   5.809   0.875   6.909  0.8310  0.6408 -0.2504
 1112TIP3   OH227530   2.892   0.311   8.969 -0.6206  0.1990 -0.0243
 1112TIP3    H127531   2.931   0.305   9.056 -0.5416  3.0222  0.2103
 1112TIP3    H227532   2.910   0.401   8.941 -0.7983 -0.5622 -2.8970
 1113TIP3   OH227533   2.068   2.456   7.420 -0.3620  0.6576 -0.0317
 1113TIP3    H127534   2.119   2.386   7.379 -1.5006 -0.0965 -0.1992
 1113TIP3    H227535   2.111   2.469   7.505 -0.1491 -0.2802  0.0222
 1114TIP3   OH227536   3.421   0.790   9.578 -0.0706  0.6038  0.4620
 1114TIP3    H127537   3.432   0.767   9.670  2.2014 -0.1335  0.0605
 1114TIP3    H227538   3.347   0.851   9.577 -0.8736 -0.2428  2.6109
 1115TIP3   OH227539   2.930   3.293   9.439 -0.3071 -0.6619 -0.9403
 1115TIP3    H127540   2.937   3.339   9.523 -0.3907 -0.7025 -0.9105
 1115TIP3    H227541   2.888   3.355   9.380 -1.1357 -0.9674 -0.6882
 1116TIP3   OH227542   6.894   3.145   7.775  0.6215  0.2695 -0.7375
 1116TIP3    H127543   6.860   3.201   7.705 -2.1807  2.2417  1.9348
 1116TIP3    H227544   6.831   3.073   7.780 -0.4296  1.2325  0.9473
 1117TIP3   OH227545   4.977   4.889   8.545  0.0678  0.0563 -0.4826
 1117TIP3    H127546   5.050   4.902   8.606 -0.2095  0.3356 -0.2025
 1117TIP3    H227547   4.900   4.882   8.602 -0.4032  1.7910 -0.8474
 1118TIP3   OH227548   4.534   1.163   8.520  0.4863 -0.5170  0.6369
 1118TIP3    H127549   4.486   1.180   8.602  2.3381 -0.9079  1.8784
 1118TIP3    H227550   4.602   1.100   8.546  2.6425  1.1392 -0.6287
 1119TIP3   OH227551   1.799   7.457   9.438  0.5210  0.2488 -0.6100
 1119TIP3    H127552   1.705   7.475   9.440  0.6583  1.0746 -1.2508
 1119TIP3    H227553   1.826   7.478   9.349  1.2211 -0.4857 -0.5787
 1120TIP3   OH227554   0.890   3.210   9.245  0.2894 -0.2147  0.2272
 1120TIP3    H127555   0.816   3.180   9.297  0.3682 -0.0109  0.4574
 1120TIP3    H227556   0.869   3.302   9.224  0.4101 -0.1992  0.1751
 1121TIP3   OH227557   3.900   1.689   8.095 -0.0534  0.3068 -0.1409
 1121TIP3    H127558   3.917   1.625   8.164  0.2602  0.1971 -0.3215
 1121TIP3    H227559   3.950   1.766   8.122  2.8839 -0.8014 -1.9216
 1122TIP3   OH227560   2.790   3.128   8.489  0.1343  0.7259  0.2305
 1122TIP3    H127561   2.705   3.128   8.533  0.2180  2.8131  0.4762
 1122TIP3    H227562   2.826   3.215   8.506  1.9238  0.1965 -0.6435
 1123TIP3   OH227563   7.078   4.875   8.825 -0.3161  0.3108 -0.5372
 1123TIP3    H127564   7.114   4.944   8.880  0.7616 -0.7199  0.0882
 1123TIP3    H227565   7.154   4.832   8.787 -1.0187  0.4755 -2.2272
 1124TIP3   OH227566   4.104   7.059   8.395  0.1129 -0.2324 -0.2555
 1124TIP3    H127567   4.029   7.037   8.451  0.0763  0.7089  0.0829
 1124TIP3    H227568   4.077   7.139   8.349  0.1149 -1.0312 -1.6925
 1125TIP3   OH227569   2.240   4.747   8.441  0.3157  0.0166  0.0586
 1125TIP3    H127570   2.315   4.740   8.500  0.0912  1.3795  0.5478
 1125TIP3    H227571   2.185   4.673   8.463  0.7590 -0.1014  0.8086
 1126TIP3   OH227572   4.675   4.607   8.676 -0.0827  0.0292  0.1452
 1126TIP3    H127573   4.670   4.593   8.771 -0.0218  0.7087  0.2559
 1126TIP3    H227574   4.763   4.578   8.652  0.1465  0.4813  0.4157
 1127TIP3   OH227575   3.051   1.407   8.975 -0.5255 -0.5005 -0.1751
 1127TIP3    H127576   3.001   1.335   8.936 -0.6778 -1.0609  1.0248
 1127TIP3    H227577   3.049   1.476   8.908 -1.5443 -1.1030 -0.7913
 1128TIP3   OH227578   3.599   0.846   8.576 -0.0691  0.4551  0.0537
 1128TIP3    H127579   3.582   0.753   8.589  1.0406  0.0526 -1.1793
 1128TIP3    H227580   3.547   0.890   8.644  1.4543 -1.1792  2.4064
 1129TIP3   OH227581   2.261   7.467   6.986 -0.2497  0.1325  0.6591
 1129TIP3    H127582   2.247   7.387   7.038  2.5073 -1.3748 -0.7338
 1129TIP3    H227583   2.253   7.438   6.895  1.3024  1.2950  0.1163
 1130TIP3   OH227584   5.853   2.364   9.392 -0.2913  0.0709  0.8199
 1130TIP3    H127585   5.807   2.418   9.328  0.1482  1.1526  1.3961
 1130TIP3    H227586   5.798   2.286   9.401 -0.5382  0.0481 -0.6107
 1131TIP3   OH227587   5.794   3.772   8.388  0.3309  0.3938 -0.0383
 1131TIP3    H127588   5.732   3.844   8.388  0.8981  0.9388 -1.6385
 1131TIP3    H227589   5.847   3.785   8.467 -1.7437 -0.2802  1.5305
 1132TIP3   OH227590   6.283   5.473   7.521  0.0907 -0.2796  0.5147
 1132TIP3    H127591   6.303   5.416   7.447 -0.6414 -2.3440  1.8428
 1132TIP3    H227592   6.196   5.508   7.501  1.4658  2.4953 -1.4711
 1133TIP3   OH227593   5.820   7.531   9.076 -0.0130 -0.2914  0.0374
 1133TIP3    H127594   5.819   7.497   9.166  1.0697 -0.6908 -0.0853
 1133TIP3    H227595   5.905   7.574   9.068  0.0082 -0.4779 -0.8735
 1134TIP3   OH227596   3.501   4.429   9.757  0.8679 -0.0619 -0.1596
 1134TIP3    H127597   3.450   4.372   9.699 -1.0605 -0.0889  1.4766
 1134TIP3    H227598   3.482   4.518   9.727  1.9091 -0.1342 -1.1268
 1135TIP3   OH227599   0.836   4.767   7.388  0.2963  0.1265 -0.2519
 1135TIP3    H127600   0.781   4.842   7.363  1.0340  1.0766  0.8632
 1135TIP3    H227601   0.925   4.799   7.378  0.6205 -0.1389  1.5351
 1136TIP3   OH227602   3.686   1.183   8.041 -0.2188  0.9007  0.1285
 1136TIP3    H127603   3.616   1.223   8.093  0.4795  0.2243  1.6555
 1136TIP3    H227604   3.657   1.093   8.027 -0.1924  0.9510 -0.2434
 1137TIP3   OH227605   2.694   7.464   9.301  0.5913 -0.0073  0.1655
 1137TIP3    H127606   2.759   7.414   9.350  0.7552  0.6898  0.6799
 1137TIP3    H227607   2.746   7.517   9.240  0.4888  0.3474  0.3857
 1138TIP3   OH227608   6.778   2.088   7.887 -0.0201  0.4233  0.0574
 1138TIP3    H127609   6.743   2.000   7.869 -1.1964  0.6746  1.0111
 1138TIP3    H227610   6.866   2.072   7.920  0.5398 -0.2715 -1.6368
 1139TIP3   OH227611   6.671   3.331   7.889 -0.7600  0.4337 -0.1293
 1139TIP3    H127612   6.749   3.295   7.929 -2.3371 -1.7160  1.1944
 1139TIP3    H227613   6.668   3.422   7.919 -0.0441 -0.1460  1.8414
 1140TIP3   OH227614   5.154   2.767   8.440 -0.6748 -0.0887 -0.1971
 1140TIP3    H127615   5.232   2.713   8.456  0.2561  1.4502  0.6534
 1140TIP3    H227616   5.189   2.851   8.410 -2.1275 -0.3324 -2.8798
 1141TIP3   OH227617   6.768   1.912   6.559 -0.5146 -0.3986  0.1534
 1141TIP3    H127618   6.747   1.822   6.534  1.1064 -0.8253  0.2274
 1141TIP3    H227619   6.711   1.930   6.634 -1.0365 -1.2554 -0.0195
 1142TIP3   OH227620   5.039   6.907   9.764  0.1156  0.0874  0.2204
 1142TIP3    H127621   5.037   6.983   9.706  1.0742 -0.5314 -0.6544
 1142TIP3    H227622   4.965   6.920   9.823 -2.2455 -0.2810 -2.4455
 1143TIP3   OH227623   6.018   4.682   7.383 -0.0672  1.0210  0.2047
 1143TIP3    H127624   5.995   4.595   7.350 -4.2882  1.2928  1.8453
 1143TIP3    H227625   6.108   4.695   7.354 -0.6208 -2.0593 -3.9050
 1144TIP3   OH227626   1.276   3.166   7.875 -0.3494 -1.2526 -0.5044
 1144TIP3    H127627   1.350   3.201   7.827 -0.4134  0.3770  0.5194
 1144TIP3    H227628   1.261   3.228   7.946 -2.4284 -1.7577 -0.4301
 1145TIP3   OH227629   0.868   0.349   8.684  0.6858  0.2474  0.1926
 1145TIP3    H127630   0.893   0.377   8.772 -0.5237  0.1831  0.5703
 1145TIP3    H227631   0.797   0.408   8.659 -0.1995 -0.8715 -0.0106
 1146TIP3   OH227632   1.835   4.995   7.251 -0.2267 -1.0245  0.1499
 1146TIP3    H127633   1.766   5.010   7.186 -2.3315 -0.0063  2.4375
 1146TIP3    H227634   1.889   5.073   7.247 -1.1323 -0.3585  0.4539
 1147TIP3   OH227635   5.122   1.938   8.126 -0.2246  0.6726  0.0583
 1147TIP3    H127636   5.085   1.966   8.042 -0.1933 -0.1512 -0.2482
 1147TIP3    H227637   5.047   1.902   8.173 -0.0589  0.1744 -0.0480
 1148TIP3   OH227638   1.898   2.821   7.005 -0.0931 -0.8033 -0.1121
 1148TIP3    H127639   1.909   2.851   6.915 -1.4599 -2.2424 -0.8217
 1148TIP3    H227640   1.818   2.767   7.002 -0.0595 -1.0280  1.9215
 1149TIP3   OH227641   3.556   7.061   7.820  0.0418 -0.4279  0.5231
 1149TIP3    H127642   3.572   6.998   7.891  0.2176 -1.9737 -0.8212
 1149TIP3    H227643   3.579   7.013   7.740  1.7474  1.8928 -0.4827
 1150TIP3   OH227644   0.585   2.761   8.457 -0.7669  0.2476 -0.4243
 1150TIP3    H127645   0.651   2.750   8.388  1.1637  0.4035  1.2972
 1150TIP3    H227646   0.545   2.846   8.438 -1.8839 -0.6991 -2.5960
 1151TIP3   OH227647   0.550   1.167   7.164 -0.6634  0.2690  0.3273
 1151TIP3    H127648   0.641   1.187   7.186 -0.1328 -0.6139 -0.9332
 1151TIP3    H227649   0.544   1.181   7.069 -1.2940 -1.5368  0.0563
 1152TIP3   OH227650   6.619   0.015   9.514 -0.0139  1.0653  0.1558
 1152TIP3    H127651   6.637   0.073   9.587  0.3583  0.3124  0.6765
 1152TIP3    H227652   6.534  -0.024   9.536 -0.3132  1.4854 -0.2437
 1153TIP3   OH227653   1.631   2.560   9.723  0.2144 -0.1437 -0.1264
 1153TIP3    H127654   1.718   2.521   9.721  0.7113  0.7950  1.2472
 1153TIP3    H227655   1.571   2.487   9.710  1.1880 -0.8981 -0.4874
 1154TIP3   OH227656   5.941   5.689   8.621  0.3850  0.6751  0.1227
 1154TIP3    H127657   5.935   5.607   8.670  1.0454  1.1373  1.0115
 1154TIP3    H227658   5.855   5.699   8.582  0.3954 -0.6123 -0.2893
 1155TIP3   OH227659   6.555   3.178   9.119  0.0104  0.3634  0.0931
 1155TIP3    H127660   6.616   3.210   9.186 -1.9215 -1.1009  2.7491
 1155TIP3    H227661   6.472   3.169   9.165 -0.8821 -3.0629 -1.8414
 1156TIP3   OH227662   2.409   0.180   9.030 -0.1354  0.3045 -0.6129
 1156TIP3    H127663   2.415   0.107   9.092 -0.2020  1.6861  1.1078
 1156TIP3    H227664   2.493   0.225   9.039 -0.8005  1.4971 -0.2454
 1157TIP3   OH227665   5.027   0.627   9.439  0.1886  0.2034 -0.6900
 1157TIP3    H127666   4.999   0.650   9.350 -0.8523 -1.5302 -0.8502
 1157TIP3    H227667   4.981   0.546   9.459  2.0975 -0.6476  0.6050
 1158TIP3   OH227668   1.937   5.125   9.572 -0.2288  0.4443 -0.2493
 1158TIP3    H127669   1.882   5.050   9.550 -1.2977  0.4880  1.9536
 1158TIP3    H227670   1.881   5.201   9.559 -0.1491  0.6182  0.3673
 1159TIP3   OH227671   1.646   4.330   7.906  0.3272 -0.5057  0.3274
 1159TIP3    H127672   1.622   4.289   7.823  1.9337  1.4695 -1.2172
 1159TIP3    H227673   1.725   4.283   7.933 -0.7085 -1.7796  1.3235
 1160TIP3   OH227674   5.967   4.505   7.966 -0.4284 -0.0090  0.0195
 1160TIP3    H127675   6.007   4.430   7.920 -2.5606 -2.1076  1.3876
 1160TIP3    H227676   5.896   4.533   7.908  0.5509  1.2373 -0.6312
 1161TIP3   OH227677   6.541   1.326   8.926 -0.3364  0.3887 -0.2909
 1161TIP3    H127678   6.482   1.397   8.954 -1.6886 -0.4311 -0.9718
 1161TIP3    H227679   6.508   1.248   8.972  0.5048 -0.0089 -0.3451
 1162TIP3   OH227680   4.832   1.466   9.077  0.4334 -0.5208  0.1884
 1162TIP3    H127681   4.862   1.539   9.022 -2.2744  0.1204 -0.5853
 1162TIP3    H227682   4.830   1.504   9.166  1.4563 -0.4879  0.2197
 1163TIP3   OH227683   1.710   2.367   8.025  0.3684  0.0717  0.2133
 1163TIP3    H127684   1.664   2.440   8.066  0.7278  0.1802  0.4237
 1163TIP3    H227685   1.641   2.317   7.981 -0.0316 -0.0790  0.9938
 1164TIP3   OH227686   0.916   1.550   7.600  0.1143  0.6882  0.2363
 1164TIP3    H127687   0.989   1.499   7.566 -0.0746  0.7398 -0.2629
 1164TIP3    H227688   0.871   1.491   7.660  1.0060  0.9080  1.1492
 1165TIP3   OH227689   4.606   5.451   8.427 -0.0095  0.4735  0.2113
 1165TIP3    H127690   4.533   5.510   8.407 -0.9967 -0.9448 -0.5583
 1165TIP3    H227691   4.582   5.410   8.510 -0.2275 -0.1810 -0.1678
 1166TIP3   OH227692   1.024   7.038   8.246 -0.6542  0.0222  0.9032
 1166TIP3    H127693   1.003   7.034   8.339 -0.1197  0.2369  1.0373
 1166TIP3    H227694   1.025   7.131   8.224  0.4872  0.0470  0.9924
 1167TIP3   OH227695   5.611   4.666   8.042  0.3778  0.0521  0.0100
 1167TIP3    H127696   5.664   4.744   8.060  1.2200 -0.6156  0.4625
 1167TIP3    H227697   5.630   4.645   7.951 -1.1289  1.3254 -0.6428
 1168TIP3   OH227698   2.335   5.765   8.697  0.4388 -0.1848 -0.3687
 1168TIP3    H127699   2.342   5.810   8.613  0.6983  0.4346 -0.0200
 1168TIP3    H227700   2.300   5.678   8.675  1.4312 -0.3829 -1.2272
 1169TIP3   OH227701   6.547   1.087   8.062 -0.0204 -0.3036 -0.0588
 1169TIP3    H127702   6.578   1.028   7.994 -0.4007  1.1474 -1.5498
 1169TIP3    H227703   6.465   1.123   8.027 -1.1035 -0.7274  1.8752
 1170TIP3   OH227704   6.473   4.181   7.764  0.0620  0.6634  0.3217
 1170TIP3    H127705   6.516   4.187   7.679  1.0655  0.4836  0.7988
 1170TIP3    H227706   6.446   4.271   7.784 -0.0757  0.7243 -0.1320
 1171TIP3   OH227707   6.154   3.350   8.981 -0.4446  0.4562  0.3608
 1171TIP3    H127708   6.161   3.330   8.887 -2.2345 -1.2911  0.5269
 1171TIP3    H227709   6.133   3.265   9.021 -0.3149  1.2905  2.2860
 1172TIP3   OH227710   2.169   3.570   7.139  0.0827  0.6660  0.3424
 1172TIP3    H127711   2.228   3.646   7.140  0.4345  0.4060  0.0055
 1172TIP3    H227712   2.228   3.495   7.127 -0.2829  0.3619  0.4370
 1173TIP3   OH227713   5.177   2.378   9.016  0.4627 -0.0741 -0.3188
 1173TIP3    H127714   5.164   2.385   9.110  0.9263 -1.0837 -0.1596
 1173TIP3    H227715   5.265   2.414   9.001 -0.0904  1.2114 -0.5468
 1174TIP3   OH227716   6.129   4.932   7.865  0.4966  0.1279 -0.1892
 1174TIP3    H127717   6.095   4.902   7.950 -0.4187 -1.5300 -1.0761
 1174TIP3    H227718   6.168   4.853   7.826 -1.5639  0.0994 -2.4510
 1175TIP3   OH227719   1.526   3.748   8.841  0.1809 -0.0444  0.0817
 1175TIP3    H127720   1.541   3.790   8.925  2.3698 -2.3949  0.9786
 1175TIP3    H227721   1.481   3.815   8.789 -0.2253  1.8749  2.6916
 1176TIP3   OH227722   5.980   5.553   7.565  0.3573  0.2031  0.9674
 1176TIP3    H127723   5.939   5.472   7.594 -1.6110  0.3518 -1.0994
 1176TIP3    H227724   5.940   5.622   7.619 -1.3011  0.2088 -0.1950
 1177TIP3   OH227725   5.656   2.731   9.465 -0.0012 -0.2897  0.7363
 1177TIP3    H127726   5.561   2.724   9.454 -0.1477  0.4835  1.4414
 1177TIP3    H227727   5.689   2.643   9.445 -0.6938 -0.1795 -1.0594
 1178TIP3   OH227728   6.012   4.019   8.859 -0.2687  0.0690  0.4771
 1178TIP3    H127729   6.033   4.108   8.885  0.3064 -0.1983  0.9516
 1178TIP3    H227730   5.972   3.979   8.936 -1.0815  0.0869  0.0798
 1179TIP3   OH227731   2.124   4.507   7.613  0.2101 -0.0695  0.0002
 1179TIP3    H127732   2.135   4.463   7.697  0.3003 -0.0156  0.0162
 1179TIP3    H227733   2.134   4.600   7.634  0.6653 -0.0855 -0.1457
 1180TIP3   OH227734   5.262   1.900   9.442 -0.3789  0.0600 -0.1293
 1180TIP3    H127735   5.314   1.864   9.514 -0.5437  2.9530  1.5862
 1180TIP3    H227736   5.187   1.841   9.435  0.5965 -1.3492  0.7515
 1181TIP3   OH227737   6.050   0.508   8.809  0.0096 -0.2212 -0.1892
 1181TIP3    H127738   6.036   0.417   8.784  2.0218 -1.2917  2.1398
 1181TIP3    H227739   6.083   0.550   8.729  0.5051 -1.9236 -0.9343
 1182TIP3   OH227740   2.757   4.268   7.494  0.0652  0.0881  0.0142
 1182TIP3    H127741   2.848   4.248   7.516  0.2971  0.6926 -0.3753
 1182TIP3    H227742   2.707   4.249   7.573  0.2295 -2.2523 -0.3753
 1183TIP3   OH227743   1.961   4.442   9.759  0.1954 -0.4489  0.0071
 1183TIP3    H127744   1.966   4.432   9.664  0.2234 -0.3497 -0.0008
 1183TIP3    H227745   1.868   4.458   9.777  0.2859  0.1641 -0.0605
 1184TIP3   OH227746   2.634   4.114   8.687  0.6502 -0.4035  0.1718
 1184TIP3    H127747   2.573   4.040   8.684  0.3188 -0.1517  0.6803
 1184TIP3    H227748   2.702   4.087   8.748 -0.6730  0.6087  2.1737
 1185TIP3   OH227749   2.530   4.146   8.157 -0.2517  0.4700 -0.0184
 1185TIP3    H127750   2.611   4.099   8.176 -0.6109 -0.5751 -0.9504
 1185TIP3    H227751   2.537   4.228   8.206  1.4596  0.4955 -0.2590
 1186TIP3   OH227752   3.624   4.279   9.955  0.1956 -0.2664  0.0380
 1186TIP3    H127753   3.579   4.284  10.039  2.2124  1.1343  1.1287
 1186TIP3    H227754   3.579   4.342   9.899 -1.2320 -1.2884 -0.0070
 1187TIP3   OH227755   0.060   0.632   7.789  0.2563  0.0382 -0.0714
 1187TIP3    H127756   0.015   0.547   7.782  0.5680 -0.1501  0.2140
 1187TIP3    H227757   0.126   0.619   7.856  0.3015  0.5147 -0.0204
 1188TIP3   OH227758   3.116   0.657   8.585 -0.1462 -0.3879  0.3739
 1188TIP3    H127759   3.183   0.611   8.635 -0.1577 -1.1306 -0.2891
 1188TIP3    H227760   3.069   0.589   8.538 -1.6630  0.0735  1.1635
 1189TIP3   OH227761   3.380   6.255   7.840  0.0896 -0.1437 -0.3589
 1189TIP3    H127762   3.415   6.282   7.925 -1.4397 -0.1534  0.2934
 1189TIP3    H227763   3.455   6.262   7.781  1.3130 -0.6307  1.0721
 1190TIP3   OH227764   6.233   3.330   8.703 -0.7086  0.7822 -0.9038
 1190TIP3    H127765   6.278   3.413   8.720  2.3308 -0.8696 -0.1321
 1190TIP3    H227766   6.268   3.302   8.619 -0.5988 -0.3554 -0.4914
 1191TIP3   OH227767   5.065   2.316   7.274  0.2909  0.0899 -0.3120
 1191TIP3    H127768   5.049   2.399   7.228 -2.5682  0.1995  0.6575
 1191TIP3    H227769   5.064   2.340   7.367  1.6825 -0.7545 -0.0492
 1192TIP3   OH227770   5.011   7.081   9.514  0.0950  0.0394 -0.2131
 1192TIP3    H127771   4.983   7.112   9.427  1.5169  1.5628 -0.1723
 1192TIP3    H227772   5.095   7.039   9.498  0.0014 -0.3566  0.3234
 1193TIP3   OH227773   5.567   3.884   7.714  0.3367  0.3642 -0.2908
 1193TIP3    H127774   5.625   3.958   7.732  1.0925  0.3572 -2.4767
 1193TIP3    H227775   5.618   3.807   7.740  1.2095  0.3800 -1.8769
 1194TIP3   OH227776   4.670   3.758   9.145  0.5973 -0.4109 -0.0493
 1194TIP3    H127777   4.744   3.817   9.154  0.4321  0.1864 -2.1963
 1194TIP3    H227778   4.703   3.685   9.094  0.0483 -0.8003  0.1375
 1195TIP3   OH227779   0.685   5.648   6.752 -0.0610  0.1818 -0.0343
 1195TIP3    H127780   0.714   5.684   6.836  0.3404 -0.2082  0.0026
 1195TIP3    H227781   0.695   5.720   6.690  4.4320 -0.7568 -0.7910
 1196TIP3   OH227782   0.246   3.342   8.961 -0.2882 -0.0707 -0.1964
 1196TIP3    H127783   0.173   3.317   8.905  0.0323  0.6282 -0.9492
 1196TIP3    H227784   0.318   3.361   8.900  0.5783 -0.8969  0.5290
 1197TIP3   OH227785   6.772   7.540   8.423 -0.2548  0.3658  0.1520
 1197TIP3    H127786   6.711   7.468   8.432 -0.3086  0.6464  2.9220
 1197TIP3    H227787   6.720   7.618   8.440  0.4186  0.7881  0.3424
 1198TIP3   OH227788   7.187   5.360   8.071 -0.3434 -0.8058  0.2610
 1198TIP3    H127789   7.267   5.381   8.024 -1.5230  1.8898 -0.7679
 1198TIP3    H227790   7.216   5.325   8.154  1.8463 -2.1582 -0.9887
 1199TIP3   OH227791   0.940   0.297   7.587 -0.3738  0.8262 -0.1340
 1199TIP3    H127792   0.996   0.324   7.514  1.4400  0.3972  1.0303
 1199TIP3    H227793   0.883   0.229   7.550  1.6032 -0.5490 -0.8256
 1200TIP3   OH227794   3.081   1.399   6.679 -0.2067  0.1720  0.0684
 1200TIP3    H127795   3.020   1.404   6.753 -1.2753  2.0064 -0.8540
 1200TIP3    H227796   3.043   1.332   6.622  0.2671 -0.7832  0.8460
 1201TIP3   OH227797   3.791   3.682   9.103  0.4402  0.5688 -0.6887
 1201TIP3    H127798   3.773   3.619   9.172  0.3935  0.9793 -0.3225
 1201TIP3    H227799   3.859   3.641   9.050  2.4565  1.3704  1.1574
 1202TIP3   OH227800   3.768   1.366   7.866  0.5384 -0.2811 -0.3263
 1202TIP3    H127801   3.715   1.437   7.903 -2.1430 -1.1815 -2.0965
 1202TIP3    H227802   3.773   1.301   7.936 -3.1345 -1.3144 -0.8177
 1203TIP3   OH227803   4.217   1.428   8.545  0.2129 -1.0370 -0.4717
 1203TIP3    H127804   4.159   1.426   8.621 -0.3199  0.7508 -0.7794
 1203TIP3    H227805   4.204   1.343   8.503 -0.4816 -1.5353  0.6976
 1204TIP3   OH227806   5.837   5.153   7.184 -0.1262  0.5764  0.2219
 1204TIP3    H127807   5.887   5.076   7.211 -0.0608  0.4403 -0.2682
 1204TIP3    H227808   5.901   5.225   7.186  1.0277 -0.1114 -3.4008
 1205TIP3   OH227809   4.195   2.776   8.918 -0.1725 -0.2683  0.0530
 1205TIP3    H127810   4.224   2.706   8.860  2.1222  1.3518 -0.8606
 1205TIP3    H227811   4.127   2.822   8.867  0.5685  0.0717 -0.6454
 1206TIP3   OH227812   3.355   0.002   8.157  0.1132 -0.4036  0.0813
 1206TIP3    H127813   3.449   0.002   8.141 -0.1191  0.2141 -1.4298
 1206TIP3    H227814   3.318  -0.050   8.086 -0.6350 -1.3700  1.1400
 1207TIP3   OH227815   6.369   4.622   7.587  0.1645  0.0897  0.5434
 1207TIP3    H127816   6.354   4.530   7.608  1.0472 -0.0706  0.5274
 1207TIP3    H227817   6.324   4.671   7.656 -0.0093 -0.3596  0.7522
 1208TIP3   OH227818   5.261   0.609   8.277 -0.2330 -0.5895  0.1966
 1208TIP3    H127819   5.233   0.693   8.240 -0.9748 -1.4372 -1.2687
 1208TIP3    H227820   5.252   0.621   8.372 -0.7993  0.8223 -0.0012
 1209TIP3   OH227821   7.281   4.000   7.918  0.0811 -0.3405  0.2928
 1209TIP3    H127822   7.208   3.955   7.962  1.8708 -3.0553  0.7018
 1209TIP3    H227823   7.306   4.069   7.979 -1.4307 -0.0828  0.6566
 1210TIP3   OH227824   2.352   6.530   6.515 -0.0809  0.0874 -0.6100
 1210TIP3    H127825   2.303   6.513   6.435  0.1270 -0.3230 -0.6543
 1210TIP3    H227826   2.331   6.621   6.537 -0.6023  0.0184 -0.8022
 1211TIP3   OH227827   5.543   1.946   8.758  0.1586  0.3474  0.0148
 1211TIP3    H127828   5.585   1.941   8.673  1.7380  0.2842  0.7634
 1211TIP3    H227829   5.475   1.878   8.756 -0.8274  1.3340 -1.6847
 1212TIP3   OH227830   1.498   2.891   7.490 -0.2723 -0.1861 -0.0207
 1212TIP3    H127831   1.503   2.837   7.411  0.3371  0.8473 -0.7110
 1212TIP3    H227832   1.417   2.863   7.533 -1.3163  0.1324 -1.6959
 1213TIP3   OH227833   3.903   5.281   9.378 -0.3817  0.3426  0.1774
 1213TIP3    H127834   3.936   5.346   9.440 -0.2679 -0.5538  1.0872
 1213TIP3    H227835   3.981   5.250   9.332 -0.7684  3.5702 -3.1273
 1214TIP3   OH227836   2.883   5.509   8.029  0.2500 -0.0320 -0.0255
 1214TIP3    H127837   2.923   5.528   7.944 -0.7457  0.9186 -0.3005
 1214TIP3    H227838   2.887   5.413   8.036  0.4711 -0.1185 -1.0897
 1215TIP3   OH227839   1.173   1.465   6.876 -0.1700  0.2792 -0.1235
 1215TIP3    H127840   1.092   1.414   6.872 -0.0892  0.1830 -0.5351
 1215TIP3    H227841   1.154   1.544   6.826  0.4594 -0.4047 -1.4872
 1216TIP3   OH227842   6.761   6.114   8.784 -0.0686 -0.2250 -0.2201
 1216TIP3    H127843   6.830   6.135   8.846 -1.1721 -0.2428  1.0628
 1216TIP3    H227844   6.708   6.047   8.829 -2.7159  1.9885  0.1950
 1217TIP3   OH227845   6.273   2.416   9.115 -0.0037 -0.2842 -0.0696
 1217TIP3    H127846   6.262   2.398   9.209 -0.3513 -0.3159 -0.1126
 1217TIP3    H227847   6.187   2.448   9.087 -0.0891 -0.8854 -0.5129
 1218TIP3   OH227848   2.477   2.666   8.918  0.1327  0.2329 -0.1755
 1218TIP3    H127849   2.464   2.739   8.858 -1.2693 -1.2712 -1.8158
 1218TIP3    H227850   2.546   2.613   8.878  0.5974  0.2211  0.6036
 1219TIP3   OH227851   1.578   3.196   9.019  0.2645  0.5270 -0.2123
 1219TIP3    H127852   1.560   3.198   8.925  1.7239 -0.6574 -0.5643
 1219TIP3    H227853   1.559   3.106   9.044  0.9741  0.5314  0.3739
 1220TIP3   OH227854   6.775   0.863   8.032  0.4708  0.1364 -0.4223
 1220TIP3    H127855   6.834   0.880   8.105 -0.5484  0.4559  0.3487
 1220TIP3    H227856   6.688   0.863   8.071  0.0301 -1.8560 -1.2582
 1221TIP3   OH227857   7.440   7.196   7.881  0.2071 -0.5260 -0.1701
 1221TIP3    H127858   7.466   7.165   7.794  0.1445 -1.9006  0.2672
 1221TIP3    H227859   7.515   7.174   7.936  0.3796  0.6399  0.0706
 1222TIP3   OH227860   0.392   0.679   8.004  0.5413  0.4043 -0.0702
 1222TIP3    H127861   0.374   0.770   7.978  1.2319  0.1545 -1.4767
 1222TIP3    H227862   0.481   0.663   7.975  0.3001 -0.8506 -0.1545
 1223TIP3   OH227863   1.445   0.556   6.872  0.1285 -0.2700  0.0701
 1223TIP3    H127864   1.484   0.580   6.957 -0.5789 -0.0967  0.3551
 1223TIP3    H227865   1.421   0.464   6.882  0.6575 -0.4434 -0.1880
 1224TIP3   OH227866   7.114   3.812   8.278 -0.0696  0.7301  0.3826
 1224TIP3    H127867   7.043   3.874   8.294 -1.6494 -1.2503  1.3868
 1224TIP3    H227868   7.190   3.852   8.321 -0.8967  2.2014  0.5450
 1225TIP3   OH227869   4.558   6.001   7.399 -0.4666  0.2073 -0.4869
 1225TIP3    H127870   4.547   5.939   7.328 -1.4487  0.5550 -0.6598
 1225TIP3    H227871   4.594   6.080   7.358 -2.7630  1.0777 -0.9923
 1226TIP3   OH227872   0.169   1.671   7.957  0.5093  0.3057 -0.0604
 1226TIP3    H127873   0.162   1.609   7.883  0.9081 -0.5327  0.5865
 1226TIP3    H227874   0.078   1.696   7.974  0.2887 -0.4490 -0.0560
 1227TIP3   OH227875   2.143   4.246   9.797 -0.7922 -0.8042 -0.0333
 1227TIP3    H127876   2.127   4.217   9.707 -1.5519 -0.9063  0.1264
 1227TIP3    H227877   2.084   4.320   9.809 -0.8647 -0.9347  0.4531
 1228TIP3   OH227878   0.699   1.349   8.735 -0.1589 -0.3541 -0.1224
 1228TIP3    H127879   0.672   1.352   8.827  0.7713 -0.5621  0.1661
 1228TIP3    H227880   0.689   1.439   8.704 -1.5537 -0.4915 -0.1529
 1229TIP3   OH227881   3.766   6.303   7.968 -0.4466  0.9180 -0.3382
 1229TIP3    H127882   3.843   6.277   8.020 -0.0216 -0.9703 -1.7797
 1229TIP3    H227883   3.744   6.390   7.999  1.2116  0.7970  1.3484
 1230TIP3   OH227884   1.215   4.102   6.951  0.5017 -0.0485 -0.2289
 1230TIP3    H127885   1.228   4.107   7.045  1.4328  0.0159 -0.3515
 1230TIP3    H227886   1.121   4.084   6.940 -0.2331  2.7360  0.6394
 1231TIP3   OH227887   3.160   0.453   7.134  0.5813  0.2065  0.6384
 1231TIP3    H127888   3.252   0.456   7.159  0.3454 -0.8573  1.7626
 1231TIP3    H227889   3.134   0.362   7.151  0.4913 -0.9362 -4.0510
 1232TIP3   OH227890   2.803   5.845   7.768  0.6209  0.6677  0.1424
 1232TIP3    H127891   2.804   5.892   7.685  1.7670  1.1343  0.3963
 1232TIP3    H227892   2.720   5.869   7.808 -1.4501 -2.0245 -2.1858
 1233TIP3   OH227893   4.668   1.555   8.574 -0.1620  0.0011 -0.0280
 1233TIP3    H127894   4.693   1.549   8.666 -0.0419  0.1165 -0.0517
 1233TIP3    H227895   4.573   1.563   8.575 -0.2815 -1.2564  0.0225
 1234TIP3   OH227896   0.763   5.077   9.315 -0.2065 -0.4112  0.1351
 1234TIP3    H127897   0.671   5.051   9.322 -0.2617 -1.3248 -2.8648
 1234TIP3    H227898   0.811   5.005   9.357 -0.7991 -0.4688  0.7341
 1235TIP3   OH227899   5.708   0.730   8.509  0.2478 -0.5386  0.2481
 1235TIP3    H127900   5.640   0.718   8.444 -0.5749  1.0534  0.7487
 1235TIP3    H227901   5.790   0.724   8.460 -0.2327 -1.9961 -0.4391
 1236TIP3   OH227902   1.097   5.111   9.234  0.4279  0.1008 -0.6180
 1236TIP3    H127903   1.116   5.137   9.324 -0.4725  0.4791 -0.5245
 1236TIP3    H227904   1.084   5.016   9.239 -0.4131  0.2324 -0.1979
 1237TIP3   OH227905   0.194   2.820   8.509  0.2623 -0.0169 -0.5218
 1237TIP3    H127906   0.147   2.810   8.592 -0.1748 -2.2686 -0.9496
 1237TIP3    H227907   0.179   2.911   8.483 -2.1851 -0.0770  0.3783
 1238TIP3   OH227908   3.867   2.299   8.394  0.0433 -0.4393 -0.1863
 1238TIP3    H127909   3.843   2.294   8.301 -0.3659  0.5258 -0.1480
 1238TIP3    H227910   3.941   2.239   8.403 -0.1424 -0.8156 -1.0614
 1239TIP3   OH227911   5.893   6.295   7.328  0.1023 -0.2520 -0.3062
 1239TIP3    H127912   5.980   6.318   7.361  0.8300 -0.2624 -2.1060
 1239TIP3    H227913   5.876   6.207   7.364  0.7035 -0.1380  0.2765
 1240TIP3   OH227914   0.935   5.967   7.808 -0.1675 -0.1030  0.3240
 1240TIP3    H127915   0.975   6.033   7.865  0.2510  0.1094 -0.2164
 1240TIP3    H227916   1.003   5.943   7.746 -0.9768  0.5200 -0.8393
 1241TIP3   OH227917   6.141   1.271   9.140 -0.0528  0.1448 -0.7964
 1241TIP3    H127918   6.103   1.251   9.054 -0.0056 -1.0702 -0.5557
 1241TIP3    H227919   6.083   1.228   9.202 -0.6239  1.8105 -0.1330
 1242TIP3   OH227920   0.292   2.834   7.431  0.0510 -0.1095  0.3858
 1242TIP3    H127921   0.246   2.797   7.355 -1.5904  0.9270  0.8169
 1242TIP3    H227922   0.339   2.760   7.469 -1.2329 -1.2356 -0.1377
 1243TIP3   OH227923   6.751   6.871   8.617  0.2882 -0.1737 -0.2369
 1243TIP3    H127924   6.707   6.789   8.638 -0.2543  0.2251  0.2261
 1243TIP3    H227925   6.752   6.875   8.522  1.3318 -1.2476 -0.2962
 1244TIP3   OH227926   5.021   1.782   8.676  0.2365 -0.1777 -0.0409
 1244TIP3    H127927   5.017   1.702   8.624  2.4274  0.8352 -1.9218
 1244TIP3    H227928   4.931   1.817   8.672 -0.2130 -1.3791 -1.0699
 1245TIP3   OH227929   0.158   6.675   7.599  0.3190 -0.5612 -0.2193
 1245TIP3    H127930   0.128   6.587   7.621 -0.4153 -0.1842  0.3157
 1245TIP3    H227931   0.084   6.715   7.551  0.6077 -0.2009 -0.3729
 1246TIP3   OH227932   4.055   4.667   8.904  0.6279 -0.2313  0.3874
 1246TIP3    H127933   4.030   4.604   8.971 -1.3033 -0.6214 -0.6265
 1246TIP3    H227934   4.079   4.614   8.828 -0.7030  0.2081 -0.3737
 1247TIP3   OH227935   4.020   6.407   8.813 -0.0160  0.0294  0.3028
 1247TIP3    H127936   4.103   6.416   8.766  0.1316 -1.0268  0.3534
 1247TIP3    H227937   3.995   6.498   8.834  0.3734  0.4538 -0.9927
 1248TIP3   OH227938   1.051   5.453   9.453 -0.0687  0.3928  0.1194
 1248TIP3    H127939   0.977   5.416   9.404  0.2720  0.2668 -0.3069
 1248TIP3    H227940   1.045   5.547   9.439 -0.0123  0.3623 -0.1037
 1249TIP3   OH227941   3.710   6.650   6.900 -0.8000  0.1032  0.0919
 1249TIP3    H127942   3.790   6.652   6.953 -1.0226  2.4478  0.4322
 1249TIP3    H227943   3.651   6.591   6.947  0.6732 -1.6561 -0.1606
 1250TIP3   OH227944   5.638   5.668   8.554  0.6005 -0.4123  0.0791
 1250TIP3    H127945   5.585   5.588   8.553 -1.4215  0.8492 -0.4625
 1250TIP3    H227946   5.625   5.703   8.643  0.3529 -0.0131 -0.1093
 1251TIP3   OH227947   3.357   4.836   8.019  0.2907 -0.5112  0.0603
 1251TIP3    H127948   3.428   4.772   8.008 -0.0007 -0.9676  0.7780
 1251TIP3    H227949   3.292   4.791   8.073  0.0572  0.3771  0.5376
 1252TIP3   OH227950   4.405   4.403   8.843  0.7931  0.5289  0.9863
 1252TIP3    H127951   4.493   4.400   8.805  0.5251 -1.3808  0.4126
 1252TIP3    H227952   4.379   4.311   8.850 -1.1081  1.0509  1.2621
 1253TIP3   OH227953   6.978   0.567   7.521 -0.1623 -0.1029 -0.2130
 1253TIP3    H127954   6.987   0.486   7.572  0.0561  0.0361 -0.0262
 1253TIP3    H227955   7.030   0.552   7.442  1.7552  0.6717  0.8314
 1254TIP3   OH227956   2.721   4.157   7.944  0.2108 -0.1225 -0.2832
 1254TIP3    H127957   2.679   4.199   7.869  1.0132  0.1701 -0.5758
 1254TIP3    H227958   2.659   4.171   8.017  0.1314  0.9277 -0.5421
 1255TIP3   OH227959   5.033   0.781   8.582 -0.0345  0.3761  0.0475
 1255TIP3    H127960   5.103   0.814   8.638  0.1602  0.6332 -0.3449
 1255TIP3    H227961   4.952   0.810   8.624  0.1335  1.7855 -0.5458
 1256TIP3   OH227962   2.895   5.881   9.307  0.1317  0.2705  0.3000
 1256TIP3    H127963   2.940   5.957   9.269  0.9277  0.1946  1.0628
 1256TIP3    H227964   2.942   5.806   9.270  0.2610  0.1782  0.6512
 1257TIP3   OH227965   0.383   5.407   9.012 -0.0163 -0.3536  0.2323
 1257TIP3    H127966   0.404   5.440   9.099 -1.4267  0.4854  0.2867
 1257TIP3    H227967   0.449   5.340   8.995  2.4334  1.8318  0.4902
 1258TIP3   OH227968   2.043   5.738   9.249  0.3012 -0.3563 -0.2071
 1258TIP3    H127969   2.133   5.761   9.272 -0.2386  1.0458  0.6337
 1258TIP3    H227970   2.013   5.810   9.193 -0.2356 -0.9191 -0.6606
 1259TIP3   OH227971   1.826   4.324   8.356 -0.0817  0.7769  0.1812
 1259TIP3    H127972   1.766   4.328   8.431  1.1020  2.1988  1.1235
 1259TIP3    H227973   1.894   4.262   8.384 -1.2949 -1.2376 -1.0902
 1260TIP3   OH227974   5.108   5.825   8.146  0.1177 -0.1844  0.5896
 1260TIP3    H127975   5.125   5.888   8.217  0.2710  1.9917 -1.2634
 1260TIP3    H227976   5.013   5.817   8.144  0.1137 -0.3069  1.0580
 1261TIP3   OH227977   1.018   4.745   9.057  0.8070  0.0230 -0.0398
 1261TIP3    H127978   1.002   4.830   9.016  1.3358  0.1607  0.0355
 1261TIP3    H227979   1.061   4.766   9.140 -0.6434 -0.2333  0.8047
 1262TIP3   OH227980   1.810   2.483   9.238  0.0243  0.1421 -0.2861
 1262TIP3    H127981   1.755   2.405   9.244  1.3278 -0.8442 -0.6228
 1262TIP3    H227982   1.837   2.501   9.328 -0.9258  0.7206 -0.0988
 1263TIP3   OH227983   0.127   4.109   8.033  0.5786 -0.1370  0.2423
 1263TIP3    H127984   0.205   4.067   8.069  0.5604  0.3662  0.8824
 1263TIP3    H227985   0.054   4.059   8.069  0.5701  0.2021  0.7158
 1264TIP3   OH227986   7.085   0.647   8.616  0.2609  0.0454 -0.2152
 1264TIP3    H127987   7.150   0.715   8.602  0.6058 -0.5474 -1.5665
 1264TIP3    H227988   7.118   0.596   8.690  1.4963 -0.4253 -1.0685
 1265TIP3   OH227989   3.742   4.359   9.303  0.1663 -0.5892 -0.0238
 1265TIP3    H127990   3.822   4.308   9.319  0.1169 -0.6067  0.1728
 1265TIP3    H227991   3.770   4.450   9.309  0.1427 -0.5962  0.1933
 1266TIP3   OH227992   2.702   0.401   6.716  0.6906 -0.2843  0.1888
 1266TIP3    H127993   2.646   0.456   6.771  0.0437 -0.9924  0.2387
 1266TIP3    H227994   2.773   0.460   6.690  0.3250  0.4181  0.7239
 1267TIP3   OH227995   5.302   7.015   9.437  0.3508 -0.2432 -0.1305
 1267TIP3    H127996   5.314   7.068   9.358  2.5097  1.0510  0.9766
 1267TIP3    H227997   5.372   7.043   9.496 -1.5196 -0.7535  2.5108
 1268TIP3   OH227998   4.678   2.435   9.126 -0.0879  0.0463  0.1378
 1268TIP3    H127999   4.762   2.392   9.110 -0.2608  0.3510 -1.8941
 1268TIP3    H228000   4.702   2.519   9.167  0.5281 -0.2225  0.3404
 1269TIP3   OH228001   7.104   2.349   7.797 -0.4410 -0.1863  0.0217
 1269TIP3    H128002   7.185   2.397   7.814 -0.4446 -0.8347  2.1508
 1269TIP3    H228003   7.082   2.371   7.707  1.3581  1.0975 -0.1645
 1270TIP3   OH228004   5.652   3.994   8.376 -0.0978  0.3061  0.8535
 1270TIP3    H128005   5.561   4.004   8.404  0.3250  0.2985  2.3365
 1270TIP3    H228006   5.682   4.083   8.361  0.1371  0.4573  2.0938
 1271TIP3   OH228007   2.151   5.433   9.548 -0.0451 -0.4713  0.3540
 1271TIP3    H128008   2.093   5.508   9.534 -2.0119 -1.9445  0.0112
 1271TIP3    H228009   2.211   5.461   9.616 -1.0912  1.2198  0.6410
 1272TIP3   OH228010   6.491   4.405   8.430  0.1905 -0.4509  0.3999
 1272TIP3    H128011   6.434   4.477   8.457 -0.2197  0.4784 -2.6203
 1272TIP3    H228012   6.454   4.328   8.474 -1.6727  0.5828  0.7548
 1273TIP3   OH228013   2.851   4.517   9.694  0.2980 -0.2299  0.0620
 1273TIP3    H128014   2.759   4.542   9.683  0.3741  0.2335  0.4468
 1273TIP3    H228015   2.899   4.572   9.633  0.0195 -2.9728 -2.8663
 1274TIP3   OH228016   4.029   1.043   9.716 -0.2713  0.1617  0.2206
 1274TIP3    H128017   3.953   1.096   9.692 -0.0735  0.5028  0.3351
 1274TIP3    H228018   4.007   1.007   9.802 -1.4541 -1.9693 -0.9051
 1275TIP3   OH228019   6.321   6.593   7.447 -0.6796 -0.8025  0.1851
 1275TIP3    H128020   6.387   6.594   7.517  0.0817  1.5356 -0.4894
 1275TIP3    H228021   6.240   6.618   7.491 -0.5482 -0.9118  0.4970
 1276TIP3   OH228022   1.480   1.363   9.177 -0.1803  0.1812  0.4203
 1276TIP3    H128023   1.513   1.390   9.091 -0.2735 -0.9054  0.0308
 1276TIP3    H228024   1.404   1.308   9.158 -0.7710  0.6927  1.2360
 1277TIP3   OH228025   0.733   1.884   8.078 -0.2290  0.4074 -0.3335
 1277TIP3    H128026   0.709   1.923   7.994 -1.6007 -1.5212 -0.9032
 1277TIP3    H228027   0.678   1.806   8.085  0.6806 -0.1096  1.8408
 1278TIP3   OH228028   3.517   3.785   9.275 -0.0428 -0.2214 -0.1665
 1278TIP3    H128029   3.569   3.857   9.311 -0.8570 -0.0097  0.6295
 1278TIP3    H228030   3.531   3.790   9.180  1.7566 -0.4759  0.0427
 1279TIP3   OH228031   6.970   0.233   8.376  0.7574  0.0162  0.3074
 1279TIP3    H128032   6.963   0.217   8.470 -1.3296  0.5953  0.2938
 1279TIP3    H228033   7.002   0.323   8.369 -1.0725  0.7330  0.5379
 1280TIP3   OH228034   6.007   0.950   8.501  0.3993  0.4375  0.7217
 1280TIP3    H128035   6.052   0.967   8.418 -0.5928  2.5719  0.5551
 1280TIP3    H228036   6.030   0.860   8.523  2.3467  0.5037 -0.8177
 1281TIP3   OH228037   7.201   4.529   8.788  0.2887 -1.2039 -0.5747
 1281TIP3    H128038   7.105   4.523   8.787  0.3481 -2.6173 -0.9131
 1281TIP3    H228039   7.222   4.589   8.717 -0.4000  0.9131  0.9248
 1282TIP3   OH228040   0.573   2.770   8.880  0.1929 -0.0620  0.3780
 1282TIP3    H128041   0.601   2.848   8.927  1.0004  0.2498 -0.5827
 1282TIP3    H228042   0.538   2.803   8.797 -0.0779 -0.6720  0.2413
 1283TIP3   OH228043   1.657   4.836   8.341  0.9822  0.0111 -0.3781
 1283TIP3    H128044   1.682   4.744   8.332 -1.7354 -0.9640  0.9265
 1283TIP3    H228045   1.726   4.875   8.394  1.8974 -1.4131 -0.4797
 1284TIP3   OH228046   6.475   4.941   8.976  0.8899  0.3127  0.3229
 1284TIP3    H128047   6.526   5.006   8.927  3.2062 -1.0550  0.7686
 1284TIP3    H228048   6.529   4.862   8.974 -1.3761 -1.3477  0.6441
 1285TIP3   OH228049   0.517   4.190   9.216 -0.0531  0.9454 -0.1509
 1285TIP3    H128050   0.547   4.213   9.128  0.1196  3.7485  0.5300
 1285TIP3    H228051   0.567   4.248   9.274 -1.0400  0.0393  1.6851
 1286TIP3   OH228052   5.460   6.263   8.532 -0.3981  0.2302  0.1278
 1286TIP3    H128053   5.542   6.271   8.581  0.7296 -0.7508 -1.4721
 1286TIP3    H228054   5.479   6.302   8.447 -0.9629 -1.6163 -0.9087
 1287TIP3   OH228055   7.265   0.834   8.599  0.3334  0.6761  0.3302
 1287TIP3    H128056   7.226   0.892   8.665  2.8864  1.9340  0.8516
 1287TIP3    H228057   7.359   0.840   8.614  0.7898 -3.3361  0.0840
 1288TIP3   OH228058   1.221   3.829   7.791  0.1142 -0.6000  0.1200
 1288TIP3    H128059   1.285   3.763   7.765  1.3069  0.5915 -0.0905
 1288TIP3    H228060   1.155   3.827   7.722 -0.3708 -2.2006  0.6044
 1289TIP3   OH228061   3.306   0.831   7.273 -0.4453 -0.2048 -0.4951
 1289TIP3    H128062   3.226   0.828   7.325  0.4947 -1.1881  0.9765
 1289TIP3    H228063   3.356   0.903   7.310  0.0450 -0.6399 -0.2929
 1290TIP3   OH228064   0.533   3.301   9.078  0.1687  0.3262 -0.1282
 1290TIP3    H128065   0.557   3.222   9.030  2.1018  1.6211 -1.4315
 1290TIP3    H228066   0.439   3.313   9.059 -0.1275 -1.5206 -0.0135
 1291TIP3   OH228067   4.815   3.313   9.504  0.3284  1.1933 -0.1297
 1291TIP3    H128068   4.811   3.375   9.431 -2.1331  1.2529 -0.0249
 1291TIP3    H228069   4.796   3.367   9.581 -1.4453  0.4543  0.0028
 1292TIP3   OH228070   6.004   4.157   8.135 -0.5103 -0.1688  0.0050
 1292TIP3    H128071   6.041   4.195   8.215  0.8401 -0.5200 -0.4201
 1292TIP3    H228072   6.022   4.222   8.067  1.0755 -1.1462 -0.5663
 1293TIP3   OH228073   1.666   6.041   6.687 -0.0958 -0.8699 -0.1754
 1293TIP3    H128074   1.749   6.004   6.658  0.2782 -1.3153  1.3540
 1293TIP3    H228075   1.681   6.135   6.691  1.1757 -1.0775  2.3282
 1294TIP3   OH228076   3.228   3.015   8.084 -0.2561 -0.0885  0.1124
 1294TIP3    H128077   3.218   2.944   8.020  0.4900  0.7894 -1.0113
 1294TIP3    H228078   3.217   3.095   8.034  0.7722  0.6350  0.9970
 1295TIP3   OH228079   5.726   1.802   8.415  0.4348  0.4032  0.5023
 1295TIP3    H128080   5.724   1.749   8.335  0.4367 -1.1085  1.4509
 1295TIP3    H228081   5.787   1.756   8.473 -0.6457  0.6445  1.8985
 1296TIP3   OH228082   2.358   6.809   7.719  0.0916 -0.5146 -0.4703
 1296TIP3    H128083   2.379   6.864   7.644  0.6337  0.3539  0.2950
 1296TIP3    H228084   2.395   6.723   7.698  0.4490 -0.2140 -1.0845
 1297TIP3   OH228085   3.610   0.950   9.151 -0.3463 -0.1737  0.9309
 1297TIP3    H128086   3.582   0.911   9.068  0.2290  1.0460  0.1417
 1297TIP3    H228087   3.619   0.875   9.210 -0.5404 -1.0897 -0.1618
 1298TIP3   OH228088   2.422   4.378   8.363 -0.1974 -0.1683 -0.0119
 1298TIP3    H128089   2.428   4.439   8.437 -0.8359 -0.0945 -0.0194
 1298TIP3    H228090   2.472   4.301   8.392  0.8106  0.4317 -0.0891
 1299TIP3   OH228091   2.603   0.378   8.334  0.1292  0.1972 -0.2653
 1299TIP3    H128092   2.510   0.373   8.314  0.3888  0.2923 -1.5707
 1299TIP3    H228093   2.645   0.319   8.272  0.7806 -1.6114  1.7493
 1300TIP3   OH228094   1.482   3.558   6.716 -0.0853 -0.0945  0.3208
 1300TIP3    H128095   1.491   3.490   6.784 -0.8505  0.6781  1.2246
 1300TIP3    H228096   1.572   3.577   6.689  0.1228 -1.9233 -0.4397
 1301TIP3   OH228097   7.467   2.180   8.072  0.4344 -0.2322  0.0444
 1301TIP3    H128098   7.535   2.217   8.128  1.3975 -0.9793 -0.5971
 1301TIP3    H228099   7.473   2.230   7.990 -1.9159  1.8433  0.9774
 1302TIP3   OH228100   6.918   5.488   8.557 -0.0299  0.6045 -0.0105
 1302TIP3    H128101   6.902   5.514   8.466 -0.2377 -2.1122 -0.8382
 1302TIP3    H228102   6.830   5.475   8.593  0.0653  0.5215  0.1900
 1303TIP3   OH228103   2.389   3.673   8.817  0.6513  0.3162 -0.6142
 1303TIP3    H128104   2.341   3.718   8.887  0.2888 -0.1608 -0.5457
 1303TIP3    H228105   2.424   3.594   8.860 -0.8799 -0.7980 -1.2992
 1304TIP3   OH228106   3.514   4.947   8.657 -0.1065 -0.1013  0.9075
 1304TIP3    H128107   3.582   5.014   8.658 -1.3294  1.2287 -0.2061
 1304TIP3    H228108   3.486   4.940   8.749 -0.6812  1.7386  0.9178
 1305TIP3   OH228109   5.553   6.861   7.567  0.0329 -0.0098 -0.0807
 1305TIP3    H128110   5.527   6.774   7.536  1.0601  0.1328 -1.4665
 1305TIP3    H228111   5.643   6.871   7.536  0.1733  1.2692  0.6806
 1306TIP3   OH228112   6.909   6.388   8.121  0.0761 -0.3719  0.3720
 1306TIP3    H128113   6.949   6.456   8.175 -0.9155  1.3634 -0.9832
 1306TIP3    H228114   6.822   6.376   8.159 -0.0542 -0.2736  0.1061
 1307TIP3   OH228115   4.849   0.332   9.061  0.2948  0.3297 -0.6735
 1307TIP3    H128116   4.889   0.294   9.139 -0.6229  1.0527  0.1823
 1307TIP3    H228117   4.798   0.406   9.094 -0.6893  0.2185 -1.8710
 1308TIP3   OH228118   7.042   3.842   7.495  0.5918  0.2474  0.8405
 1308TIP3    H128119   7.016   3.934   7.496  0.6963  0.2823  0.2769
 1308TIP3    H228120   7.108   3.836   7.564  3.4066  1.4264 -1.5831
 1309TIP3   OH228121   2.307   3.026   8.355  0.1591  0.2634 -0.0434
 1309TIP3    H128122   2.242   2.983   8.299 -0.1871  1.6701 -0.7826
 1309TIP3    H228123   2.342   2.956   8.410 -1.1815 -0.7337 -0.4035
 1310TIP3   OH228124   6.398   1.271   9.600  0.1271  0.5535 -0.6293
 1310TIP3    H128125   6.461   1.331   9.642  1.8464 -0.8903 -1.0011
 1310TIP3    H228126   6.383   1.308   9.514 -0.3491  1.4637 -0.1650
 1311TIP3   OH228127   2.557   7.304   8.782  0.2442  0.4213 -0.1912
 1311TIP3    H128128   2.625   7.244   8.811 -0.5487 -0.3911  0.0501
 1311TIP3    H228129   2.576   7.386   8.828  0.6177 -0.0260  0.4758
 1312TIP3   OH228130   2.918   3.532   8.235 -0.1952  0.2207 -0.7601
 1312TIP3    H128131   2.876   3.462   8.286  2.6431 -1.4049 -0.4441
 1312TIP3    H228132   2.917   3.501   8.145 -0.5045  0.6152 -0.8956
 1313TIP3   OH228133   1.407   2.613   9.076 -0.7102 -0.4964 -0.0196
 1313TIP3    H128134   1.377   2.543   9.134 -0.8865 -0.4286 -0.0278
 1313TIP3    H228135   1.358   2.690   9.105  0.0246 -0.2013  0.4807
 1314TIP3   OH228136   2.803   0.221   8.489  1.0198 -0.1470 -0.1154
 1314TIP3    H128137   2.809   0.293   8.552  1.5423  0.2734 -0.6262
 1314TIP3    H228138   2.760   0.260   8.412 -0.5046 -0.9059  0.3183
 1315TIP3   OH228139   6.242   6.534   8.274 -0.2821 -0.8405  0.0597
 1315TIP3    H128140   6.247   6.538   8.369 -0.7546 -1.3043  0.1093
 1315TIP3    H228141   6.205   6.619   8.248 -0.8232 -0.9888  0.3416
 1316TIP3   OH228142   5.599   5.228   9.067  1.0216  0.1304  0.7715
 1316TIP3    H128143   5.585   5.137   9.042 -0.2639  0.1182  1.4358
 1316TIP3    H228144   5.635   5.223   9.156 -1.4979  0.2472  1.8985
 1317TIP3   OH228145   4.990   3.861   7.550  0.4338 -0.0992  0.4500
 1317TIP3    H128146   5.053   3.860   7.622  0.6172  1.5812  0.3465
 1317TIP3    H228147   4.927   3.792   7.573  0.7561  0.0763  1.9797
 1318TIP3   OH228148   0.194   3.473   7.449 -0.2722 -0.4568  0.3247
 1318TIP3    H128149   0.166   3.540   7.512  0.5090 -1.8020  2.1908
 1318TIP3    H228150   0.116   3.418   7.437 -0.2509 -0.5509  0.6063
 1319TIP3   OH228151   5.727   7.476   9.408 -0.4040 -0.5561 -0.4415
 1319TIP3    H128152   5.658   7.411   9.419 -0.2331 -0.7046 -0.2574
 1319TIP3    H228153   5.680   7.556   9.384 -0.8264 -0.1499  1.5538
 1320TIP3   OH228154   5.308   1.782   8.765  0.1662 -0.6569 -0.5748
 1320TIP3    H128155   5.232   1.728   8.744  0.2016 -0.3278 -1.6131
 1320TIP3    H228156   5.271   1.858   8.810 -0.3004  0.1388 -2.2250
 1321TIP3   OH228157   1.546   2.885   8.365  0.5798 -0.3228  0.4281
 1321TIP3    H128158   1.536   2.971   8.406  1.0983  0.2665 -0.6364
 1321TIP3    H228159   1.518   2.823   8.432 -0.7232  0.7159  0.8971
 1322TIP3   OH228160   5.637   5.423   7.756 -0.1402  0.2343  0.8306
 1322TIP3    H128161   5.654   5.375   7.837  1.4043  0.6879  0.8128
 1322TIP3    H228162   5.594   5.360   7.699  1.4165 -1.0104  0.9762
 1323TIP3   OH228163   4.931   1.817   8.277 -0.3066  0.0926 -0.2514
 1323TIP3    H128164   4.967   1.751   8.335 -1.4960  0.4633  0.9676
 1323TIP3    H228165   4.911   1.770   8.196  1.4459 -0.4179 -0.4224
 1324TIP3   OH228166   4.916   0.692   8.193  0.0712  0.0469 -0.1769
 1324TIP3    H128167   4.848   0.641   8.150  0.2435  0.8790 -1.4700
 1324TIP3    H228168   4.925   0.651   8.279 -1.3473 -0.7013 -0.3516
 1325TIP3   OH228169   1.818   3.978   8.203  0.2656  0.2200  0.1462
 1325TIP3    H128170   1.910   3.953   8.214  0.3709  1.2046  1.8062
 1325TIP3    H228171   1.821   4.063   8.158 -0.0251 -1.3896 -3.2845
 1326TIP3   OH228172   7.161   1.226   8.920  0.6826 -0.0658 -0.1414
 1326TIP3    H128173   7.196   1.137   8.927 -0.6667 -0.8086 -1.9737
 1326TIP3    H228174   7.231   1.276   8.878  1.2954 -0.3354  0.5332
 1327TIP3   OH228175   3.302   1.246   8.433 -0.2387  0.0309  0.1463
 1327TIP3    H128176   3.250   1.314   8.390  0.8813  0.8843  0.0940
 1327TIP3    H228177   3.359   1.294   8.494  3.0636 -0.3903 -2.3227
 1328TIP3   OH228178   7.231   1.654   9.440 -0.5044 -0.5390  0.0964
 1328TIP3    H128179   7.202   1.579   9.492  0.4606 -1.9801 -1.3483
 1328TIP3    H228180   7.162   1.666   9.375 -0.6011 -0.2504  0.2516
 1329TIP3   OH228181   6.121   5.821   8.485  0.0930 -0.0260  0.4441
 1329TIP3    H128182   6.054   5.780   8.539 -2.1695  0.8336 -1.5505
 1329TIP3    H228183   6.130   5.910   8.520  0.1770 -0.1352  0.6989
 1330TIP3   OH228184   2.564   4.955   7.043 -0.3059  0.6241 -0.2347
 1330TIP3    H128185   2.568   5.046   7.072  2.2196  0.1609  1.1500
 1330TIP3    H228186   2.497   4.954   6.975 -1.0411  3.3163  0.3458
 1331TIP3   OH228187   6.248   6.890   7.167 -0.3453 -0.3617 -0.4924
 1331TIP3    H128188   6.221   6.957   7.104  1.3238  0.8249 -0.0063
 1331TIP3    H228189   6.343   6.900   7.174 -0.3300 -1.3308  1.2381
 1332TIP3   OH228190   3.203   4.931   6.875  0.1928 -0.4004 -0.4604
 1332TIP3    H128191   3.184   4.968   6.788 -0.0285  0.6145 -0.0004
 1332TIP3    H228192   3.172   4.998   6.936  0.9757 -0.7939  0.3865
 1333TIP3   OH228193   1.632   2.528   8.585 -0.4692 -0.4255 -0.6279
 1333TIP3    H128194   1.574   2.604   8.579 -1.5250 -1.2769 -1.7470
 1333TIP3    H228195   1.626   2.487   8.499 -2.0884 -3.2972  0.7295
 1334TIP3   OH228196   1.093   0.689   8.469  0.7024  0.1271  0.4831
 1334TIP3    H128197   1.139   0.706   8.386 -2.8636  0.1364 -1.7084
 1334TIP3    H228198   1.039   0.767   8.482 -3.0705 -2.0597 -0.4515
 1335TIP3   OH228199   7.058   0.399   9.433 -0.2524 -0.2232 -0.0488
 1335TIP3    H128200   7.110   0.319   9.428 -0.3278 -0.3105  0.4790
 1335TIP3    H228201   7.119   0.469   9.408 -0.0248 -0.3830  0.0617
 1336TIP3   OH228202   1.212   1.483   9.237  0.4767  0.2971 -0.0246
 1336TIP3    H128203   1.147   1.517   9.176  1.2459  2.0275  0.0703
 1336TIP3    H228204   1.223   1.391   9.212 -2.2169 -0.1589  0.1781
 1337TIP3   OH228205   6.876   4.166   6.855  0.1188  0.1881 -0.1897
 1337TIP3    H128206   6.941   4.109   6.897 -0.4356  0.3050  0.8465
 1337TIP3    H228207   6.834   4.109   6.791 -0.7526 -0.7441  1.1556
 1338TIP3   OH228208   2.602   6.604   9.585  0.0913 -0.3599  0.0850
 1338TIP3    H128209   2.678   6.657   9.562  1.5427 -1.9171  1.0478
 1338TIP3    H228210   2.540   6.666   9.623  0.3571  1.1392 -1.7691
 1339TIP3   OH228211   5.017   2.409   7.551  0.3440  0.3411  0.1173
 1339TIP3    H128212   4.927   2.385   7.530  0.5702  0.5247 -1.1388
 1339TIP3    H228213   5.047   2.339   7.609 -0.7861  0.5941  1.0499
 1340TIP3   OH228214   1.036   3.267   6.983 -0.2607 -0.4959  0.4096
 1340TIP3    H128215   1.004   3.354   7.006  0.4949 -0.2561  0.6055
 1340TIP3    H228216   1.066   3.277   6.892 -2.1302 -1.1234 -0.3228
 1341TIP3   OH228217   5.902   3.905   8.044  0.3667  0.1342 -0.0681
 1341TIP3    H128218   5.967   3.835   8.041  0.7649  0.4935  0.1255
 1341TIP3    H228219   5.948   3.980   8.081  0.0000  0.5590 -0.4511
 1342TIP3   OH228220   5.345   5.780   9.461  0.2480  0.7806  0.4703
 1342TIP3    H128221   5.369   5.738   9.544 -0.5402  0.3966  0.5140
 1342TIP3    H228222   5.380   5.722   9.394  0.6606  0.9569  0.5301
 1343TIP3   OH228223   4.501   0.623   7.848  0.2717 -0.1157 -0.0804
 1343TIP3    H128224   4.432   0.620   7.914 -1.6513  0.3946 -1.9303
 1343TIP3    H228225   4.509   0.716   7.826  0.9799 -0.2567 -0.4527
 1344TIP3   OH228226   2.514   0.087   7.526  0.1899 -0.3929  0.0031
 1344TIP3    H128227   2.606   0.062   7.531  0.5931 -0.0138 -3.1748
 1344TIP3    H228228   2.515   0.183   7.526 -0.4730 -0.3427  2.3237
 1345TIP3   OH228229   1.114   4.926   9.809 -0.9497 -0.5734  0.5193
 1345TIP3    H128230   1.172   4.978   9.754 -1.3688  0.2413  0.8365
 1345TIP3    H228231   1.160   4.919   9.893 -1.0278 -0.4611  0.5717
 1346TIP3   OH228232   6.348   3.492   7.841 -0.3269  0.1835 -0.0578
 1346TIP3    H128233   6.435   3.479   7.877 -1.2094 -2.0532  1.4833
 1346TIP3    H228234   6.335   3.420   7.780 -1.1485  0.4090 -0.1718
 1347TIP3   OH228235   3.478   7.304   8.584  0.6944  0.1445  0.0432
 1347TIP3    H128236   3.426   7.313   8.664 -1.4517 -2.4368 -0.9102
 1347TIP3    H228237   3.448   7.376   8.528  2.2115  1.9653  1.4426
 1348TIP3   OH228238   7.130   2.684   9.209  0.0999  0.3435 -0.3838
 1348TIP3    H128239   7.116   2.777   9.192  0.2697  0.5472  0.4996
 1348TIP3    H228240   7.226   2.674   9.214  0.1191 -0.0603 -1.3795
 1349TIP3   OH228241   6.951   4.785   9.271  0.0376 -0.1691  0.2393
 1349TIP3    H128242   6.867   4.764   9.311 -0.1364 -0.3863 -0.2286
 1349TIP3    H228243   6.972   4.873   9.304  0.5394 -0.8499  1.8261
 1350TIP3   OH228244   1.585   2.138   9.495 -0.0916  0.1536  0.9411
 1350TIP3    H128245   1.623   2.209   9.546  0.6915 -0.7338  1.6448
 1350TIP3    H228246   1.649   2.121   9.426 -0.7258  0.7483  0.1879
 1351TIP3   OH228247   6.081   4.271   8.942  0.2379  0.1045 -0.0388
 1351TIP3    H128248   6.088   4.289   9.036  0.3668  0.1067 -0.0481
 1351TIP3    H228249   6.147   4.327   8.902  1.4007 -1.1526  0.0251
 1352TIP3   OH228250   5.323   0.440   7.631 -0.2409  0.1952 -0.0680
 1352TIP3    H128251   5.292   0.454   7.720  2.3647 -1.6572  1.2705
 1352TIP3    H228252   5.321   0.345   7.620 -2.2914  0.4217 -2.7802
 1353TIP3   OH228253   5.702   1.908   8.109  0.2423  0.1622 -0.1469
 1353TIP3    H128254   5.702   1.823   8.154  0.2350  0.1666 -0.1385
 1353TIP3    H228255   5.610   1.936   8.112  0.5242  1.0298  1.4965
 1354TIP3   OH228256   4.532   1.463   9.279 -0.2849 -0.0081  0.6422
 1354TIP3    H128257   4.445   1.434   9.306 -0.7967  0.1910 -0.7343
 1354TIP3    H228258   4.589   1.439   9.352 -1.1073 -2.1877  0.6241
 1355TIP3   OH228259   2.352   0.633   8.814 -0.0222 -0.1595 -0.5832
 1355TIP3    H128260   2.353   0.728   8.828  0.5507 -0.3495  0.8393
 1355TIP3    H228261   2.263   0.614   8.786  0.3322  1.0166 -2.7551
 1356TIP3   OH228262   6.157   1.868   8.627  0.3452  0.2606  0.4133
 1356TIP3    H128263   6.138   1.962   8.624 -0.7736  0.0175 -0.8399
 1356TIP3    H228264   6.164   1.842   8.535  0.4045 -0.9227  0.7429
 1357TIP3   OH228265   1.697   2.162   8.413  0.3639 -0.1876 -0.3909
 1357TIP3    H128266   1.763   2.221   8.449  0.1749  0.2535 -0.7541
 1357TIP3    H228267   1.747   2.089   8.376  0.6484  0.1816 -0.7337
 1358TIP3   OH228268   5.917   4.945   7.587 -0.1370 -0.2473  0.4271
 1358TIP3    H128269   5.878   4.867   7.547  0.6984 -0.7368  0.5607
 1358TIP3    H228270   5.989   4.913   7.640  0.3458  0.6300  0.3337
 1359TIP3   OH228271   6.395   7.148   9.069  0.0462  0.5187  0.1265
 1359TIP3    H128272   6.431   7.123   9.155 -0.3939  2.3824  0.9065
 1359TIP3    H228273   6.316   7.094   9.061 -0.1206  0.5884  1.0824
 1360TIP3   OH228274   3.292   3.972   9.227  0.2810  0.1004 -0.6758
 1360TIP3    H128275   3.346   3.968   9.148  1.2633 -0.8477  0.0046
 1360TIP3    H228276   3.206   3.940   9.201  0.6382 -0.3296 -1.3292
 1361TIP3   OH228277   5.867   7.363   8.754 -0.1049 -0.6881 -0.1368
 1361TIP3    H128278   5.931   7.329   8.817  2.1026  0.9090 -1.3700
 1361TIP3    H228279   5.837   7.445   8.793  1.0167  0.1346 -0.9172
 1362TIP3   OH228280   4.841   1.953   8.031  0.0843  0.4676 -0.2419
 1362TIP3    H128281   4.865   1.861   8.036 -1.0510  0.1956  1.0520
 1362TIP3    H228282   4.818   1.967   7.939  0.8631 -0.3713 -0.5754
 1363TIP3   OH228283   1.921   6.041   6.602 -0.2139  0.1985  0.2307
 1363TIP3    H128284   2.003   6.083   6.629 -0.3798 -0.1128  1.2402
 1363TIP3    H228285   1.944   5.995   6.521  0.4154  0.7357  0.0899
 1364TIP3   OH228286   5.508   5.563   9.396  0.0799  0.1582 -0.4184
 1364TIP3    H128287   5.601   5.555   9.371 -0.0225 -0.5442 -0.6096
 1364TIP3    H228288   5.462   5.567   9.312 -0.2537 -2.0109 -0.3965
 1365TIP3   OH228289   7.275   6.118   8.948  0.4265 -0.0012  0.0544
 1365TIP3    H128290   7.341   6.107   8.879  0.6055 -1.4927  0.4242
 1365TIP3    H228291   7.192   6.097   8.905  0.5210 -0.7865  0.2468
 1366TIP3   OH228292   5.926   3.213   8.533 -0.1309 -0.2207  0.1721
 1366TIP3    H128293   5.890   3.253   8.454 -2.0050  3.2015  2.5256
 1366TIP3    H228294   5.979   3.282   8.573 -1.4655 -0.8085  3.2258
 1367TIP3   OH228295   1.342   7.511   8.872  0.3358  0.1052  0.0541
 1367TIP3    H128296   1.398   7.524   8.948 -1.6950 -0.8686  1.8519
 1367TIP3    H228297   1.296   7.594   8.862  0.7875  0.3173 -0.2822
 1368TIP3   OH228298   6.301   6.167   6.893  0.4166 -0.2645 -0.4697
 1368TIP3    H128299   6.367   6.099   6.880 -0.0106 -0.5433 -1.2015
 1368TIP3    H228300   6.238   6.128   6.954  0.4476 -0.3316 -0.4810
 1369TIP3   OH228301   3.667   4.085   8.561  0.0681 -0.1761 -0.1628
 1369TIP3    H128302   3.699   4.175   8.562  0.8990 -0.4104 -2.2593
 1369TIP3    H228303   3.591   4.087   8.503  0.6010 -0.9738 -0.9077
 1370TIP3   OH228304   1.086   3.414   7.973  0.0377 -0.1816 -0.1222
 1370TIP3    H128305   1.043   3.490   8.013  0.0309  1.7574 -3.4308
 1370TIP3    H228306   1.172   3.411   8.016  0.5935  2.6677 -0.8104
 1371TIP3   OH228307   2.223   1.710   7.008 -0.6160 -0.3200 -0.1608
 1371TIP3    H128308   2.170   1.654   6.952  1.0162 -0.1063 -2.0141
 1371TIP3    H228309   2.301   1.730   6.956  1.1809 -0.3886  2.3052
 1372TIP3   OH228310   0.835   1.828   7.533  0.1194  0.2532 -0.0111
 1372TIP3    H128311   0.887   1.748   7.532  0.6558  0.5833  0.6929
 1372TIP3    H228312   0.830   1.852   7.626 -2.3390 -0.4478  0.1302
 1373TIP3   OH228313   0.898   6.334   8.015 -0.1363  0.9553 -0.2363
 1373TIP3    H128314   0.804   6.318   8.021  0.2336 -0.9562  1.9843
 1373TIP3    H228315   0.905   6.421   7.977 -2.7293  0.4138 -2.2434
 1374TIP3   OH228316   5.041   3.692   7.230 -0.1638  0.0891  0.3797
 1374TIP3    H128317   5.071   3.603   7.213  1.6308 -0.2896  4.3737
 1374TIP3    H228318   4.951   3.682   7.262  0.4071 -0.5039  1.8890
 1375TIP3   OH228319   0.299   4.864   9.033  0.0449  0.0666  0.3196
 1375TIP3    H128320   0.261   4.881   9.119 -0.4873  0.0877  0.0890
 1375TIP3    H228321   0.274   4.774   9.013 -0.4999  0.3088 -0.1361
 1376TIP3   OH228322   0.618   0.918   6.906 -0.3768  0.3197 -0.1675
 1376TIP3    H128323   0.691   0.972   6.935  0.7644 -1.2586  0.0135
 1376TIP3    H228324   0.571   0.973   6.843  0.7140  1.5061  0.0166
 1377TIP3   OH228325   4.685   5.148   8.243  0.1690  0.4739  0.3115
 1377TIP3    H128326   4.635   5.159   8.324  1.0169 -0.4477  0.9780
 1377TIP3    H228327   4.757   5.090   8.267  0.4158  0.1636 -1.1118
 1378TIP3   OH228328   3.746   4.604   9.024  0.1094  0.2009 -0.0579
 1378TIP3    H128329   3.759   4.518   8.984 -2.5250  0.1731 -1.0216
 1378TIP3    H228330   3.772   4.593   9.115  1.0866 -1.2227 -0.4740
 1379TIP3   OH228331   0.540   3.334   7.870 -0.3781  0.3199  0.1848
 1379TIP3    H128332   0.528   3.398   7.800 -1.8575  1.5883  1.5088
 1379TIP3    H228333   0.623   3.292   7.850 -1.3673 -0.3794 -3.0740
 1380TIP3   OH228334   2.889   0.535   7.210 -0.0847 -0.3905  0.0091
 1380TIP3    H128335   2.970   0.543   7.161  0.8297  0.6461  1.6283
 1380TIP3    H228336   2.826   0.499   7.147  1.5516 -1.0060 -1.3276
 1381TIP3   OH228337   3.663   0.333   6.785 -0.2385 -0.5908 -0.0677
 1381TIP3    H128338   3.722   0.388   6.838  0.3473 -1.8249  0.6240
 1381TIP3    H228339   3.575   0.359   6.812  0.0339 -0.2875  0.5540
 1382TIP3   OH228340   1.328   2.092   9.106  0.0372 -0.4630  0.0912
 1382TIP3    H128341   1.371   2.039   9.040 -1.4435  0.7720 -1.9790
 1382TIP3    H228342   1.361   2.181   9.091 -1.0266  0.0001  0.3416
 1383TIP3   OH228343   3.650   3.493   7.962 -0.5048  0.3615 -0.2889
 1383TIP3    H128344   3.590   3.430   7.922 -0.8884 -0.0467  0.8890
 1383TIP3    H228345   3.594   3.547   8.018  0.0954  0.5839  0.1051
 1384TIP3   OH228346   4.010   4.460   9.083  0.1281  0.4576  0.3418
 1384TIP3    H128347   3.960   4.418   9.013 -0.1926  2.3911 -0.6647
 1384TIP3    H228348   3.972   4.426   9.164  0.0343 -1.2918 -0.3755
 1385TIP3   OH228349   5.750   6.465   8.002 -0.5231  0.4371 -0.0777
 1385TIP3    H128350   5.844   6.482   8.008 -0.4788  0.4645 -0.8106
 1385TIP3    H228351   5.711   6.551   7.985 -0.7245  0.4874  0.5975
 1386TIP3   OH228352   0.952   3.377   7.735  0.0675 -0.2157 -0.0555
 1386TIP3    H128353   0.926   3.469   7.727 -0.9408 -0.4552  0.3079
 1386TIP3    H228354   1.026   3.379   7.796  1.0290  0.4922 -1.1905
 1387TIP3   OH228355   4.573   2.425   7.150  0.0306  0.0354 -0.3756
 1387TIP3    H128356   4.637   2.360   7.179  0.3536  0.6278  0.2863
 1387TIP3    H228357   4.616   2.509   7.165 -1.4380  0.5329  1.5313
 1388TIP3   OH228358   1.346   0.898   7.689  0.0194 -0.3623 -0.0346
 1388TIP3    H128359   1.284   0.949   7.636 -1.9424 -3.0177 -0.5016
 1388TIP3    H228360   1.343   0.939   7.775 -1.4782  0.3184 -0.3733
 1389TIP3   OH228361   0.299   4.346   7.169 -0.9730  0.0086 -0.4457
 1389TIP3    H128362   0.298   4.294   7.249  0.5541  1.3977  0.5603
 1389TIP3    H228363   0.296   4.437   7.200 -1.8236  0.5708 -2.0496
 1390TIP3   OH228364   4.161   4.381   7.176  0.3354  0.1962  0.0197
 1390TIP3    H128365   4.226   4.419   7.118  0.7595  0.6893  0.8039
 1390TIP3    H228366   4.078   4.393   7.130  0.8560 -1.2364 -1.4090
 1391TIP3   OH228367   4.745   2.212   7.208  0.0308  0.0810  0.8408
 1391TIP3    H128368   4.840   2.213   7.213  0.0372 -0.5187  0.9006
 1391TIP3    H228369   4.720   2.127   7.243 -0.5229  0.1870  0.7158
 1392TIP3   OH228370   0.097   0.372   7.785 -0.1608 -0.2949 -0.3774
 1392TIP3    H128371   0.187   0.368   7.817  0.3641 -0.4587 -1.8079
 1392TIP3    H228372   0.060   0.286   7.803 -0.5616  0.2504  1.6229
 1393TIP3   OH228373   1.448   1.969   8.857 -0.3651 -0.2989  0.2521
 1393TIP3    H128374   1.538   1.992   8.832 -0.3165  1.3060  1.6636
 1393TIP3    H228375   1.406   1.944   8.775  0.4389  2.3018 -1.0823
 1394TIP3   OH228376   5.800   2.068   8.566  0.1446 -0.1792  0.1023
 1394TIP3    H128377   5.823   2.001   8.631 -0.4871 -0.7712 -0.2629
 1394TIP3    H228378   5.779   2.018   8.487  0.0160  0.4793 -0.2900
 1395TIP3   OH228379   7.445   2.771   8.538 -0.0807 -0.2179  0.0121
 1395TIP3    H128380   7.357   2.742   8.559 -0.1704 -0.4312 -0.6490
 1395TIP3    H228381   7.501   2.726   8.602 -0.4410 -0.0987  0.4173
 1396TIP3   OH228382   2.300   2.703   6.936 -0.2753  0.5803 -0.4150
 1396TIP3    H128383   2.250   2.673   6.860 -0.5779 -0.0852  0.0341
 1396TIP3    H228384   2.389   2.711   6.904 -0.2695 -0.3709 -0.6847
 1397TIP3   OH228385   5.453   1.217   8.599  0.2953 -0.7282 -0.3257
 1397TIP3    H128386   5.454   1.254   8.687 -1.4136 -0.2910 -0.4639
 1397TIP3    H228387   5.370   1.245   8.561  0.4600 -1.9039 -1.6633
 1398TIP3   OH228388   2.173   1.901   7.591  0.3437 -0.2100 -0.1136
 1398TIP3    H128389   2.203   1.876   7.504  2.8114  0.7764  0.3849
 1398TIP3    H228390   2.086   1.939   7.576 -0.0310 -1.6210 -1.8791
 1399TIP3   OH228391   2.005   5.690   9.511  0.3000  0.1866 -0.2608
 1399TIP3    H128392   1.923   5.725   9.544  0.3158  0.2033 -0.2389
 1399TIP3    H228393   1.995   5.691   9.415  0.3804  0.4476 -0.2674
 1400TIP3   OH228394   2.455   0.032   8.030 -0.0794  0.3469  0.2871
 1400TIP3    H128395   2.439  -0.057   8.059 -1.1619  0.6595  0.6806
 1400TIP3    H228396   2.399   0.043   7.954 -1.8878  1.4764  1.7095
 1401TIP3   OH228397   5.240   4.023   7.473 -0.1034 -0.6550  0.4659
 1401TIP3    H128398   5.206   3.974   7.548  0.7281 -1.0157  0.6214
 1401TIP3    H228399   5.274   3.955   7.414 -1.2265 -0.4201 -0.5065
 1402TIP3   OH228400   6.096   2.127   8.691  0.0742  0.2800  0.0176
 1402TIP3    H128401   6.057   2.104   8.776  0.9720  1.4740  0.7774
 1402TIP3    H228402   6.023   2.165   8.641 -0.2430  0.4981  0.6338
 1403TIP3   OH228403   6.104   0.281   7.579  0.2685  0.1333  0.0004
 1403TIP3    H128404   6.039   0.294   7.648  0.1028  0.3529 -0.1943
 1403TIP3    H228405   6.180   0.332   7.607 -0.0472  0.7775 -0.3128
 1404TIP3   OH228406   3.097   6.689   8.633 -1.0201  0.3085  0.7461
 1404TIP3    H128407   3.134   6.773   8.606 -2.2534  0.4499 -0.6528
 1404TIP3    H228408   3.026   6.713   8.693 -0.5312  0.1728  1.3939
 1405TIP3   OH228409   5.068   7.454   7.518  0.1720 -0.8843 -0.6607
 1405TIP3    H128410   5.086   7.414   7.603 -0.1684 -0.7356 -0.5168
 1405TIP3    H228411   5.153   7.457   7.475  0.2748 -1.3559 -0.4973
 1406TIP3   OH228412   3.027   6.778   6.518 -0.0953 -0.1599 -0.1571
 1406TIP3    H128413   3.121   6.763   6.531 -0.2144 -0.6963  0.1122
 1406TIP3    H228414   2.989   6.772   6.606 -0.3744  0.1196 -0.2567
 1407TIP3   OH228415   7.026   0.338   8.875 -0.1639  0.1273 -1.1034
 1407TIP3    H128416   7.074   0.314   8.954 -1.0819  0.3357 -0.4686
 1407TIP3    H228417   7.029   0.434   8.872 -1.8974  0.2619 -0.1455
 1408TIP3   OH228418   1.966   5.600   8.071 -0.2164  0.1653  0.1009
 1408TIP3    H128419   2.062   5.600   8.074 -0.2080 -0.5748 -0.0174
 1408TIP3    H228420   1.940   5.534   8.134 -0.6933  1.0868  0.8927
 1409TIP3   OH228421   6.768   0.967   9.307 -0.2490 -0.4571 -0.2239
 1409TIP3    H128422   6.724   0.953   9.391 -0.3238 -0.0594 -0.1957
 1409TIP3    H228423   6.764   1.062   9.293 -1.0908 -0.6110 -1.1411
 1410TIP3   OH228424   2.640   2.489   7.637  0.3318  0.3053 -0.7807
 1410TIP3    H128425   2.633   2.506   7.543  0.0371 -1.6848 -1.1657
 1410TIP3    H228426   2.552   2.505   7.671  0.0731 -0.3695 -1.1178
 1411TIP3   OH228427   6.762   3.756   7.105  0.2069 -0.4133  0.1038
 1411TIP3    H128428   6.733   3.826   7.164 -0.6453  0.2752 -1.0926
 1411TIP3    H228429   6.852   3.738   7.131  0.2277  0.6935  0.8388
 1412TIP3   OH228430   4.755   6.064   8.889  0.2335  0.2049  0.4809
 1412TIP3    H128431   4.750   6.115   8.970 -0.1792  1.6283 -0.4231
 1412TIP3    H228432   4.679   6.006   8.893 -0.2585  0.8561  0.7318
 1413TIP3   OH228433   2.282   4.449   8.666  0.0426  0.6344 -0.1962
 1413TIP3    H128434   2.365   4.477   8.703  0.3411 -0.6974  0.1862
 1413TIP3    H228435   2.235   4.409   8.739 -0.0258 -0.5696 -0.8553
 1414TIP3   OH228436   0.716   2.621   7.579 -0.2535  0.5577 -0.6931
 1414TIP3    H128437   0.745   2.607   7.489  0.0235 -0.3150 -0.4783
 1414TIP3    H228438   0.678   2.709   7.579 -0.4814  0.4683 -1.7180
 1415TIP3   OH228439   5.129   1.638   8.148 -0.0423 -0.6890  0.1433
 1415TIP3    H128440   5.109   1.589   8.068  0.2872 -1.2558  0.4055
 1415TIP3    H228441   5.139   1.728   8.118 -0.2866 -0.8360 -0.4000
 1416TIP3   OH228442   2.642   2.115   7.983 -0.0617 -0.3295 -0.5378
 1416TIP3    H128443   2.629   2.199   8.027  1.0062 -0.6581  0.4397
 1416TIP3    H228444   2.554   2.077   7.978 -0.4834  0.5992 -0.5212
 1417TIP3   OH228445   2.380   3.959   8.281 -0.7080  0.4028 -0.2323
 1417TIP3    H128446   2.439   3.958   8.356 -1.5423  0.2788  0.4384
 1417TIP3    H228447   2.427   4.009   8.214  0.7653 -0.9048 -0.2340
 1418TIP3   OH228448   1.608   2.019   7.342 -0.5476  0.2444 -0.2047
 1418TIP3    H128449   1.678   1.960   7.371  1.0189  1.4304 -1.3732
 1418TIP3    H228450   1.633   2.045   7.253 -1.7118  1.8548 -0.1219
 1419TIP3   OH228451   4.845   5.557   8.669 -0.4348  0.0136 -0.6458
 1419TIP3    H128452   4.811   5.470   8.648  0.5722 -0.3054 -1.0215
 1419TIP3    H228453   4.851   5.601   8.584  1.9035 -0.6316 -0.8825
 1420TIP3   OH228454   0.181   3.410   7.133 -1.1341  0.1086 -0.0716
 1420TIP3    H128455   0.141   3.430   7.218 -1.1492 -1.2939  0.2721
 1420TIP3    H228456   0.108   3.381   7.078 -0.6069 -3.1922  0.7820
 1421TIP3   OH228457   7.075   1.353   8.518  0.1610 -0.1732 -0.2323
 1421TIP3    H128458   7.138   1.424   8.504  0.1595 -0.3552 -1.2462
 1421TIP3    H228459   7.015   1.386   8.585  0.4793  0.5649 -0.3041
 1422TIP3   OH228460   0.149   5.542   8.111 -0.1276 -0.2911 -0.2298
 1422TIP3    H128461   0.198   5.491   8.046 -0.9917  1.3699 -2.2872
 1422TIP3    H228462   0.216   5.595   8.154  0.6943 -2.5568  1.5101
 1423TIP3   OH228463   1.097   4.484   8.750  0.1718  0.6529 -0.0033
 1423TIP3    H128464   1.016   4.463   8.797 -0.5979  2.9685 -0.1397
 1423TIP3    H228465   1.166   4.443   8.801 -0.9753 -0.2431  0.8839
 1424TIP3   OH228466   1.479   5.579   8.150  0.2775 -0.1199  0.4143
 1424TIP3    H128467   1.522   5.651   8.196 -1.7231  0.5579  1.3341
 1424TIP3    H228468   1.418   5.542   8.215 -0.4537 -1.0873 -0.7753
 1425TIP3   OH228469   4.110   6.437   9.630 -0.0739 -0.0993 -0.6645
 1425TIP3    H128470   4.154   6.520   9.612  1.5337 -0.4388  1.2378
 1425TIP3    H228471   4.134   6.380   9.557 -0.5728  0.8532 -1.5991
 1426TIP3   OH228472   0.129   1.776   7.527 -0.0207  0.0316 -0.6519
 1426TIP3    H128473   0.158   1.692   7.493 -0.2431 -0.0827 -0.5637
 1426TIP3    H228474   0.179   1.841   7.477 -1.2151 -0.0843 -2.0606
 1427TIP3   OH228475   3.197   6.026   7.180 -0.2422 -0.5592 -0.8316
 1427TIP3    H128476   3.281   5.981   7.174  1.6484  2.7233 -1.1435
 1427TIP3    H228477   3.175   6.049   7.090 -0.4977  0.2317 -0.5762
 1428TIP3   OH228478   3.264   0.895   9.155  0.0058 -0.1683  0.7672
 1428TIP3    H128479   3.201   0.874   9.086 -0.9003  0.0209  1.5201
 1428TIP3    H228480   3.304   0.977   9.125  1.7049 -1.5163 -0.9094
 1429TIP3   OH228481   4.119   5.384   8.519  0.2771 -0.5190 -0.0600
 1429TIP3    H128482   4.115   5.326   8.443 -0.3303 -1.3557  0.6064
 1429TIP3    H228483   4.049   5.354   8.577  1.5079 -0.6942  1.4004
 1430TIP3   OH228484   3.439   7.225   9.330 -0.0236 -0.3839 -0.4528
 1430TIP3    H128485   3.485   7.304   9.360 -0.1557 -0.0566 -1.1103
 1430TIP3    H228486   3.466   7.157   9.392 -0.0612  0.2184  0.2320
 1431TIP3   OH228487   7.228   6.510   7.052 -0.0745 -0.3067  0.2470
 1431TIP3    H128488   7.174   6.472   6.983  0.1667 -0.3729  0.0916
 1431TIP3    H228489   7.228   6.604   7.033  0.4269 -0.3812 -0.1651
 1432TIP3   OH228490   3.564   4.749   7.457 -0.1707 -0.5832  0.1647
 1432TIP3    H128491   3.605   4.703   7.384  1.5407 -1.1674  1.4251
 1432TIP3    H228492   3.607   4.834   7.460  1.3038 -1.3265  1.7055
 1433TIP3   OH228493   0.350   1.588   9.071  0.1081 -0.6074  0.1031
 1433TIP3    H128494   0.404   1.567   8.995 -1.5774 -0.3853 -1.2307
 1433TIP3    H228495   0.326   1.680   9.058  0.2214 -0.4129  1.1965
 1434TIP3   OH228496   6.537   3.653   8.580 -0.4860  0.1646  0.3681
 1434TIP3    H128497   6.613   3.617   8.533  0.2103  1.6875  0.2813
 1434TIP3    H228498   6.470   3.663   8.513  0.2805  1.7006 -0.2024
 1435TIP3   OH228499   4.597   6.673   7.430  0.5572 -0.2813 -0.3123
 1435TIP3    H128500   4.668   6.624   7.471 -0.8087 -1.3032  0.9634
 1435TIP3    H228501   4.605   6.653   7.337  1.0691 -1.5741 -0.0202
 1436TIP3   OH228502   0.721   0.349   7.347 -0.1230  0.3784 -0.1766
 1436TIP3    H128503   0.707   0.440   7.376 -0.3010  0.4934 -0.6175
 1436TIP3    H228504   0.651   0.333   7.284 -0.3824 -0.2274  0.2499
 1437TIP3   OH228505   1.899   0.776   8.486 -0.3687  0.1153 -0.4638
 1437TIP3    H128506   1.807   0.798   8.501  0.1158  1.8958  0.0727
 1437TIP3    H228507   1.901   0.743   8.396 -1.4198  0.7591 -0.7369
 1438TIP3   OH228508   1.631   6.878   6.842  0.7207  0.0619 -0.4654
 1438TIP3    H128509   1.538   6.864   6.823  0.9968 -1.1756 -0.9833
 1438TIP3    H228510   1.659   6.797   6.886  0.8643  1.5630  2.4900
 1439TIP3   OH228511   1.068   2.933   7.222  0.0739 -0.3293 -0.6739
 1439TIP3    H128512   0.975   2.911   7.228  0.1875 -0.7272 -0.2823
 1439TIP3    H228513   1.070   3.028   7.230 -0.2964 -0.3196 -0.6483
 1440TIP3   OH228514   7.169   4.215   7.648  0.0134  0.5604  0.2410
 1440TIP3    H128515   7.259   4.183   7.638 -0.2444 -0.0142 -0.3180
 1440TIP3    H228516   7.124   4.145   7.694 -0.5536  0.0865 -0.9892
 1441TIP3   OH228517   2.089   2.606   8.797  0.9489 -0.1267 -0.1830
 1441TIP3    H128518   2.114   2.697   8.778  0.9053  0.1632  1.0705
 1441TIP3    H228519   2.106   2.596   8.890  0.8215 -1.3793 -0.2801
 1442TIP3   OH228520   0.972   3.719   8.830 -0.5008  0.2132  0.0746
 1442TIP3    H128521   0.996   3.627   8.838  0.2589  0.3692 -0.3068
 1442TIP3    H228522   1.021   3.751   8.754  2.1364  1.8146  2.2401
 1443TIP3   OH228523   7.021   3.302   9.163  0.1028 -0.3242  0.2941
 1443TIP3    H128524   7.066   3.346   9.235 -1.0801 -0.4851  1.1484
 1443TIP3    H228525   7.081   3.231   9.137  1.5987  1.1549 -0.4754
 1444TIP3   OH228526   6.325   0.332   7.892 -0.2414 -0.2752 -0.0641
 1444TIP3    H128527   6.328   0.369   7.804 -0.8938 -0.5242 -0.1944
 1444TIP3    H228528   6.262   0.388   7.939 -1.5173 -1.4008 -0.3644
 1445TIP3   OH228529   6.613   3.328   8.817 -0.0458  0.5944 -0.0644
 1445TIP3    H128530   6.678   3.361   8.878  1.0023 -0.6079 -0.4715
 1445TIP3    H228531   6.653   3.340   8.731 -0.7142  0.5960 -0.3786
 1446TIP3   OH228532   1.163   0.445   8.592 -0.7726 -0.1064  0.3588
 1446TIP3    H128533   1.137   0.515   8.532 -0.2754 -2.2016 -2.4988
 1446TIP3    H228534   1.081   0.407   8.622 -1.0327  1.1673  1.3585
 1447TIP3   OH228535   1.770   1.363   6.966  0.1624 -0.3634 -0.2752
 1447TIP3    H128536   1.727   1.446   6.947 -0.3020 -0.5734 -0.1549
 1447TIP3    H228537   1.701   1.297   6.955  0.6544 -0.7897 -0.8841
 1448TIP3   OH228538   0.539   0.633   9.507  0.1691  0.7910 -0.5778
 1448TIP3    H128539   0.607   0.566   9.516  0.3642  1.2347  2.6406
 1448TIP3    H228540   0.458   0.584   9.498  0.5338  0.1717 -0.5660
 1449TIP3   OH228541   0.144   4.587   8.375 -0.1926 -0.2331 -1.0971
 1449TIP3    H128542   0.140   4.502   8.419  1.4032 -0.1912 -0.8243
 1449TIP3    H228543   0.225   4.584   8.324 -0.9610  0.5166 -2.3928
 1450TIP3   OH228544   1.222   6.664   8.904  0.2242 -0.1107  0.6253
 1450TIP3    H128545   1.274   6.651   8.825  0.1596  0.6466  0.4528
 1450TIP3    H228546   1.267   6.734   8.951 -1.1023  1.1694  0.0488
 1451TIP3   OH228547   3.817   6.117   7.587 -0.0660  0.2416 -0.6167
 1451TIP3    H128548   3.810   6.127   7.492  0.8288  2.3362 -0.5219
 1451TIP3    H228549   3.886   6.052   7.599  0.0361  0.1929 -1.4240
 1452TIP3   OH228550   0.465   6.635   7.667 -0.1897 -0.2886  0.1077
 1452TIP3    H128551   0.440   6.543   7.668  0.3090 -0.4319  1.0071
 1452TIP3    H228552   0.386   6.681   7.638 -0.9045 -0.8863  1.0325
 1453TIP3   OH228553   5.312   2.252   7.958 -0.1536 -0.4727  0.4621
 1453TIP3    H128554   5.268   2.285   8.037 -1.3965  0.7117 -0.6738
 1453TIP3    H228555   5.403   2.277   7.969 -0.7493  1.9844  0.4181
 1454TIP3   OH228556   3.075   6.237   9.648  0.2549  0.0939  0.2247
 1454TIP3    H128557   3.005   6.244   9.583  0.9118  0.7075 -0.4407
 1454TIP3    H228558   3.068   6.317   9.699 -0.1405 -0.3000  0.7970
 1455TIP3   OH228559   3.649   5.428   8.639 -0.0718  0.3825 -0.1501
 1455TIP3    H128560   3.607   5.451   8.722 -1.0072  0.4174 -0.6194
 1455TIP3    H228561   3.584   5.375   8.593  1.5147 -2.0831  0.3105
 1456TIP3   OH228562   1.355   1.409   8.056 -0.1605 -0.3238 -0.0432
 1456TIP3    H128563   1.334   1.425   7.963 -0.5061 -0.9145 -0.0764
 1456TIP3    H228564   1.432   1.462   8.073  0.7269 -1.2380 -1.0489
 1457TIP3   OH228565   4.033   0.479   7.547 -0.6518  0.3520 -0.4185
 1457TIP3    H128566   3.997   0.567   7.546 -0.3170  0.5124  0.3960
 1457TIP3    H228567   4.100   0.481   7.616 -1.5078 -0.8679  0.5003
 1458TIP3   OH228568   3.903   1.631   8.456  0.3681  0.0490 -0.3316
 1458TIP3    H128569   3.871   1.634   8.547  2.5032 -0.2848  0.5034
 1458TIP3    H228570   3.887   1.541   8.428  1.2717 -0.3604  0.3860
 1459TIP3   OH228571   1.243   0.495   9.594 -0.2931 -0.3635  0.1041
 1459TIP3    H128572   1.217   0.499   9.686  1.1080 -1.0635  0.5648
 1459TIP3    H228573   1.197   0.418   9.559 -1.4829  0.3821 -0.0337
 1460TIP3   OH228574   5.147   3.850   7.782  0.2185  0.1099  0.0459
 1460TIP3    H128575   5.073   3.807   7.826  0.4679 -0.5084 -0.1340
 1460TIP3    H228576   5.224   3.818   7.828  0.3814  0.6762  0.1638
 1461TIP3   OH228577   7.057   6.296   7.381 -0.4705  0.4441  0.0296
 1461TIP3    H128578   7.135   6.277   7.328 -0.1163  0.2126  0.6130
 1461TIP3    H228579   7.001   6.219   7.369 -0.8742  0.8687 -0.8499
 1462TIP3   OH228580   2.364   7.367   8.305  0.2814  0.3581  0.2490
 1462TIP3    H128581   2.284   7.316   8.295 -0.1643  1.4471 -2.4439
 1462TIP3    H228582   2.434   7.302   8.301 -0.3710 -0.3685  0.2530
 1463TIP3   OH228583   2.171   3.442   9.442 -0.1625 -0.3146  0.2774
 1463TIP3    H128584   2.108   3.377   9.475 -0.5544 -0.3514 -0.5194
 1463TIP3    H228585   2.231   3.456   9.515 -0.5211 -1.0108  0.7208
 1464TIP3   OH228586   3.898   5.248   8.668 -0.1996 -0.2963 -0.2704
 1464TIP3    H128587   3.822   5.302   8.692  0.7849  0.5205  1.1879
 1464TIP3    H228588   3.872   5.158   8.689 -0.7476 -0.0110  0.3036
 1465TIP3   OH228589   1.210   7.004   9.277  0.2603 -0.2152  0.5721
 1465TIP3    H128590   1.241   6.967   9.194 -0.0315  3.2243 -1.2140
 1465TIP3    H228591   1.116   6.990   9.276  0.0439  1.1095 -0.4685
 1466TIP3   OH228592   1.717   3.080   9.493 -0.3842 -0.0542  0.2118
 1466TIP3    H128593   1.781   3.027   9.541  0.3832 -0.0082 -0.7279
 1466TIP3    H228594   1.706   3.159   9.547  0.0997 -0.2148  0.5524
 1467TIP3   OH228595   3.084   7.034   7.275 -0.3885  0.0967  0.1972
 1467TIP3    H128596   3.159   6.977   7.259 -0.8004 -1.2951  2.7308
 1467TIP3    H228597   3.015   6.999   7.218 -0.1683 -0.9489  0.5498
 1468TIP3   OH228598   4.688   2.326   8.619 -0.0058  0.0701  0.3081
 1468TIP3    H128599   4.763   2.303   8.673  2.1707  0.4258 -2.3514
 1468TIP3    H228600   4.700   2.275   8.539 -2.5352  0.3008 -0.3074
 1469TIP3   OH228601   4.684   7.505   8.754 -0.0527  0.4738  0.0999
 1469TIP3    H128602   4.657   7.421   8.791 -1.0438  1.0231  0.6588
 1469TIP3    H228603   4.697   7.561   8.830 -3.1354  1.9378 -0.3165
 1470TIP3   OH228604   0.043   6.476   9.081 -0.1676 -0.5073  0.0856
 1470TIP3    H128605   0.129   6.515   9.097 -0.7716  0.7758  0.3309
 1470TIP3    H228606   0.060   6.381   9.077  1.3621 -0.2386 -0.6151
 1471TIP3   OH228607   2.876   6.714   7.148 -0.6782 -0.9886 -0.2308
 1471TIP3    H128608   2.934   6.671   7.085  0.1624  0.3243 -0.3992
 1471TIP3    H228609   2.861   6.801   7.110 -0.1172 -0.1521  1.3757
 1472TIP3   OH228610   7.377   5.341   7.833  0.5270 -0.2962  0.2146
 1472TIP3    H128611   7.430   5.288   7.892 -0.3326 -0.3411  0.9835
 1472TIP3    H228612   7.324   5.278   7.784  1.1532 -0.2517 -0.5336
 1473TIP3   OH228613   0.659   0.145   7.503  0.0588  0.1111 -0.0100
 1473TIP3    H128614   0.684   0.226   7.458 -1.2675 -0.8646 -2.6731
 1473TIP3    H228615   0.715   0.078   7.465 -1.0227 -0.7318 -0.1562
 1474TIP3   OH228616   3.345   5.305   8.142 -0.1196 -0.1360 -0.3481
 1474TIP3    H128617   3.252   5.325   8.140  0.0568  0.8414  0.4485
 1474TIP3    H228618   3.381   5.363   8.209  0.9485 -0.9883 -0.1465
 1475TIP3   OH228619   3.345   2.167   9.179  0.2973  0.1890  0.0441
 1475TIP3    H128620   3.295   2.219   9.241  0.6791  1.5997 -0.7990
 1475TIP3    H228621   3.403   2.113   9.234 -1.7270 -1.1400  1.0214
 1476TIP3   OH228622   5.595   4.111   8.685  0.0531 -0.8056 -0.2498
 1476TIP3    H128623   5.573   4.019   8.697  0.6495 -0.9256 -0.0499
 1476TIP3    H228624   5.690   4.115   8.696 -0.2030  0.2051  2.1493
 1477TIP3   OH228625   5.019   2.882   9.594  0.6892 -0.0689 -0.3232
 1477TIP3    H128626   4.992   2.967   9.559  1.2134  0.4483  0.4974
 1477TIP3    H228627   4.940   2.847   9.636  1.4622  2.0497  3.2906
 1478TIP3   OH228628   3.460   7.485   9.383  0.3679 -0.4364 -0.8229
 1478TIP3    H128629   3.390   7.464   9.322 -0.7254 -0.1405  0.2945
 1478TIP3    H228630   3.503   7.561   9.344 -0.2843 -0.2799 -1.2516
 1479TIP3   OH228631   3.368   6.864   7.456  0.1128  0.1452 -0.7967
 1479TIP3    H128632   3.368   6.825   7.369  1.1657  0.1644 -0.8199
 1479TIP3    H228633   3.287   6.832   7.497 -0.2467 -0.0853 -1.6745
 1480TIP3   OH228634   2.129   3.312   6.643  0.5205 -0.0524  0.2074
 1480TIP3    H128635   2.147   3.239   6.584 -1.4115 -0.7529  0.4008
 1480TIP3    H228636   2.075   3.372   6.591  0.2442  0.1584  0.7311
 1481TIP3   OH228637   7.059   6.872   9.516  0.5023  0.1913  0.1337
 1481TIP3    H128638   7.142   6.904   9.480  0.5969  0.2405  0.3944
 1481TIP3    H228639   7.059   6.778   9.494 -0.4778  0.6246 -1.9761
 1482TIP3   OH228640   3.645   5.251   7.723  0.2185  0.2531  0.0490
 1482TIP3    H128641   3.716   5.311   7.701 -1.4134  2.9463  1.5971
 1482TIP3    H228642   3.680   5.199   7.796  1.1327  0.4138 -0.2625
 1483TIP3   OH228643   1.859   6.247   9.277  0.4579 -0.1108 -0.1536
 1483TIP3    H128644   1.864   6.283   9.365  0.5342  1.0065 -0.6029
 1483TIP3    H228645   1.798   6.304   9.230 -1.9332 -2.3611 -0.0608
 1484TIP3   OH228646   0.503   4.179   8.704 -0.3609 -0.2405  0.4611
 1484TIP3    H128647   0.408   4.172   8.714 -0.2875 -0.0322  1.3563
 1484TIP3    H228648   0.531   4.090   8.683 -0.6186 -0.5631  1.4520
 1485TIP3   OH228649   7.500   2.945   8.011 -0.2364 -0.0157 -0.0091
 1485TIP3    H128650   7.408   2.922   8.002  0.0640 -0.8795 -1.0339
 1485TIP3    H228651   7.547   2.880   7.958  0.8015  1.7102 -1.3064
 1486TIP3   OH228652   5.051   4.551   7.621  0.2854  0.3676  0.0978
 1486TIP3    H128653   5.089   4.563   7.709  0.7891 -0.9746  0.0875
 1486TIP3    H228654   4.958   4.535   7.637  0.3207  0.4109  0.3582
 1487TIP3   OH228655   2.124   6.831   7.893  0.7868 -0.2519  0.4021
 1487TIP3    H128656   2.203   6.838   7.839  1.6339 -0.3358  1.5950
 1487TIP3    H228657   2.065   6.896   7.856  2.0116  0.9353  0.4371
 1488TIP3   OH228658   1.713   5.308   9.514 -0.1278 -0.4530  0.0862
 1488TIP3    H128659   1.660   5.355   9.578 -0.9061 -0.2755 -0.6585
 1488TIP3    H228660   1.668   5.323   9.431  0.2583 -1.5764 -0.3417
 1489TIP3   OH228661   3.752   2.367   6.889 -0.2089  0.1689  0.2277
 1489TIP3    H128662   3.744   2.293   6.829 -1.5658  0.1496  0.3990
 1489TIP3    H228663   3.781   2.440   6.835  0.4483 -0.3028 -0.0739
 1490TIP3   OH228664   5.949   1.671   8.533 -0.1538 -0.1783 -0.0222
 1490TIP3    H128665   5.886   1.605   8.560 -0.7083 -0.8965 -2.7754
 1490TIP3    H228666   6.030   1.648   8.579 -0.8559 -1.5796  0.5533
 1491TIP3   OH228667   5.027   7.189   8.985 -0.2502  0.4612 -0.2809
 1491TIP3    H128668   5.031   7.239   8.903 -1.5695 -2.2818 -2.1565
 1491TIP3    H228669   5.092   7.120   8.974  0.7801  1.0173  1.7991
 1492TIP3   OH228670   0.124   3.013   9.119 -0.1337 -0.0951  0.4462
 1492TIP3    H128671   0.141   2.936   9.173 -0.0681  0.9941  2.0574
 1492TIP3    H228672   0.125   3.086   9.181 -1.1036  1.1017 -0.8925
 1493TIP3   OH228673   5.302   0.057   7.902  0.7244 -0.0011 -0.1812
 1493TIP3    H128674   5.341  -0.029   7.920 -0.5590 -0.3849  0.9340
 1493TIP3    H228675   5.336   0.081   7.816 -0.2243 -2.4157 -1.3159
 1494TIP3   OH228676   2.411   5.836   8.936 -0.0048  0.1575  0.1647
 1494TIP3    H128677   2.391   5.832   8.843 -3.7499  0.3575  0.7725
 1494TIP3    H228678   2.343   5.781   8.977  0.6057  1.2369  2.8433
 1495TIP3   OH228679   5.683   3.058   8.710  0.2452  0.2516 -0.2484
 1495TIP3    H128680   5.696   3.038   8.618  0.2508 -0.1516 -0.1613
 1495TIP3    H228681   5.659   2.974   8.750  1.1293  0.2430  0.2828
 1496TIP3   OH228682   3.639   7.483   7.182 -0.6944  0.8677 -0.1501
 1496TIP3    H128683   3.725   7.448   7.161 -0.6178  0.7025  0.4075
 1496TIP3    H228684   3.652   7.578   7.185 -0.7548  0.9062 -1.0147
 1497TIP3   OH228685   7.522   1.050   9.555  0.2212  0.2710 -0.2110
 1497TIP3    H128686   7.602   1.049   9.609 -0.2927  1.8624  0.6449
 1497TIP3    H228687   7.479   1.133   9.578 -1.7129 -0.5780 -0.5951
 1498TIP3   OH228688   2.378   4.229   9.937  0.4758 -0.0713  0.5903
 1498TIP3    H128689   2.393   4.310   9.986 -1.6716 -0.3666  1.8827
 1498TIP3    H228690   2.306   4.250   9.878  1.2353 -0.5011 -0.5144
 1499TIP3   OH228691   3.892   7.472   9.728 -0.4186  0.0045 -0.5019
 1499TIP3    H128692   3.913   7.555   9.771  1.7208 -0.3449 -0.7657
 1499TIP3    H228693   3.817   7.493   9.671  0.3314  1.8638 -0.8627
 1500TIP3   OH228694   1.421   3.542   7.485 -0.0842  0.5147  0.1545
 1500TIP3    H128695   1.387   3.570   7.570  0.2930  0.5964  0.2779
 1500TIP3    H228696   1.345   3.546   7.427 -0.6379 -0.7550  0.7641
 1501TIP3   OH228697   3.728   4.300   9.605 -0.0217 -0.2247  0.2479
 1501TIP3    H128698   3.652   4.294   9.663  0.9931 -0.6164  1.5927
 1501TIP3    H228699   3.693   4.334   9.522 -1.9120 -1.8070  0.3240
 1502TIP3   OH228700   6.827   6.324   7.680  0.7521  0.2633 -0.1000
 1502TIP3    H128701   6.882   6.361   7.748  0.0489 -0.4170  0.8705
 1502TIP3    H228702   6.872   6.244   7.653  0.3754 -0.1873  0.5534
 1503TIP3   OH228703   3.997   0.970   6.871  0.1706  0.0974  0.0218
 1503TIP3    H128704   4.090   0.950   6.859  0.3749 -0.1345  1.7602
 1503TIP3    H228705   3.952   0.887   6.852  0.3063  0.1855 -0.7311
 1504TIP3   OH228706   1.000   5.670   8.591  0.3237  0.2146 -0.3531
 1504TIP3    H128707   1.090   5.647   8.613  0.0242 -0.8414 -0.1980
 1504TIP3    H228708   0.965   5.594   8.545  0.4329  1.7567 -3.2112
 1505TIP3   OH228709   0.290   4.509   9.238  0.2578 -0.8309  0.1848
 1505TIP3    H128710   0.204   4.544   9.263  0.1616 -0.6679 -0.3425
 1505TIP3    H228711   0.273   4.416   9.221  0.6341 -1.2946  2.1547
 1506TIP3   OH228712   2.792   0.379   9.537 -0.5675  0.2006 -0.2024
 1506TIP3    H128713   2.735   0.317   9.491 -1.3217  2.7322 -3.0344
 1506TIP3    H228714   2.741   0.461   9.540  2.2894  2.2211 -1.6972
 1507TIP3   OH228715   2.143   6.519   7.136 -0.3035 -0.7149 -0.3558
 1507TIP3    H128716   2.190   6.552   7.060  0.0499 -1.6461 -0.5524
 1507TIP3    H228717   2.051   6.519   7.109 -0.1373 -1.4424 -0.9454
 1508TIP3   OH228718   3.518   6.161   7.304  0.1322  0.2937  0.7615
 1508TIP3    H128719   3.498   6.107   7.380 -0.4050 -0.4892  0.0942
 1508TIP3    H228720   3.589   6.114   7.259 -1.8798 -1.2041 -1.0849
 1509TIP3   OH228721   3.914   2.325   8.103 -0.1047  0.4586  0.0027
 1509TIP3    H128722   4.005   2.294   8.101  0.4346  1.9053  0.9009
 1509TIP3    H228723   3.920   2.414   8.137 -1.7692  0.9777 -0.9694
 1510TIP3   OH228724   6.500   6.925   9.208 -0.1405  0.1704  0.0439
 1510TIP3    H128725   6.502   6.966   9.294 -1.4626  1.6923 -0.5804
 1510TIP3    H228726   6.581   6.955   9.166 -1.7567  3.6961 -0.9581
 1511TIP3   OH228727   1.242   4.641   6.838  0.0368 -0.4269  0.0782
 1511TIP3    H128728   1.213   4.718   6.789  0.5268 -0.2205  0.1057
 1511TIP3    H228729   1.164   4.586   6.845 -0.1596 -0.2294 -0.5024
 1512TIP3   OH228730   3.708   2.501   7.505 -0.4502 -0.0790 -0.0342
 1512TIP3    H128731   3.750   2.564   7.446 -1.3117  2.3318  1.7788
 1512TIP3    H228732   3.661   2.441   7.447  1.4150  0.1387 -1.8803
 1513TIP3   OH228733   0.790   2.848   8.624 -0.0182 -0.8643 -0.4392
 1513TIP3    H128734   0.844   2.850   8.545 -0.5204 -0.3513 -0.7746
 1513TIP3    H228735   0.701   2.831   8.593 -0.9235  3.0077 -0.4447
 1514TIP3   OH228736   1.605   0.235   6.746  0.0015  0.0280  1.1854
 1514TIP3    H128737   1.530   0.189   6.782 -1.3575  1.5085  0.3773
 1514TIP3    H228738   1.580   0.255   6.656  0.8429  1.6032  1.2548
 1515TIP3   OH228739   7.507   6.612   8.371  0.5145  0.2197 -0.8084
 1515TIP3    H128740   7.477   6.538   8.423  0.1283  1.3715  0.6782
 1515TIP3    H228741   7.427   6.660   8.348  0.7978  0.4441 -1.3565
 1516TIP3   OH228742   1.643   6.465   8.363  0.1913  0.3369  0.4723
 1516TIP3    H128743   1.666   6.508   8.445 -2.3308 -0.2072  1.5345
 1516TIP3    H228744   1.558   6.502   8.339  1.0666  0.8413 -2.1974
 1517TIP3   OH228745   7.032   6.742   6.740 -0.3701  0.3062  0.2775
 1517TIP3    H128746   7.109   6.744   6.798 -1.0681 -0.1479  1.2354
 1517TIP3    H228747   6.990   6.827   6.752  0.5602  1.0211 -1.1055
 1518TIP3   OH228748   1.891   5.110   6.377  0.5774  0.4625  0.0851
 1518TIP3    H128749   1.832   5.181   6.350  1.4546  0.8620 -0.8329
 1518TIP3    H228750   1.875   5.040   6.313 -0.9554 -0.5888  1.5179
 1519TIP3   OH228751   3.680   4.843   9.369 -0.0204  0.2153 -0.3528
 1519TIP3    H128752   3.648   4.792   9.443  0.1437 -0.6871 -0.8798
 1519TIP3    H228753   3.719   4.921   9.407 -2.4675  1.1631  0.3490
 1520TIP3   OH228754   4.265   0.518   7.728 -0.0306 -0.2864  0.5103
 1520TIP3    H128755   4.313   0.594   7.763 -0.5790  0.0709  0.5070
 1520TIP3    H228756   4.233   0.472   7.806  2.3101 -1.8738  0.6003
 1521TIP3   OH228757   5.207   0.015   8.263 -0.0802  0.2924 -0.0879
 1521TIP3    H128758   5.197   0.059   8.179  1.6084 -1.3294 -1.2082
 1521TIP3    H228759   5.248   0.081   8.320 -0.0872  1.0080 -0.9011
 1522TIP3   OH228760   6.313   2.903   8.144 -0.4165  0.2870 -0.7844
 1522TIP3    H128761   6.388   2.913   8.086 -0.0429 -0.2944 -0.4090
 1522TIP3    H228762   6.251   2.849   8.095  0.0543 -0.5189 -0.5157
 1523TIP3   OH228763   4.362   1.802   7.350 -0.3912  0.1571 -0.4811
 1523TIP3    H128764   4.330   1.713   7.365 -0.3861  0.5391  2.3425
 1523TIP3    H228765   4.283   1.853   7.331 -0.5856 -0.1983 -0.6217
 1524TIP3   OH228766   1.588   4.803   8.920 -0.7185  0.6532  0.3563
 1524TIP3    H128767   1.574   4.839   8.832 -0.5050 -0.0607  0.0249
 1524TIP3    H228768   1.500   4.798   8.958 -0.8517  0.6329  0.0509
 1525TIP3   OH228769   0.977   3.795   9.086 -0.7035  0.3331 -0.1016
 1525TIP3    H128770   0.980   3.771   8.994  3.8465  0.2475 -0.1534
 1525TIP3    H228771   1.035   3.870   9.093  1.0628 -1.1157  2.9605
 1526TIP3   OH228772   4.838   7.096   8.438 -0.2854  0.5137 -0.0780
 1526TIP3    H128773   4.857   7.165   8.503 -1.5350 -0.0081  0.8946
 1526TIP3    H228774   4.744   7.081   8.447  0.2021 -2.6148  1.1008
 1527TIP3   OH228775   0.612   1.232   6.918 -0.4210  0.8186  0.1529
 1527TIP3    H128776   0.585   1.233   6.826  0.3204  0.4411 -0.0729
 1527TIP3    H228777   0.694   1.182   6.919 -1.3927 -0.8472  1.2901
 1528TIP3   OH228778   6.922   2.641   7.366 -0.2211 -0.3030  0.1302
 1528TIP3    H128779   6.827   2.649   7.357 -0.5900 -3.6462 -0.2069
 1528TIP3    H228780   6.956   2.651   7.277 -0.3023  0.3186  0.1668
 1529TIP3   OH228781   0.355   7.294   8.140 -0.0567  0.0815 -0.0227
 1529TIP3    H128782   0.376   7.206   8.170  0.6648  0.0808 -0.4836
 1529TIP3    H228783   0.428   7.348   8.171  1.7190 -0.2403 -3.2132
 1530TIP3   OH228784   6.053   5.621   9.463 -0.7106 -0.5698  0.0393
 1530TIP3    H128785   5.960   5.619   9.487 -1.1348  1.7632 -1.1103
 1530TIP3    H228786   6.056   5.584   9.375 -0.8510  0.8122 -0.5795
 1531TIP3   OH228787   2.601   2.531   7.366  0.0426  0.6924  0.3269
 1531TIP3    H128788   2.513   2.566   7.350  0.9742  2.9256 -0.2396
 1531TIP3    H228789   2.637   2.516   7.279  0.3314  0.0409  0.5541
 1532TIP3   OH228790   0.515   0.296   7.190 -0.0340 -0.1797  0.1625
 1532TIP3    H128791   0.472   0.211   7.191 -1.7724  0.6627  0.4659
 1532TIP3    H228792   0.451   0.354   7.148  1.8518  0.6239 -1.8133
 1533TIP3   OH228793   2.466   5.170   8.378  0.1192  0.1899  0.2769
 1533TIP3    H128794   2.391   5.118   8.349 -0.1654  1.5204 -1.6357
 1533TIP3    H228795   2.534   5.151   8.314  1.1328 -0.2925  1.4636
 1534TIP3   OH228796   3.663   1.452   8.994 -0.2349 -0.1824  0.1289
 1534TIP3    H128797   3.710   1.372   9.019  0.4732  0.1428 -0.1152
 1534TIP3    H228798   3.685   1.465   8.901 -1.5608 -0.5200 -0.2398
 1535TIP3   OH228799   0.025   3.509   8.151  0.3543 -0.8683 -0.5696
 1535TIP3    H128800  -0.060   3.553   8.145  0.3868 -0.7937 -0.5039
 1535TIP3    H228801   0.045   3.510   8.245  0.2430 -1.2414 -0.5423
 1536TIP3   OH228802   5.155   5.886   7.662 -0.3615  0.1052  0.2531
 1536TIP3    H128803   5.128   5.974   7.691 -1.2405 -0.4716  1.2404
 1536TIP3    H228804   5.111   5.826   7.722 -0.0340 -1.0431 -0.6199
 1537TIP3   OH228805   2.446   3.595   8.264  0.1081  0.4378  0.0447
 1537TIP3    H128806   2.374   3.627   8.209 -0.7663 -1.1224  0.2053
 1537TIP3    H228807   2.524   3.604   8.210 -0.4579  0.6185 -0.7598
 1538TIP3   OH228808   2.699   2.952   8.293  0.2707 -0.1244 -0.2493
 1538TIP3    H128809   2.739   3.033   8.325 -1.6056  0.2870  1.2388
 1538TIP3    H228810   2.631   2.981   8.232  1.8858 -0.7913 -2.4736
 1539TIP3   OH228811   3.105   6.677   7.871 -0.4742  0.2153  0.1263
 1539TIP3    H128812   3.126   6.656   7.962 -1.8591  2.5327  1.0672
 1539TIP3    H228813   3.189   6.672   7.825  0.0427 -2.2972  1.1922
 1540TIP3   OH228814   2.253   1.361   6.878  0.7419  0.1937  0.2166
 1540TIP3    H128815   2.276   1.447   6.843  1.4810  0.6586  1.7523
 1540TIP3    H228816   2.336   1.318   6.895  0.4091 -0.1428  1.0664
 1541TIP3   OH228817   4.937   2.102   9.290 -0.0363  0.2096 -0.4656
 1541TIP3    H128818   4.928   2.058   9.206  0.2467  0.7433 -0.7820
 1541TIP3    H228819   4.936   2.195   9.268 -0.1362  0.3557  0.1418
 1542TIP3   OH228820   5.606   1.973   7.806 -0.2970  0.2154  0.2446
 1542TIP3    H128821   5.518   1.941   7.826  0.5360 -0.9875  2.2835
 1542TIP3    H228822   5.653   1.896   7.775  0.4738  0.4936  0.7055
 1543TIP3   OH228823   1.587   1.610   7.028  0.5070 -0.1551 -0.0688
 1543TIP3    H128824   1.533   1.536   7.055  0.7005 -0.1395  0.3692
 1543TIP3    H228825   1.527   1.666   6.978 -0.2119  0.4241  1.3759
 1544TIP3   OH228826   0.266   5.981   7.779 -0.7172 -0.3649 -0.1890
 1544TIP3    H128827   0.221   5.901   7.808  0.2603 -0.9321 -0.1970
 1544TIP3    H228828   0.215   6.052   7.818 -2.6523 -0.8817 -1.5909
 1545TIP3   OH228829   0.828   0.440   7.856 -0.2411  0.2141  0.5594
 1545TIP3    H128830   0.824   0.375   7.785 -1.4134  0.0862  0.7184
 1545TIP3    H228831   0.915   0.429   7.893  0.1637 -0.1593 -0.4504
 1546TIP3   OH228832   6.180   2.794   9.384  0.3271 -0.2185  0.2197
 1546TIP3    H128833   6.247   2.808   9.318  2.4012  2.0625  2.5709
 1546TIP3    H228834   6.160   2.882   9.417 -2.1857 -1.0617  1.1858
 1547TIP3   OH228835   1.339   0.792   9.326  0.3626 -0.1297 -0.4302
 1547TIP3    H128836   1.431   0.803   9.348  0.3301 -0.8370  0.1105
 1547TIP3    H228837   1.339   0.757   9.237  0.5957  0.2937 -0.5987
 1548TIP3   OH228838   6.774   0.512   8.289  0.5889  0.5342  0.3070
 1548TIP3    H128839   6.713   0.483   8.357  1.0335  0.0891  0.5156
 1548TIP3    H228840   6.843   0.559   8.337  2.6851 -2.5650  0.6004
 1549TIP3   OH228841   4.822   1.367   7.608 -0.1096 -0.2827 -0.0699
 1549TIP3    H128842   4.802   1.361   7.514 -0.8182  0.9791 -0.0183
 1549TIP3    H228843   4.917   1.380   7.610  0.1861 -2.0860 -0.5082
 1550TIP3   OH228844   7.262   0.015   7.827 -0.6184  0.3417 -0.1315
 1550TIP3    H128845   7.320  -0.038   7.772 -0.6392  1.2871 -1.0879
 1550TIP3    H228846   7.317   0.043   7.901 -0.0887  0.5318 -0.5908
 1551TIP3   OH228847   0.453   5.926   8.004  0.3984  0.1314  0.2165
 1551TIP3    H128848   0.444   5.919   7.908  2.5588  0.8905 -0.0810
 1551TIP3    H228849   0.410   6.009   8.026 -0.5228 -0.2726 -0.0123
 1552TIP3   OH228850   2.939   5.563   8.492 -0.2742  0.5183  0.5529
 1552TIP3    H128851   2.929   5.606   8.577 -1.5667  1.8398 -0.2238
 1552TIP3    H228852   2.899   5.623   8.430  2.1058  0.3577 -1.2670
 1553TIP3   OH228853   5.935   0.397   8.447  0.2610  0.2584  0.1440
 1553TIP3    H128854   5.930   0.485   8.408  2.1864 -0.3468 -1.6813
 1553TIP3    H228855   6.015   0.360   8.411 -0.1759 -2.0480  1.3671
 1554TIP3   OH228856   3.373   7.505   8.418  0.5870 -0.1949 -0.0427
 1554TIP3    H128857   3.355   7.519   8.325  0.7775  0.1522 -0.0328
 1554TIP3    H228858   3.377   7.594   8.454 -0.7538 -0.3643  0.5457
 1555TIP3   OH228859   0.528   7.392   7.450 -0.0883  0.2368 -0.1055
 1555TIP3    H128860   0.582   7.346   7.514 -0.6593 -2.8600 -1.6680
 1555TIP3    H228861   0.590   7.424   7.385  0.1365 -1.1272 -0.6018
 1556TIP3   OH228862   3.384   2.587   8.173 -0.1690 -0.1094 -0.0801
 1556TIP3    H128863   3.375   2.640   8.093 -0.8336 -0.6245 -0.3517
 1556TIP3    H228864   3.328   2.511   8.158  0.2811 -0.5795  0.5728
 1557TIP3   OH228865   2.755   3.709   9.737 -0.0584  0.1392  0.0249
 1557TIP3    H128866   2.801   3.785   9.773 -0.8925  0.3967  0.5982
 1557TIP3    H228867   2.663   3.725   9.759 -0.3135 -0.7680 -0.3418
 1558TIP3   OH228868   6.280   5.883   9.295 -0.5800  0.0424  0.7013
 1558TIP3    H128869   6.331   5.812   9.336 -0.8201 -0.2492  0.5019
 1558TIP3    H228870   6.317   5.891   9.207 -1.5084 -0.8375  0.2108
 1559TIP3   OH228871   4.689   0.636   9.399 -0.0047 -0.0925  0.5796
 1559TIP3    H128872   4.693   0.693   9.476 -0.2670  0.9082 -0.1262
 1559TIP3    H228873   4.762   0.666   9.344 -1.7085  1.4084 -1.0074
 1560TIP3   OH228874   2.284   5.752   9.569  0.1882 -0.0616  0.2888
 1560TIP3    H128875   2.319   5.797   9.492  0.9814 -0.0583  0.6457
 1560TIP3    H228876   2.189   5.756   9.557  0.2989 -1.8020 -1.7043
 1561TIP3   OH228877   1.742   0.522   9.057 -0.4488 -0.2377  0.7460
 1561TIP3    H128878   1.654   0.488   9.037 -0.9005  1.5250 -0.5143
 1561TIP3    H228879   1.783   0.531   8.971  0.4860  0.2249  1.2377
 1562TIP3   OH228880   4.396   5.599   9.232 -0.0683  0.4718 -0.3138
 1562TIP3    H128881   4.483   5.575   9.267  0.2002  1.9799  0.1559
 1562TIP3    H228882   4.384   5.543   9.156  0.0438 -1.8249  1.2554
 1563TIP3   OH228883   6.661   1.782   8.728 -0.2052  0.0902  0.4734
 1563TIP3    H128884   6.604   1.709   8.754  0.1017 -0.1915  0.3528
 1563TIP3    H228885   6.696   1.816   8.810  0.8822 -0.8929  0.4351
 1564TIP3   OH228886   6.770   6.756   7.117 -0.1322  0.0231  0.1077
 1564TIP3    H128887   6.760   6.820   7.046  1.3517  1.4050  1.0813
 1564TIP3    H228888   6.783   6.672   7.071  0.5438  0.8352 -1.2786
 1565TIP3   OH228889   3.405   5.423   7.735  0.1684  0.2105  1.0559
 1565TIP3    H128890   3.375   5.455   7.820  0.1151 -1.3530  1.6664
 1565TIP3    H228891   3.480   5.367   7.756  0.3848  0.0941  0.0366
 1566TIP3   OH228892   4.324   2.889   7.737  0.2549 -0.3016 -0.4016
 1566TIP3    H128893   4.366   2.973   7.721 -0.1302 -0.0263  0.0302
 1566TIP3    H228894   4.278   2.900   7.820 -0.8480 -0.5308 -0.9696
 1567TIP3   OH228895   2.058   2.377   7.005  0.2039  0.3372 -0.2554
 1567TIP3    H128896   2.044   2.377   6.910  1.1334 -1.2041 -0.4184
 1567TIP3    H228897   2.004   2.305   7.037 -0.4123  1.0980  0.4566
 1568TIP3   OH228898   2.984   0.556   8.975  0.6115  0.0546  0.3425
 1568TIP3    H128899   3.032   0.627   8.933  1.1352 -0.8251 -0.6077
 1568TIP3    H228900   3.002   0.566   9.068  2.9090 -0.3928  0.0072
 1569TIP3   OH228901   1.748   0.013   7.395 -0.1442  0.3060  0.6017
 1569TIP3    H128902   1.751   0.090   7.337 -0.8572 -0.1347 -0.0387
 1569TIP3    H228903   1.718  -0.058   7.339  0.1310 -0.3620  1.2849
 1570TIP3   OH228904   5.132   3.052   7.869 -0.5374  0.5397  0.0459
 1570TIP3    H128905   5.099   3.053   7.779 -0.5963  0.3657  0.0646
 1570TIP3    H228906   5.172   2.966   7.878 -0.6851  0.4923  0.2419
 1571TIP3   OH228907   4.584   0.667   8.793 -0.1209 -0.0103 -0.6818
 1571TIP3    H128908   4.585   0.574   8.769 -0.5908 -0.6198  1.4605
 1571TIP3    H228909   4.491   0.691   8.791 -0.2122 -0.1818  0.7978
 1572TIP3   OH228910   4.266   0.389   7.942  0.0288  0.3247  0.0270
 1572TIP3    H128911   4.280   0.310   7.889 -0.8404  0.3360 -0.2443
 1572TIP3    H228912   4.346   0.398   7.993  1.2246  0.7351 -1.8208
 1573TIP3   OH228913   7.198   5.109   6.991 -0.5091  0.3320  0.4121
 1573TIP3    H128914   7.207   5.150   6.905 -1.4508 -2.5055 -1.1745
 1573TIP3    H228915   7.129   5.159   7.035 -0.2700  1.5911 -0.6189
 1574TIP3   OH228916   0.930   1.480   7.236 -0.2632 -0.6568 -0.6411
 1574TIP3    H128917   1.006   1.535   7.215  0.9332 -2.0586 -0.2049
 1574TIP3    H228918   0.864   1.540   7.270  2.0543  0.2264  2.7418
 1575TIP3   OH228919   1.394   1.027   8.523  0.4312 -0.4479  0.1187
 1575TIP3    H128920   1.409   1.104   8.578  1.9775 -1.1557  0.7569
 1575TIP3    H228921   1.303   1.003   8.538  0.2995  0.5111  0.8979
 1576TIP3   OH228922   1.518   7.566   9.353 -0.8470  1.0363 -0.5896
 1576TIP3    H128923   1.551   7.625   9.284 -1.0423  0.9599 -0.7480
 1576TIP3    H228924   1.450   7.514   9.310  0.3620 -0.3788 -0.8783
 1577TIP3   OH228925   2.288   6.335   7.278  0.2561  0.6574 -0.3882
 1577TIP3    H128926   2.223   6.334   7.208 -0.9074  0.1525  0.6843
 1577TIP3    H228927   2.282   6.423   7.315 -1.3870 -0.0458  1.1199
 1578TIP3   OH228928   6.040   2.539   8.989 -0.5495 -0.2121  0.3009
 1578TIP3    H128929   5.963   2.516   8.937 -1.4926  0.1661  1.5031
 1578TIP3    H228930   6.055   2.632   8.969  1.3678 -0.9088 -2.1160
 1579TIP3   OH228931   5.968   1.280   7.667  0.2533  0.4880 -0.1050
 1579TIP3    H128932   6.054   1.281   7.625 -0.0742  0.2269 -0.7920
 1579TIP3    H228933   5.952   1.370   7.693 -0.4154  1.0835 -2.3729
 1580TIP3   OH228934   2.172   3.794   8.417  0.3314  0.6364  0.5238
 1580TIP3    H128935   2.218   3.722   8.461 -0.3880 -0.0430  0.1919
 1580TIP3    H228936   2.155   3.761   8.329 -2.3211  0.1339  1.1258
 1581TIP3   OH228937   1.839   4.446   6.923 -0.2839 -0.0819 -0.1470
 1581TIP3    H128938   1.772   4.515   6.927  0.5940  0.7462  2.5992
 1581TIP3    H228939   1.920   4.491   6.946  0.8974 -1.4959 -1.3556
 1582TIP3   OH228940   0.879   3.374   7.293  0.3125  0.5930  0.9251
 1582TIP3    H128941   0.806   3.408   7.344 -2.7252 -0.1462 -2.5107
 1582TIP3    H228942   0.880   3.428   7.214  0.3084 -2.3546 -1.2445
 1583TIP3   OH228943   4.979   5.866   8.894 -0.2372 -0.0386 -0.8545
 1583TIP3    H128944   5.071   5.892   8.903 -0.3507 -0.3249  1.7105
 1583TIP3    H228945   4.930   5.948   8.904 -0.3149 -0.0202 -1.3438
 1584TIP3   OH228946   1.777   2.896   6.388  0.0906 -0.0659  0.2507
 1584TIP3    H128947   1.698   2.889   6.334  0.0841  0.5996  0.1690
 1584TIP3    H228948   1.807   2.805   6.398 -0.7268 -0.3318  0.3528
 1585TIP3   OH228949   3.163   4.138   9.723 -0.5415  0.1580 -0.5585
 1585TIP3    H128950   3.230   4.203   9.740 -0.1945 -0.4556  0.5130
 1585TIP3    H228951   3.202   4.078   9.660 -0.1424 -0.0970 -0.0722
 1586TIP3   OH228952   4.072   0.762   8.995  0.1424  0.5923  0.3570
 1586TIP3    H128953   4.089   0.720   9.079 -2.5573  1.2750  1.3347
 1586TIP3    H228954   4.020   0.840   9.017 -2.4297 -0.2917 -2.0525
 1587TIP3   OH228955   3.122   7.133   8.984  0.4768  0.3185 -0.5739
 1587TIP3    H128956   3.086   7.099   9.065 -0.6619  0.5322 -0.9691
 1587TIP3    H228957   3.217   7.127   8.995  0.3277 -0.3411  0.4657
 1588TIP3   OH228958   3.396   0.621   7.135  0.2343  0.4089 -0.4145
 1588TIP3    H128959   3.366   0.699   7.182  1.2412 -0.1247  1.2131
 1588TIP3    H228960   3.448   0.655   7.063 -1.0926  1.2552 -1.0156
 1589TIP3   OH228961   4.165   5.253   8.963  0.1184  0.0189  0.6816
 1589TIP3    H128962   4.147   5.162   8.939 -0.4672  0.4262 -0.5168
 1589TIP3    H228963   4.088   5.301   8.934  1.1986  1.1696 -0.4244
 1590TIP3   OH228964   7.209   3.146   8.590 -0.2221 -0.1100 -0.3974
 1590TIP3    H128965   7.217   3.165   8.683 -1.8631 -1.3561  0.0593
 1590TIP3    H228966   7.294   3.171   8.552 -0.0111  1.7272  1.1582
 1591TIP3   OH228967   2.611   4.888   9.476  0.3070  0.2812  0.0468
 1591TIP3    H128968   2.645   4.974   9.503  0.9942  0.1868 -0.4929
 1591TIP3    H228969   2.519   4.905   9.455  0.2522  0.7377  0.6121
 1592TIP3   OH228970   1.832   5.835   7.205  0.2306 -0.3259  0.4858
 1592TIP3    H128971   1.789   5.824   7.120  1.1292  0.6124 -0.1195
 1592TIP3    H228972   1.801   5.920   7.236  1.6544  0.4137 -0.0073
 1593TIP3   OH228973   3.109   3.227   7.779 -0.3699  0.1968 -0.3223
 1593TIP3    H128974   3.056   3.293   7.734  0.0051  0.7971  0.1094
 1593TIP3    H228975   3.150   3.274   7.851  1.1454 -0.1352 -0.9349
 1594TIP3   OH228976   2.625   1.289   8.758 -0.1302 -0.3102  0.0403
 1594TIP3    H128977   2.631   1.222   8.826  1.7854 -0.0206  0.2306
 1594TIP3    H228978   2.688   1.356   8.786 -2.2016  1.7735  0.0410
 1595TIP3   OH228979   5.523   4.939   8.939  0.1180  0.1683 -0.0349
 1595TIP3    H128980   5.445   4.976   8.897 -0.0580  1.7950  1.6161
 1595TIP3    H228981   5.491   4.861   8.985 -0.3514  0.2942 -0.1444
 1596TIP3   OH228982   5.636   6.188   7.350 -0.7430 -0.3558  0.3771
 1596TIP3    H128983   5.658   6.111   7.297 -1.8613 -1.1407  0.9860
 1596TIP3    H228984   5.703   6.252   7.329 -2.0857  0.0857 -3.4215
 1597TIP3   OH228985   5.643   1.653   8.200 -0.4361 -0.0686 -0.2305
 1597TIP3    H128986   5.702   1.578   8.189  0.9059  1.1477 -2.1011
 1597TIP3    H228987   5.559   1.623   8.165 -0.8572 -1.6694  1.9836
 1598TIP3   OH228988   1.584   2.574   8.166  0.3596  0.2623 -0.5263
 1598TIP3    H128989   1.651   2.639   8.188 -0.3134  0.7344  0.1946
 1598TIP3    H228990   1.583   2.514   8.241 -0.5036  0.6701 -0.2001
 1599TIP3   OH228991   0.997   5.184   6.845 -0.2906  0.1695 -0.5005
 1599TIP3    H128992   1.090   5.163   6.844 -0.0258  1.2574 -0.2233
 1599TIP3    H228993   0.953   5.100   6.838  0.7163 -0.3276 -1.1240
 1600TIP3   OH228994   1.506   0.395   8.990  0.6827  0.3262  0.0641
 1600TIP3    H128995   1.455   0.475   8.984  0.5576  0.2787  0.4206
 1600TIP3    H228996   1.510   0.361   8.901 -0.3993  0.0321  0.1108
 1601TIP3   OH228997   4.630   6.804   9.309 -0.0715  0.7709  0.8908
 1601TIP3    H128998   4.581   6.724   9.293  0.3476  0.6155  0.3505
 1601TIP3    H228999   4.568   6.875   9.289  0.6030  0.6126 -2.2777
 1602TIP3   OH229000   6.449   5.231   9.249  0.3855 -0.4195  0.0054
 1602TIP3    H129001   6.453   5.325   9.262 -1.6779 -0.2516 -0.2172
 1602TIP3    H229002   6.523   5.212   9.191  0.2403  1.2362 -0.7913
 1603TIP3   OH229003   0.671   2.668   6.911 -0.0878  0.1203  0.2506
 1603TIP3    H129004   0.607   2.731   6.943  0.6761  1.4010 -0.6849
 1603TIP3    H229005   0.705   2.706   6.830 -1.9239 -2.9072 -2.2072
 1604TIP3   OH229006   1.648   6.831   8.993 -0.2635 -0.2402  0.1671
 1604TIP3    H129007   1.559   6.864   9.003 -0.0721  0.5265 -0.5735
 1604TIP3    H229008   1.703   6.909   8.988  0.2906 -0.6749 -0.8356
 1605TIP3   OH229009   1.256   6.336   7.119 -0.4900  0.0337 -0.1748
 1605TIP3    H129010   1.329   6.315   7.061 -0.7827 -0.3405 -0.4126
 1605TIP3    H229011   1.179   6.304   7.073 -0.8048  0.4201  0.0771
 1606TIP3   OH229012   5.553   3.607   8.714  0.5461 -0.0639 -0.4453
 1606TIP3    H129013   5.501   3.542   8.761 -0.0865 -0.1216 -1.2059
 1606TIP3    H229014   5.521   3.691   8.747 -1.2445 -0.0384 -2.0922
 1607TIP3   OH229015   2.434   6.537   7.647 -0.2415  0.2071  0.0059
 1607TIP3    H129016   2.454   6.485   7.725  1.8715 -0.4424 -0.9146
 1607TIP3    H229017   2.388   6.476   7.590 -0.8133  0.3718  0.2774
 1608TIP3   OH229018   7.080   5.450   7.647  0.2665  0.2001 -0.0698
 1608TIP3    H129019   7.169   5.470   7.675  0.6145  0.4873 -1.3303
 1608TIP3    H229020   7.026   5.471   7.724  1.2482  0.2043  0.6475
 1609TIP3   OH229021   1.654   0.114   9.702 -0.8175 -0.3143  0.1103
 1609TIP3    H129022   1.703   0.167   9.639 -1.2352  2.4509  1.9207
 1609TIP3    H229023   1.717   0.049   9.732  0.7361  1.0262 -0.0913
 1610TIP3   OH229024   5.545   1.515   9.055  0.1129  0.4963 -0.1628
 1610TIP3    H129025   5.503   1.601   9.042  0.3171  0.6288  0.0456
 1610TIP3    H229026   5.495   1.475   9.126 -0.3169  0.2208 -0.6118
 1611TIP3   OH229027   4.982   4.866   7.881  0.4095  0.3677 -0.0689
 1611TIP3    H129028   4.895   4.827   7.885  0.8641 -0.6303  0.6154
 1611TIP3    H229029   4.978   4.926   7.807 -0.5910 -0.3249 -0.6079
 1612TIP3   OH229030   2.982   0.862   8.695 -0.3496 -0.1406  0.3076
 1612TIP3    H129031   3.029   0.857   8.779  0.7412  0.4908 -0.2411
 1612TIP3    H229032   3.020   0.791   8.643 -0.1232  0.2692 -0.0852
 1613TIP3   OH229033   4.187   7.245   6.975 -0.2719 -0.5723 -0.2252
 1613TIP3    H129034   4.096   7.228   6.950 -0.0433 -1.2393 -0.6460
 1613TIP3    H229035   4.213   7.319   6.920 -1.2188  1.1243  1.4819
 1614TIP3   OH229036   3.528   0.030   8.920 -0.1256 -0.7573  0.1850
 1614TIP3    H129037   3.603   0.076   8.959 -1.1663 -0.2706  1.7034
 1614TIP3    H229038   3.513   0.075   8.837 -0.3911  0.9505  1.1115
 1615TIP3   OH229039   3.565   4.644   8.052  0.4309  0.1632  0.2934
 1615TIP3    H129040   3.651   4.628   8.013  0.3990 -2.5455  1.1153
 1615TIP3    H229041   3.584   4.667   8.143  0.3198  0.0299  0.3511
 1616TIP3   OH229042   4.643   6.865   6.920 -0.1485  0.5551  0.5321
 1616TIP3    H129043   4.616   6.823   7.002  0.8378  0.1498  0.6666
 1616TIP3    H229044   4.708   6.806   6.884 -0.1595  1.0211 -0.2658
 1617TIP3   OH229045   1.080   1.272   8.195  0.9997 -0.2417 -0.0259
 1617TIP3    H129046   1.082   1.176   8.190  0.7645 -0.2037 -1.1457
 1617TIP3    H229047   1.172   1.297   8.210  1.2740 -0.5961 -1.0366
 1618TIP3   OH229048   1.815   2.593   6.720  0.1540  0.1002  0.1844
 1618TIP3    H129049   1.838   2.519   6.663  1.5459 -0.0270  0.8707
 1618TIP3    H229050   1.759   2.648   6.666 -0.7368 -1.3381 -0.4185
 1619TIP3   OH229051   7.276   2.783   7.519  0.6781 -0.3660  0.2451
 1619TIP3    H129052   7.209   2.836   7.477 -0.5051 -1.0995  1.1545
 1619TIP3    H229053   7.353   2.792   7.462 -0.0318  0.8730 -0.5525
 1620TIP3   OH229054   4.678   0.522   9.158 -0.3089 -0.4173 -0.0100
 1620TIP3    H129055   4.620   0.573   9.101  1.6637  2.2009  0.1496
 1620TIP3    H229056   4.665   0.560   9.245  1.4077  0.0976  0.0644
 1621TIP3   OH229057   3.296   0.996   7.778  0.2161 -0.2539  0.1774
 1621TIP3    H129058   3.239   1.038   7.714  0.6500  0.6798  0.3870
 1621TIP3    H229059   3.303   0.905   7.749  0.1535  0.0821 -0.9085
 1622TIP3   OH229060   4.120   1.389   8.085  0.2873  0.0897  0.2939
 1622TIP3    H129061   4.146   1.459   8.024 -1.1423 -0.3597 -0.8819
 1622TIP3    H229062   4.117   1.310   8.032 -0.4773 -0.4149  1.0520
 1623TIP3   OH229063   6.411   1.955   8.772  0.1012 -0.5535 -0.1495
 1623TIP3    H129064   6.395   2.050   8.769  1.0480 -0.3543  0.5181
 1623TIP3    H229065   6.504   1.946   8.750 -0.2902 -1.4575 -1.5693
 1624TIP3   OH229066   6.072   2.822   7.963  0.1161 -0.0420  0.4697
 1624TIP3    H129067   6.090   2.876   7.886  1.7287  1.5101  1.8432
 1624TIP3    H229068   6.037   2.741   7.928 -0.6799  1.1930 -1.7986
 1625TIP3   OH229069   5.406   4.807   8.569 -0.0844 -0.2744 -0.4484
 1625TIP3    H129070   5.335   4.787   8.629  1.7493 -1.9219  1.3423
 1625TIP3    H229071   5.376   4.774   8.484 -1.0624 -1.8843  0.4788
 1626TIP3   OH229072   0.321   6.906   0.793 -0.0012  0.0670 -0.3629
 1626TIP3    H129073   0.265   6.948   0.727  0.5713  1.4223 -0.0315
 1626TIP3    H229074   0.299   6.951   0.874 -0.0219 -0.9472  0.2080
 1627TIP3   OH229075   6.183   5.150   7.715  0.3960 -0.5745 -0.3210
 1627TIP3    H129076   6.101   5.186   7.683  0.1522 -0.7921  0.0550
 1627TIP3    H229077   6.158   5.073   7.766  0.8663 -0.9366 -0.6142
 1628TIP3   OH229078   1.111   3.878   8.657  0.0072  0.1280  0.3237
 1628TIP3    H129079   1.066   3.959   8.680  0.5364  0.6325 -0.3778
 1628TIP3    H229080   1.087   3.862   8.566  1.4910  0.6040 -0.1838
 1629TIP3   OH229081   3.830   7.042   9.310 -0.1226 -0.1910 -0.4638
 1629TIP3    H129082   3.901   6.985   9.283  0.3785  0.2009  0.0190
 1629TIP3    H229083   3.757   7.017   9.252  0.5629 -0.1979 -1.3563
 1630TIP3   OH229084   5.990   5.292   9.287  0.4093 -0.4246 -0.1512
 1630TIP3    H129085   6.066   5.349   9.282 -0.3287  0.6534  0.3758
 1630TIP3    H229086   6.011   5.219   9.230  0.9282  0.9451 -1.8151
 1631TIP3   OH229087   2.366   0.029   7.754  0.5470 -0.3977 -0.2362
 1631TIP3    H129088   2.349  -0.066   7.754  2.0255 -0.7045  0.8227
 1631TIP3    H229089   2.431   0.042   7.686 -1.0315  0.1864 -1.6921
 1632TIP3   OH229090   1.543   6.218   7.433  0.3465 -0.0069  0.5753
 1632TIP3    H129091   1.464   6.206   7.381 -0.3583  2.3931  0.9909
 1632TIP3    H229092   1.515   6.206   7.524  0.3235  1.3157  0.7594
 1633TIP3   OH229093   2.898   5.974   6.792 -0.4871  0.1703 -0.0429
 1633TIP3    H129094   2.921   5.948   6.703 -2.0812 -2.6252  0.2524
 1633TIP3    H229095   2.823   6.032   6.781 -1.6288 -1.3336 -0.5440
 1634TIP3   OH229096   3.541   4.497   8.739 -0.3828 -0.1837  0.1265
 1634TIP3    H129097   3.480   4.504   8.812 -0.6054  0.1255 -0.0863
 1634TIP3    H229098   3.485   4.481   8.663 -0.1536 -0.5224  0.0238
 1635TIP3   OH229099   5.017   6.437   6.888  0.3141 -0.2731 -0.0760
 1635TIP3    H129100   5.053   6.491   6.959 -0.1998 -0.9861  0.7579
 1635TIP3    H229101   5.054   6.474   6.808  0.6929  0.7305  0.5429
 1636TIP3   OH229102   3.945   6.841   6.489 -0.1415 -0.0957  0.1389
 1636TIP3    H129103   3.978   6.916   6.440 -1.0267 -0.6144 -1.3074
 1636TIP3    H229104   4.011   6.826   6.557  1.3888  0.3348 -1.1966
 1637TIP3   OH229105   6.605   4.490   8.710 -0.9773 -0.9543  0.4303
 1637TIP3    H129106   6.645   4.419   8.761  2.2598 -1.9512 -2.9677
 1637TIP3    H229107   6.560   4.445   8.638 -1.7223  0.3851  0.0343
 1638TIP3   OH229108   1.921   3.264   7.619  0.1062  0.3491  0.4302
 1638TIP3    H129109   1.853   3.207   7.655 -0.0003 -0.3701 -0.8781
 1638TIP3    H229110   1.897   3.276   7.527  0.9591  1.2795  0.3060
 1639TIP3   OH229111   4.837   5.372   8.228  0.4417  0.5205  0.4928
 1639TIP3    H129112   4.774   5.301   8.225 -0.0179  0.8880  1.2886
 1639TIP3    H229113   4.822   5.415   8.312  1.8405  0.5341  0.7570
 1640TIP3   OH229114   4.867   4.083   9.362 -0.0567 -0.2071 -0.4656
 1640TIP3    H129115   4.870   4.025   9.438 -0.1503 -1.0840 -1.1065
 1640TIP3    H229116   4.957   4.087   9.331  0.0717  0.5771 -0.0047
 1641TIP3   OH229117   7.192   3.518   6.878 -0.5279  0.0756 -0.8410
 1641TIP3    H129118   7.256   3.589   6.880 -1.1320  0.6528 -1.4351
 1641TIP3    H229119   7.182   3.492   6.970  0.1974  0.2921 -0.6958
 1642TIP3   OH229120   0.423   3.512   7.672  0.6096  0.2389  0.2468
 1642TIP3    H129121   0.393   3.458   7.599  1.0969 -0.2136  0.3735
 1642TIP3    H229122   0.394   3.600   7.650  1.5320  0.2700 -0.9482
 1643TIP3   OH229123   2.251   1.426   9.322 -0.0678 -0.1455  0.2488
 1643TIP3    H129124   2.336   1.465   9.346  0.3837 -0.8747 -0.1454
 1643TIP3    H229125   2.249   1.343   9.369 -0.8580  0.1615  0.7707
 1644TIP3   OH229126   3.954   1.104   8.267 -0.1572 -0.3203  0.7715
 1644TIP3    H129127   3.880   1.088   8.326  0.1369 -2.8319  0.5870
 1644TIP3    H229128   3.915   1.103   8.180  0.0337 -1.5914  0.6772
 1645TIP3   OH229129   4.145   4.781   9.210 -0.2121  0.0439 -0.3098
 1645TIP3    H129130   4.085   4.806   9.280  0.7016 -0.0096  0.5147
 1645TIP3    H229131   4.097   4.713   9.162 -0.3938 -0.8051  1.0059
 1646TIP3   OH229132   7.438   5.744   8.994 -0.3935 -0.0624 -0.3575
 1646TIP3    H129133   7.416   5.675   8.932  0.5562 -1.0161  0.3136
 1646TIP3    H229134   7.524   5.776   8.965 -1.9690  2.8538 -2.3208
 1647TIP3   OH229135   4.875   5.631   8.396 -0.1535 -0.6096  0.0343
 1647TIP3    H129136   4.824   5.681   8.333  2.4012  1.1021 -0.8361
 1647TIP3    H229137   4.944   5.590   8.344  0.5546 -1.1855  1.3737
 1648TIP3   OH229138   1.403   3.471   8.843  0.0154 -0.2924 -1.0044
 1648TIP3    H129139   1.452   3.549   8.818 -0.9412  0.8135  0.3769
 1648TIP3    H229140   1.410   3.468   8.939 -2.2693 -0.2707 -0.7746
 1649TIP3   OH229141   2.591   5.910   7.006  0.3502 -0.5581  0.0577
 1649TIP3    H129142   2.531   5.903   7.081 -0.1619 -0.8879 -0.3741
 1649TIP3    H229143   2.578   5.999   6.974 -1.1902 -1.1432 -1.0669
 1650TIP3   OH229144   6.060   2.965   7.736  0.1775 -0.0160 -0.0223
 1650TIP3    H129145   6.144   2.953   7.692  1.1221  0.5828  1.5288
 1650TIP3    H229146   6.036   3.056   7.718  1.1406  0.5922  1.5669
 1651TIP3   OH229147   3.750   3.156   9.094  0.3444 -0.1762  0.0081
 1651TIP3    H129148   3.800   3.235   9.073  2.0060 -0.7740  1.4502
 1651TIP3    H229149   3.710   3.176   9.180 -0.0614 -0.5492 -0.0908
 1652TIP3   OH229150   4.691   0.186   8.534 -0.1258 -0.4861 -0.0074
 1652TIP3    H129151   4.649   0.125   8.595  0.2324 -1.5656 -0.8030
 1652TIP3    H229152   4.783   0.160   8.533  0.9050  2.4707  2.4677
 1653TIP3   OH229153   6.094   6.140   8.220 -0.4847  0.0600 -0.0791
 1653TIP3    H129154   6.022   6.139   8.157  1.4881  0.9496 -2.5019
 1653TIP3    H229155   6.154   6.072   8.190 -0.6912 -1.4207  2.5287
 1654TIP3   OH229156   6.853   1.219   9.592 -0.2023 -0.0447 -0.1461
 1654TIP3    H129157   6.893   1.132   9.590  1.0432  0.5053 -0.4531
 1654TIP3    H229158   6.760   1.204   9.575  0.1410 -1.2319 -1.1269
 1655TIP3   OH229159   7.133   1.050   7.340 -0.4595 -0.0087 -0.3511
 1655TIP3    H129160   7.074   1.118   7.307 -0.0597  1.1196  1.1026
 1655TIP3    H229161   7.079   0.999   7.401 -0.6371 -0.7072 -1.0893
 1656TIP3   OH229162   1.364   4.400   8.852 -0.3399 -0.1513  0.0585
 1656TIP3    H129163   1.454   4.405   8.820 -0.2136  1.2913  0.5845
 1656TIP3    H229164   1.364   4.326   8.913  1.2092  1.4907  2.1774
 1657TIP3   OH229165   1.785   0.662   6.712  0.2821  0.3302  0.6079
 1657TIP3    H129166   1.764   0.580   6.756  0.2884 -0.0265 -0.0428
 1657TIP3    H229167   1.871   0.687   6.745  1.0448 -0.8141 -0.4423
 1658TIP3   OH229168   2.237   0.522   9.087  0.5402 -0.0067 -0.0839
 1658TIP3    H129169   2.197   0.507   9.002 -0.4168  1.3659  0.0862
 1658TIP3    H229170   2.331   0.524   9.070  0.3966 -0.5383 -0.9714
 1659TIP3   OH229171   4.700   3.078   8.776 -0.4698  0.3233  0.4591
 1659TIP3    H129172   4.634   3.028   8.728  1.0114 -0.3265 -0.9699
 1659TIP3    H229173   4.670   3.169   8.769 -1.9411 -0.0790  1.0765
 1660TIP3   OH229174   3.287   0.350   8.960 -0.4315 -0.6943  0.1961
 1660TIP3    H129175   3.382   0.353   8.972 -0.6914  1.0298  2.5754
 1660TIP3    H229176   3.253   0.409   9.027 -3.1681 -0.6759 -1.0918
 1661TIP3   OH229177   0.827   7.234   7.079 -0.3663 -0.5741 -0.6773
 1661TIP3    H129178   0.757   7.293   7.048  1.4070  2.1637  0.1758
 1661TIP3    H229179   0.881   7.219   7.002 -0.9228 -1.3183 -0.9405
 1662TIP3   OH229180   1.652   7.017   8.586  0.2375  0.5134 -1.3263
 1662TIP3    H129181   1.592   7.050   8.520 -0.3120  2.5947  0.1407
 1662TIP3    H229182   1.620   6.928   8.606 -1.3005  0.9321 -1.8186
 1663TIP3   OH229183   4.578   4.150   8.385  0.6711  0.6708 -0.3860
 1663TIP3    H129184   4.487   4.145   8.358  0.6631 -1.0029 -0.1382
 1663TIP3    H229185   4.626   4.102   8.318  1.1104 -0.2003  0.5320
 1664TIP3   OH229186   4.422   1.682   8.864 -0.9275 -0.4086  0.5645
 1664TIP3    H129187   4.409   1.651   8.775  0.2242 -1.6453  0.7904
 1664TIP3    H229188   4.475   1.761   8.855  0.0284 -1.0833  0.1963
 1665TIP3   OH229189   5.338   7.427   7.476  0.1922  0.0171 -0.1204
 1665TIP3    H129190   5.403   7.460   7.538  0.6344 -0.4312 -0.3385
 1665TIP3    H229191   5.376   7.443   7.390 -0.8895  1.6215 -0.3437
 1666TIP3   OH229192   0.830   1.421   9.340  0.3002  0.0410 -0.2770
 1666TIP3    H129193   0.829   1.390   9.431 -1.4654 -0.2021 -0.3479
 1666TIP3    H229194   0.814   1.343   9.288  0.7616  0.2720 -0.7692
 1667TIP3   OH229195   0.135   4.478   7.820  0.5886  0.0974  0.0641
 1667TIP3    H129196   0.145   4.571   7.842  0.2566  0.0609  0.3879
 1667TIP3    H229197   0.104   4.438   7.901  2.5274 -0.6373  0.4938
 1668TIP3   OH229198   1.670   1.073   8.929  0.1997 -0.5488  0.0539
 1668TIP3    H129199   1.681   1.160   8.890  0.5631 -0.2089  0.8874
 1668TIP3    H229200   1.706   1.082   9.017 -1.9820 -0.8612  1.0388
 1669TIP3   OH229201   5.907   5.748   7.754  0.3116 -0.4464  0.1690
 1669TIP3    H129202   5.985   5.730   7.807  1.4974  0.1848 -1.3149
 1669TIP3    H229203   5.842   5.778   7.818  1.7920  0.6154  1.2595
 1670TIP3   OH229204   1.077   6.860   8.041 -0.2195  0.2359  0.2565
 1670TIP3    H129205   1.017   6.853   7.967 -1.1128 -1.1946  1.0709
 1670TIP3    H229206   1.044   6.933   8.092  0.7646  1.6371 -1.0287
 1671TIP3   OH229207   5.727   0.258   7.559 -0.0319  0.0642  0.1542
 1671TIP3    H129208   5.753   0.266   7.651  1.0778  1.4199 -0.2275
 1671TIP3    H229209   5.749   0.169   7.535  1.1940  0.1713  0.7894
 1672TIP3   OH229210   5.285   5.043   8.868 -0.5093  0.0328  0.8163
 1672TIP3    H129211   5.242   5.087   8.942 -1.2789  1.3277 -0.3437
 1672TIP3    H229212   5.253   5.091   8.791  1.2292 -0.4928 -0.2655
 1673TIP3   OH229213   2.846   6.178   8.053 -0.4712 -0.4606  0.1668
 1673TIP3    H129214   2.861   6.229   8.133 -1.8032 -1.1850  0.9258
 1673TIP3    H229215   2.821   6.242   7.987  1.5797  0.2619  0.0279
 1674TIP3   OH229216   4.284   6.733   9.306 -0.6030 -0.0211  0.0574
 1674TIP3    H129217   4.360   6.675   9.303 -0.3793  0.1363  1.5345
 1674TIP3    H229218   4.301   6.800   9.241 -0.5625 -1.2399 -1.2233
 1675TIP3   OH229219   3.623   1.727   7.641  0.0181  0.5827  0.4978
 1675TIP3    H129220   3.606   1.773   7.723 -1.9673 -1.1597  1.1468
 1675TIP3    H229221   3.554   1.758   7.582  0.3538  0.4767  0.0440
 1676TIP3   OH229222   3.062   6.913   8.009 -0.5015  0.0151 -0.4158
 1676TIP3    H129223   3.069   6.836   7.952  0.9060  1.5189 -2.3629
 1676TIP3    H229224   3.129   6.973   7.978  0.8669  0.6717  3.3408
 1677TIP3   OH229225   4.822   7.480   6.802 -0.1620  0.1812  0.2041
 1677TIP3    H129226   4.911   7.502   6.776  0.0763  0.5300  1.2533
 1677TIP3    H229227   4.773   7.561   6.790 -0.0447  0.3528  0.8104
 1678TIP3   OH229228   2.533   1.539   7.666 -0.5447 -0.0712  0.2177
 1678TIP3    H129229   2.451   1.581   7.692 -0.9720 -1.9136  2.1841
 1678TIP3    H229230   2.573   1.511   7.748  2.3908  1.1948 -0.6119
 1679TIP3   OH229231   6.954   2.106   7.590  0.1603  0.2111 -0.8052
 1679TIP3    H129232   6.917   2.193   7.581 -0.5584  0.2092  1.4000
 1679TIP3    H229233   7.048   2.121   7.601  0.2320  0.5762 -1.8650
 1680TIP3   OH229234   2.247   0.817   6.845  0.0582  0.1595 -0.4057
 1680TIP3    H129235   2.315   0.805   6.779  1.0009 -2.3687  0.8560
 1680TIP3    H229236   2.179   0.754   6.821  0.5036 -0.9393  1.0678
 1681TIP3   OH229237   1.290   2.721   7.566 -0.2252  0.2677 -0.0321
 1681TIP3    H129238   1.280   2.666   7.643  1.2846 -0.9801 -0.6953
 1681TIP3    H229239   1.316   2.661   7.496  0.1764  1.6230 -1.0888
 1682TIP3   OH229240   1.441   2.743   8.572  0.1193 -0.2633 -0.0523
 1682TIP3    H129241   1.428   2.703   8.658  0.2093 -1.0559 -0.4048
 1682TIP3    H229242   1.360   2.725   8.525 -0.9104  2.1849  0.6193
 1683TIP3   OH229243   5.304   1.738   9.705  0.0391 -0.1994  0.1792
 1683TIP3    H129244   5.301   1.642   9.702  0.1060 -0.3593  2.7211
 1683TIP3    H229245   5.238   1.761   9.770  0.8668  1.4080  0.4820
 1684TIP3   OH229246   0.035   5.235   7.932  0.5760 -0.3582 -0.4081
 1684TIP3    H129247   0.107   5.298   7.926  1.4881 -1.4648 -1.8854
 1684TIP3    H229248   0.041   5.200   8.021  0.6617  0.9118  0.1061
 1685TIP3   OH229249   5.926   2.647   7.303  0.0697 -0.0881  0.0729
 1685TIP3    H129250   6.010   2.634   7.260 -0.0245  3.2704 -1.4389
 1685TIP3    H229251   5.947   2.682   7.390  0.2327 -0.5744  0.2291
 1686TIP3   OH229252   1.272   5.788   8.299  0.1503  0.3692  0.1327
 1686TIP3    H129253   1.206   5.809   8.232  0.4684  1.0826  0.0272
 1686TIP3    H229254   1.269   5.863   8.358 -0.0706 -0.2259  0.8830
 1687TIP3   OH229255   7.063   0.239   8.630  0.0458  0.1310 -0.0593
 1687TIP3    H129256   7.152   0.260   8.602 -0.0152  0.1323 -0.2521
 1687TIP3    H229257   7.051   0.287   8.712  0.6727 -0.8728  0.6423
 1688TIP3   OH229258   3.968   0.174   8.305 -0.1121  0.5670  0.0292
 1688TIP3    H129259   4.049   0.221   8.285 -0.5374  0.4103 -2.3521
 1688TIP3    H229260   3.898   0.236   8.283 -0.7099  0.6130  1.8339
 1689TIP3   OH229261   5.335   3.713   9.321 -0.1533  0.1043  0.2173
 1689TIP3    H129262   5.324   3.648   9.251 -2.1206  0.7935 -0.1727
 1689TIP3    H229263   5.308   3.796   9.282  0.6451  0.8642  1.2232
 1690TIP3   OH229264   6.587   0.833   7.702 -0.1073  0.8434  0.3897
 1690TIP3    H129265   6.652   0.870   7.643  0.1561  1.5845  1.1423
 1690TIP3    H229266   6.638   0.791   7.771 -0.4296  0.9040  0.6647
 1691TIP3   OH229267   4.835   5.314   7.531  0.6225  0.2322  0.1430
 1691TIP3    H129268   4.868   5.363   7.455  0.4906 -1.1249 -0.8299
 1691TIP3    H229269   4.754   5.274   7.500  1.3482 -1.5934  0.4951
 1692TIP3   OH229270   0.358   7.186   7.339 -0.8393 -0.6889 -0.0607
 1692TIP3    H129271   0.405   7.269   7.347  1.3499 -1.8231 -0.4133
 1692TIP3    H229272   0.345   7.174   7.245 -0.6862 -0.9924 -0.0439
 1693TIP3   OH229273   5.560   6.806   9.163 -0.1276  0.2611  0.1880
 1693TIP3    H129274   5.611   6.748   9.220  0.2351  0.8571  0.4863
 1693TIP3    H229275   5.470   6.776   9.172  0.0956 -0.4607  0.0817
 1694TIP3   OH229276   0.637   0.704   8.468 -0.9511  0.1021  0.3689
 1694TIP3    H129277   0.585   0.777   8.500 -2.6671 -0.5233 -0.8801
 1694TIP3    H229278   0.652   0.650   8.546 -3.2123 -0.3022  0.5834
 1695TIP3   OH229279   1.883   4.640   8.670  0.0724  0.4904  0.2228
 1695TIP3    H129280   1.947   4.678   8.730  1.1576 -0.8170 -0.0624
 1695TIP3    H229281   1.930   4.635   8.586 -0.0992 -1.2693  0.2124
 1696TIP3   OH229282   3.600   6.189   9.638  0.3184 -0.0591 -0.5206
 1696TIP3    H129283   3.527   6.211   9.696  0.4568  0.2416 -0.4558
 1696TIP3    H229284   3.667   6.254   9.659  0.3250  0.1304 -1.1000
 1697TIP3   OH229285   0.065   7.560   7.240 -0.0509 -0.5693 -0.3782
 1697TIP3    H129286   0.045   7.652   7.252 -2.1343 -1.0899  0.4703
 1697TIP3    H229287   0.025   7.516   7.315 -1.5842 -2.4755 -2.1959
 1698TIP3   OH229288   1.526   7.046   8.095 -0.3817  0.1728  0.6015
 1698TIP3    H129289   1.589   7.118   8.102  0.7540 -0.6887 -0.3383
 1698TIP3    H229290   1.578   6.968   8.111 -1.2778 -0.5546  0.0278
 1699TIP3   OH229291   3.990   7.389   8.638  0.5303  0.0905  0.7237
 1699TIP3    H129292   4.020   7.398   8.548 -0.0982  2.6090  0.6863
 1699TIP3    H229293   3.895   7.388   8.632  0.4926 -0.9096  1.2997
 1700TIP3   OH229294   4.893   3.227   9.175 -0.0921 -0.0267 -0.0298
 1700TIP3    H129295   4.925   3.318   9.171  0.7891 -0.3494 -0.9177
 1700TIP3    H229296   4.921   3.189   9.091 -0.6785 -1.0455  0.2286
 1701TIP3   OH229297   1.522   6.500   9.322  0.0678 -0.6847  0.3888
 1701TIP3    H129298   1.464   6.576   9.331 -0.2889 -0.8498 -0.4086
 1701TIP3    H229299   1.564   6.492   9.407  0.6415  0.8352  0.2800
 1702TIP3   OH229300   0.870   2.510   8.061 -0.3414  0.4115  0.0631
 1702TIP3    H129301   0.837   2.522   7.972  0.8556  1.1415 -0.3109
 1702TIP3    H229302   0.822   2.435   8.095 -0.5858 -0.0843 -1.3169
 1703TIP3   OH229303   5.793   0.000   7.533 -0.2919 -0.0848  0.0131
 1703TIP3    H129304   5.793  -0.095   7.520 -0.4821 -0.1582  0.5673
 1703TIP3    H229305   5.886   0.025   7.527 -0.1579 -0.4170  0.6876
 1704TIP3   OH229306   5.784   4.400   9.398  0.0071  0.4850  0.0331
 1704TIP3    H129307   5.751   4.472   9.345 -1.1822 -0.0689 -0.0178
 1704TIP3    H229308   5.863   4.434   9.440  0.9375  0.9771 -1.9944
 1705TIP3   OH229309   5.850   5.154   8.565  0.0487 -0.0459  0.0379
 1705TIP3    H129310   5.847   5.063   8.596 -0.7194 -0.2491 -0.5970
 1705TIP3    H229311   5.772   5.195   8.602 -0.0041  0.1529 -0.2879
 1706TIP3   OH229312   4.621   5.407   7.699  0.0015 -0.2121  0.4191
 1706TIP3    H129313   4.579   5.324   7.676  0.2140 -0.3483  0.5233
 1706TIP3    H229314   4.714   5.388   7.699  0.0165 -0.1934  1.2879
 1707TIP3   OH229315   6.591   6.013   7.588 -0.1278  0.1010  0.7605
 1707TIP3    H129316   6.552   6.089   7.630  0.0861  0.3566  0.5036
 1707TIP3    H229317   6.682   6.039   7.571 -0.7833  0.9463 -2.0558
 1708TIP3   OH229318   0.392   5.710   6.878  0.0726  0.3465  0.0031
 1708TIP3    H129319   0.463   5.744   6.824 -0.4862  0.7511 -0.4848
 1708TIP3    H229320   0.322   5.775   6.870  0.0442  0.5259  1.3641
 1709TIP3   OH229321   2.360   2.457   7.881 -0.2250 -0.1981  0.2595
 1709TIP3    H129322   2.384   2.540   7.839  1.4498 -1.3317 -1.1586
 1709TIP3    H229323   2.284   2.479   7.935 -0.5792  1.9957 -1.0008
 1710TIP3   OH229324   6.342   4.562   8.622 -0.3525 -0.3818  0.2811
 1710TIP3    H129325   6.267   4.540   8.677  0.4978 -0.7355  1.3256
 1710TIP3    H229326   6.376   4.643   8.659  0.7430 -1.0746  0.8271
 1711TIP3   OH229327   1.087   4.967   7.046  0.4553 -1.4683 -0.3310
 1711TIP3    H129328   1.050   5.018   7.118  1.6040 -0.1177 -0.6266
 1711TIP3    H229329   1.012   4.944   6.991 -0.2076 -0.8392  0.2867
 1712TIP3   OH229330   0.678   6.843   7.148  0.2463 -0.7100  0.3081
 1712TIP3    H129331   0.697   6.907   7.216 -1.3145  1.3681 -1.1142
 1712TIP3    H229332   0.592   6.807   7.171 -1.0789  1.2208 -1.3362
 1713TIP3   OH229333   1.134   7.435   7.581  0.1932  0.4672 -0.4625
 1713TIP3    H129334   1.147   7.406   7.672  1.4986 -2.3388 -1.4400
 1713TIP3    H229335   1.190   7.512   7.572 -0.0750  0.8866  1.1271
 1714TIP3   OH229336   4.909   2.369   7.829 -0.7638  0.0927 -0.4713
 1714TIP3    H129337   4.864   2.324   7.900 -1.5584 -0.6745 -1.4218
 1714TIP3    H229338   4.978   2.308   7.802 -0.1283  0.6086 -0.0120
 1715TIP3   OH229339   2.451   1.913   7.925  0.6270  0.0391  0.1321
 1715TIP3    H129340   2.362   1.933   7.955  0.4472 -0.7699  0.1709
 1715TIP3    H229341   2.446   1.919   7.830  0.3833 -0.5424  0.1013
 1716TIP3   OH229342   3.819   0.410   7.744 -0.1085 -0.0153  0.1885
 1716TIP3    H129343   3.908   0.377   7.730  0.7835  1.1602  2.6948
 1716TIP3    H229344   3.763   0.333   7.729  1.2054 -0.6338 -2.0233
 1717TIP3   OH229345   0.092   3.133   8.511 -0.4440  0.0381 -0.7695
 1717TIP3    H129346   0.024   3.193   8.477 -1.5360 -1.9048 -2.2120
 1717TIP3    H229347   0.154   3.125   8.439 -0.5178 -0.8426 -0.7427
 1718TIP3   OH229348   5.420   0.754   8.007 -0.6142  0.0083 -0.3509
 1718TIP3    H129349   5.325   0.756   8.013 -0.5653 -0.4915  0.7179
 1718TIP3    H229350   5.445   0.847   8.004 -1.0618  0.1777  0.7468
 1719TIP3   OH229351   2.207   0.780   7.194  0.5910 -0.1307  0.0247
 1719TIP3    H129352   2.167   0.807   7.276 -1.1776 -2.0418 -0.1269
 1719TIP3    H229353   2.147   0.811   7.126  1.8821  1.1718 -0.6011
 1720TIP3   OH229354   2.471   3.484   9.022  0.1636  0.4900  0.4371
 1720TIP3    H129355   2.561   3.465   9.046  0.0104 -1.0315 -0.0933
 1720TIP3    H229356   2.447   3.560   9.076  1.9853  1.4157  0.0215
 1721TIP3   OH229357   1.354   2.928   8.875 -0.4339  0.4603 -0.4112
 1721TIP3    H129358   1.260   2.938   8.894 -0.8086 -2.7027 -0.0393
 1721TIP3    H229359   1.397   2.981   8.942 -1.9531  0.4659  0.6185
 1722TIP3   OH229360   0.940   5.052   9.651  0.2922  0.3629  0.5270
 1722TIP3    H129361   0.960   4.984   9.716  2.3733  0.6128  0.2215
 1722TIP3    H229362   0.876   5.011   9.593  1.9391 -1.6543 -0.0287
 1723TIP3   OH229363   6.466   0.674   8.640 -0.5491  0.3076 -0.2399
 1723TIP3    H129364   6.507   0.755   8.610 -1.4213  0.6250 -0.6211
 1723TIP3    H229365   6.470   0.679   8.735  0.8911  0.0071 -0.2687
 1724TIP3   OH229366   1.075   2.203   9.149 -0.2106  0.2650 -0.1851
 1724TIP3    H129367   1.159   2.159   9.167 -0.6419 -0.4260  0.2079
 1724TIP3    H229368   1.010   2.133   9.158 -0.7796  0.6697 -1.0511
 1725TIP3   OH229369   0.797   5.346   9.446 -0.8290  0.1612  0.3063
 1725TIP3    H129370   0.778   5.273   9.388  0.4116  1.0227 -1.2618
 1725TIP3    H229371   0.810   5.306   9.532 -1.4446 -1.2951 -0.2530
 1726TIP3   OH229372   1.264   2.158   7.795 -0.3532  0.1070 -0.2471
 1726TIP3    H129373   1.260   2.140   7.701  2.3258  2.0992 -0.8546
 1726TIP3    H229374   1.265   2.253   7.802 -0.8389  0.0143  1.8623
 1727TIP3   OH229375   7.420   1.996   8.962 -0.3952  0.1671 -0.3509
 1727TIP3    H129376   7.326   1.993   8.983 -0.5246 -0.1225 -0.9441
 1727TIP3    H229377   7.462   1.954   9.036 -0.8439 -0.8236 -0.6314
 1728TIP3   OH229378   1.634   4.535   8.774 -0.1994  0.3773  0.6230
 1728TIP3    H129379   1.605   4.616   8.814  0.6645 -0.5562  3.3882
 1728TIP3    H229380   1.718   4.557   8.732 -0.8981  1.2843 -0.3405
 1729TIP3   OH229381   5.826   5.895   9.506  0.0924 -0.0656 -0.6054
 1729TIP3    H129382   5.878   5.897   9.425  0.8771  1.1169 -0.1073
 1729TIP3    H229383   5.837   5.983   9.543  1.3195 -1.1238  1.7448
 1730TIP3   OH229384   2.796   4.818   7.566 -0.0976 -0.3961 -0.4383
 1730TIP3    H129385   2.717   4.776   7.532 -0.8126 -1.3272  2.1055
 1730TIP3    H229386   2.850   4.745   7.598  0.5313  0.3721  0.3287
 1731TIP3   OH229387   3.017   3.991   7.930 -0.1807  0.1493 -0.0998
 1731TIP3    H129388   3.103   4.015   7.895 -0.2917 -0.9882 -1.2327
 1731TIP3    H229389   2.973   4.075   7.943  0.9677  0.7329  0.1629
 1732TIP3   OH229390   0.807   2.492   7.793  0.1344 -0.4353 -0.2216
 1732TIP3    H129391   0.768   2.539   7.719 -0.5479 -0.9979 -0.2269
 1732TIP3    H229392   0.897   2.473   7.764 -0.1119 -0.6128 -0.8927
 1733TIP3   OH229393   2.041   2.120   9.122  0.7646 -0.3319 -0.0170
 1733TIP3    H129394   2.135   2.116   9.105  1.0948  1.4984  1.0828
 1733TIP3    H229395   2.025   2.211   9.145 -1.1550 -0.7759  0.5881
 1734TIP3   OH229396   2.675   3.381   7.911 -0.4361  0.0988 -0.2254
 1734TIP3    H129397   2.689   3.323   7.986 -0.5605  1.4974  0.9296
 1734TIP3    H229398   2.763   3.416   7.892 -0.5063  0.2403 -0.2927
 1735TIP3   OH229399   1.248   2.704   9.493 -0.3392  0.2897  0.2414
 1735TIP3    H129400   1.187   2.636   9.465  0.0643 -1.1826  2.6155
 1735TIP3    H229401   1.196   2.762   9.548 -0.4817  1.4809 -1.0894
 1736TIP3   OH229402   5.394   3.802   7.335  0.4756 -0.1118  0.4862
 1736TIP3    H129403   5.380   3.777   7.244  1.4924  0.8098  0.0559
 1736TIP3    H229404   5.489   3.809   7.344  0.3859 -0.2402  1.6274
 1737TIP3   OH229405   6.324   3.545   7.416  0.2045 -0.1431  0.0330
 1737TIP3    H129406   6.230   3.536   7.427 -0.5417  0.2664 -4.4503
 1737TIP3    H229407   6.358   3.456   7.429 -1.3865 -1.1376 -2.0438
 1738TIP3   OH229408   2.677   2.590   8.703 -0.3011  0.3098 -0.6998
 1738TIP3    H129409   2.608   2.595   8.638 -1.6679 -0.2030  0.6534
 1738TIP3    H229410   2.701   2.681   8.722 -2.3861  0.6531  0.5922
 1739TIP3   OH229411   6.604   0.345   9.485 -0.0459  0.0024  0.0450
 1739TIP3    H129412   6.624   0.273   9.546  0.8402 -0.6591 -0.9921
 1739TIP3    H229413   6.663   0.416   9.513  1.5960 -0.8751 -1.0447
 1740TIP3   OH229414   4.663   5.087   7.546 -0.0710  0.3388  0.3632
 1740TIP3    H129415   4.571   5.090   7.571 -0.2346  0.6015 -0.2404
 1740TIP3    H229416   4.661   5.080   7.450  0.5308 -0.4692  0.4046
 1741TIP3   OH229417   5.480   0.431   7.375 -0.3519 -0.4933 -0.0045
 1741TIP3    H129418   5.410   0.409   7.314 -2.6017  1.6016  1.6290
 1741TIP3    H229419   5.466   0.373   7.450 -1.7294  1.2912  1.1950
 1742TIP3   OH229420   2.113   7.230   7.637 -0.7200  0.1529  0.3552
 1742TIP3    H129421   2.041   7.243   7.699 -1.0067  2.2570 -0.3523
 1742TIP3    H229422   2.185   7.281   7.674 -0.2604 -0.1877 -0.0568
 1743TIP3   OH229423   7.070   4.880   8.509 -0.2185  0.1579 -0.2241
 1743TIP3    H129424   7.067   4.913   8.419 -0.0371 -1.3018 -0.7967
 1743TIP3    H229425   7.099   4.954   8.561 -3.0080  1.8750 -0.9276
 1744TIP3   OH229426   6.479   4.189   8.885  0.0752 -0.1514 -1.2280
 1744TIP3    H129427   6.491   4.171   8.792 -3.0847 -1.9094 -1.4044
 1744TIP3    H229428   6.552   4.142   8.927 -1.3189 -3.8777 -2.5550
 1745TIP3   OH229429   2.756   5.636   9.726 -0.8864  0.0819  0.5344
 1745TIP3    H129430   2.823   5.568   9.727 -1.1671 -0.2721 -1.1237
 1745TIP3    H229431   2.786   5.697   9.658 -2.1350  0.0006 -0.1208
 1746TIP3   OH229432   2.956   5.255   9.260 -0.7032  0.0691  0.1547
 1746TIP3    H129433   3.000   5.266   9.176 -0.0761 -0.4258  0.4124
 1746TIP3    H229434   2.892   5.326   9.263 -0.8218  0.0180 -0.7907
 1747TIP3   OH229435   5.627   3.601   7.844  0.5058 -0.2400  0.4083
 1747TIP3    H129436   5.576   3.538   7.896  1.5329 -1.5648 -0.1204
 1747TIP3    H229437   5.712   3.604   7.887 -0.0259  2.1259  1.4132
 1748TIP3   OH229438   0.536   6.351   8.209 -0.1173 -0.3582 -0.1140
 1748TIP3    H129439   0.475   6.411   8.166  0.3305 -0.2960 -0.6743
 1748TIP3    H229440   0.571   6.297   8.138  1.5633  0.5713 -0.0541
 1749TIP3   OH229441   5.627   2.021   9.058  0.6357  0.1114  0.1046
 1749TIP3    H129442   5.595   2.041   8.970  0.5197 -0.2992  0.0511
 1749TIP3    H229443   5.597   2.095   9.112  0.4126  0.1954 -0.1327
 1750TIP3   OH229444   4.248   1.187   9.659  1.3512 -0.1407  0.3921
 1750TIP3    H129445   4.316   1.135   9.701  0.3079 -0.4683  1.7601
 1750TIP3    H229446   4.168   1.136   9.671  0.6568  0.8036 -0.0818
 1751TIP3   OH229447   3.015   5.285   7.498  0.1855 -0.1195  0.0309
 1751TIP3    H129448   2.996   5.282   7.404  2.0324  3.8812 -0.7159
 1751TIP3    H229449   3.027   5.194   7.524 -1.9739 -1.4946 -3.1882
 1752TIP3   OH229450   0.620   4.865   7.679  0.1330 -0.1882 -0.0867
 1752TIP3    H129451   0.714   4.859   7.665 -0.0640 -4.0901 -0.6738
 1752TIP3    H229452   0.598   4.956   7.656  3.0666 -0.2956 -4.5837
 1753TIP3   OH229453   5.851   1.178   8.505 -0.1406 -0.5371  0.0517
 1753TIP3    H129454   5.762   1.180   8.470 -0.0833  0.1718 -0.0739
 1753TIP3    H229455   5.883   1.091   8.485 -1.4797 -1.5118  1.8216
 1754TIP3   OH229456   3.219   1.737   6.688  0.6670 -0.4442 -0.7625
 1754TIP3    H129457   3.250   1.827   6.679 -1.1399  0.5606  1.9183
 1754TIP3    H229458   3.135   1.736   6.641  0.9817 -0.9071 -1.3170
 1755TIP3   OH229459   3.944   7.366   9.107 -0.0402  0.0788  0.0056
 1755TIP3    H129460   3.961   7.422   9.031  0.0481  0.2095  0.1229
 1755TIP3    H229461   3.931   7.279   9.069 -2.7603  0.5941 -0.4284
 1756TIP3   OH229462   3.752   0.074   8.480 -0.1384 -0.2696 -0.1013
 1756TIP3    H129463   3.797   0.059   8.397  0.2221  1.0238 -0.1612
 1756TIP3    H229464   3.800   0.146   8.521 -0.8370 -0.3125  0.8319
 1757TIP3   OH229465   3.162   3.145   8.604  0.8445 -0.2743  0.3634
 1757TIP3    H129466   3.255   3.166   8.596  1.1301 -1.3726  0.5749
 1757TIP3    H229467   3.148   3.074   8.542  0.0097  0.2709 -0.0839
 1758TIP3   OH229468   4.839   5.675   9.317 -0.4401  0.4032  0.1358
 1758TIP3    H129469   4.797   5.591   9.300  0.2428 -0.1641  1.1397
 1758TIP3    H229470   4.933   5.655   9.318 -0.3009  1.0513  1.0014
 1759TIP3   OH229471   4.088   1.826   8.530  0.5761  0.0376 -0.6133
 1759TIP3    H129472   4.051   1.740   8.509 -0.4372  0.1190  0.6910
 1759TIP3    H229473   4.157   1.807   8.594  0.2989  0.1941 -0.2655
 1760TIP3   OH229474   5.876   3.452   7.954 -0.2442 -0.0214  0.0846
 1760TIP3    H129475   5.935   3.381   7.930  0.4912  0.2197  1.1150
 1760TIP3    H229476   5.897   3.472   8.045  0.4065  2.2806 -0.4828
 1761TIP3   OH229477   2.260   5.163   8.050  0.1013 -0.2467 -0.0809
 1761TIP3    H129478   2.316   5.097   8.089  0.2064  1.0720  2.1633
 1761TIP3    H229479   2.171   5.138   8.077  0.1019  0.3066  0.4354
 1762TIP3   OH229480   0.134   6.833   9.017  0.6674  0.0623  0.2187
 1762TIP3    H129481   0.200   6.771   8.984  0.1391 -0.6510  0.4827
 1762TIP3    H229482   0.164   6.854   9.106 -0.0672 -1.1845  0.7905
 1763TIP3   OH229483   2.185   3.688   7.887  0.3467  0.2540 -0.6531
 1763TIP3    H129484   2.271   3.704   7.926 -0.1161 -0.3577  0.6945
 1763TIP3    H229485   2.186   3.595   7.865 -0.0023  0.2194 -0.5275
 1764TIP3   OH229486   1.170   7.190   8.936 -0.1811 -0.6425 -0.0853
 1764TIP3    H129487   1.219   7.131   8.992  1.2425 -0.5787 -1.1817
 1764TIP3    H229488   1.232   7.262   8.918 -1.3480  0.4162  0.0151
 1765TIP3   OH229489   4.300   1.859   9.836 -0.1778  0.1459  0.0338
 1765TIP3    H129490   4.220   1.903   9.864  0.3120  0.9116  0.2529
 1765TIP3    H229491   4.355   1.929   9.801  0.3129 -0.4058 -0.3211
 1766TIP3   OH229492   4.329   2.875   8.204  0.5558  0.2359 -0.8863
 1766TIP3    H129493   4.374   2.793   8.188  3.8364  1.9184 -1.1157
 1766TIP3    H229494   4.295   2.901   8.118  0.5433 -0.2877 -1.0430
 1767TIP3   OH229495   6.966   2.061   6.473 -0.0478 -0.2951  0.4772
 1767TIP3    H129496   6.925   2.145   6.453 -0.9418 -0.8253  0.0003
 1767TIP3    H229497   6.894   2.005   6.501  0.5159 -0.9336  0.6880
 1768TIP3   OH229498   4.628   4.878   8.607  0.2467  0.1397  0.9004
 1768TIP3    H129499   4.624   4.786   8.632 -0.0082  0.4448  2.0257
 1768TIP3    H229500   4.691   4.917   8.667 -0.3394  0.8777  1.0544
 1769TIP3   OH229501   0.933   3.597   8.518 -0.2810 -0.3104  0.2934
 1769TIP3    H129502   0.862   3.626   8.462  0.6522  0.7871 -0.3632
 1769TIP3    H229503   0.891   3.540   8.583 -1.7241  0.2450 -0.1239
 1770TIP3   OH229504   2.982   5.219   7.945  0.1687  0.2299 -0.1178
 1770TIP3    H129505   2.985   5.288   7.880  0.1810 -0.2798 -0.6670
 1770TIP3    H229506   3.054   5.161   7.922  0.6062  0.4009  0.7642
 1771TIP3   OH229507   1.280   1.643   9.454 -0.3399 -0.8178  0.1151
 1771TIP3    H129508   1.239   1.592   9.384  1.2107 -2.0114  0.0006
 1771TIP3    H229509   1.374   1.628   9.441  0.2246  2.2348  0.0033
 1772TIP3   OH229510   4.843   6.940   9.957  0.1849  0.0842  0.0659
 1772TIP3    H129511   4.816   7.021   9.999 -0.0863 -0.3150  0.6872
 1772TIP3    H229512   4.772   6.878   9.978  2.3946 -1.5962  3.4561
 1773TIP3   OH229513   3.089   0.461   8.368 -0.1244  0.3934  0.0859
 1773TIP3    H129514   3.161   0.400   8.350 -0.2371  0.1664  0.3866
 1773TIP3    H229515   3.017   0.429   8.314  0.1391  0.9092 -0.5892
 1774TIP3   OH229516   0.561   5.386   7.859  0.0452 -0.5046  0.1371
 1774TIP3    H129517   0.598   5.466   7.823 -0.7164 -0.5085 -0.6724
 1774TIP3    H229518   0.631   5.321   7.852  1.0677  0.3379  1.8332
 1775TIP3   OH229519   1.153   5.155   7.667  0.4640  0.0729 -0.1915
 1775TIP3    H129520   1.191   5.134   7.752  1.1758  1.5819 -0.0991
 1775TIP3    H229521   1.225   5.143   7.605  0.2821  0.1154 -0.4124
 1776TIP3   OH229522   4.751   5.937   7.715  0.0555  0.2344  0.0880
 1776TIP3    H129523   4.676   5.928   7.656  0.7947  0.5226 -0.9167
 1776TIP3    H229524   4.779   5.847   7.732  0.2949  0.1702 -0.6132
 1777TIP3   OH229525   4.114   3.222   9.634 -0.5856  0.6575  0.1754
 1777TIP3    H129526   4.146   3.136   9.608 -1.0403  1.1364 -2.2144
 1777TIP3    H229527   4.019   3.216   9.628 -0.5917  1.5701 -1.0401
 1778TIP3   OH229528   5.466   5.012   6.876 -0.0481  0.5578 -0.2795
 1778TIP3    H129529   5.390   4.969   6.915  0.4450 -0.3074 -0.2669
 1778TIP3    H229530   5.509   4.944   6.825 -0.1556  1.4457 -1.5882
 1779TIP3   OH229531   1.533   4.053   7.928  0.0730  0.6561  0.9070
 1779TIP3    H129532   1.477   4.036   7.852 -0.0803  0.0485  1.1444
 1779TIP3    H229533   1.618   4.017   7.903 -0.4036 -1.0761  1.6341
 1780TIP3   OH229534   3.097   0.748   8.264 -0.2757 -0.2747 -0.2828
 1780TIP3    H129535   3.055   0.783   8.344 -1.9638  0.1923 -1.3124
 1780TIP3    H229536   3.132   0.663   8.290  0.1327  0.3151  1.2109
 1781TIP3   OH229537   7.057   7.415   7.839  0.0918 -0.1565 -0.5583
 1781TIP3    H129538   7.131   7.474   7.857 -0.5810  0.2772  0.9277
 1781TIP3    H229539   6.981   7.461   7.873 -0.4223 -2.0099  0.9932
 1782TIP3   OH229540   4.860   4.123   7.875 -0.4049 -0.1483 -0.0873
 1782TIP3    H129541   4.926   4.158   7.814  0.7436 -0.7608  0.7743
 1782TIP3    H229542   4.894   4.038   7.901 -1.0549 -0.0481  1.1524
 1783TIP3   OH229543   7.102   2.840   8.577  0.0648  0.2264 -0.0319
 1783TIP3    H129544   7.135   2.928   8.563 -1.7995  0.7272 -1.7408
 1783TIP3    H229545   7.034   2.850   8.644  1.6236 -0.4183  1.7510
 1784TIP3   OH229546   4.797   0.857   8.693 -0.8709 -0.5676 -0.5980
 1784TIP3    H129547   4.754   0.783   8.737 -0.1148 -0.4462  0.3985
 1784TIP3    H229548   4.768   0.933   8.743  0.7738 -0.5244  0.3504
 1785TIP3   OH229549   6.530   3.046   8.314 -0.7855 -0.8178 -0.2434
 1785TIP3    H129550   6.596   3.092   8.261 -1.6862  0.3801 -0.3712
 1785TIP3    H229551   6.577   2.971   8.351  0.4893 -0.3295 -0.8039
 1786TIP3   OH229552   0.827   2.819   7.263  0.3247 -0.7728 -0.4008
 1786TIP3    H129553   0.816   2.749   7.198  0.9860  0.4029 -1.8220
 1786TIP3    H229554   0.765   2.887   7.235  0.1337 -0.5262  0.6066
 1787TIP3   OH229555   1.678   1.319   8.625  0.0300  0.0030 -0.5125
 1787TIP3    H129556   1.705   1.387   8.563 -0.9186  0.0566 -0.8799
 1787TIP3    H229557   1.723   1.240   8.594 -0.6346 -0.0316 -1.4541
 1788TIP3   OH229558   5.673   4.296   7.889 -0.0521 -0.0957  0.2100
 1788TIP3    H129559   5.579   4.300   7.875 -0.0726 -0.7957  0.0937
 1788TIP3    H229560   5.695   4.203   7.878  0.7754  0.1776 -0.5582
 1789TIP3   OH229561   3.677   0.733   8.200  0.1956 -0.5463  0.4062
 1789TIP3    H129562   3.724   0.664   8.154  1.1872  0.0964  0.3999
 1789TIP3    H229563   3.591   0.696   8.220  0.3508 -1.4157 -0.4721
 1790TIP3   OH229564   6.860   6.745   7.378 -0.7468 -0.1243 -0.6804
 1790TIP3    H129565   6.816   6.780   7.300 -0.1472 -1.7771 -1.7997
 1790TIP3    H229566   6.935   6.697   7.344 -0.7074 -1.2416  0.8864
 1791TIP3   OH229567   6.094   4.294   7.852 -0.3398  0.0574 -0.4746
 1791TIP3    H129568   6.095   4.200   7.832  3.3729  0.0145 -0.8392
 1791TIP3    H229569   6.117   4.337   7.770 -0.7201  1.2190 -0.0032
 1792TIP3   OH229570   5.792   0.304   9.306  0.5528  0.0245  0.3659
 1792TIP3    H129571   5.837   0.363   9.245 -0.0019  0.4249  0.3286
 1792TIP3    H229572   5.740   0.247   9.249 -0.2953  0.6744  0.4674
 1793TIP3   OH229573   0.746   7.077   7.311 -0.3787 -0.2926  0.3336
 1793TIP3    H129574   0.834   7.040   7.315 -0.5405 -0.5992  1.8528
 1793TIP3    H229575   0.745   7.131   7.232  0.8741 -1.0159 -0.1912
 1794TIP3   OH229576   4.479   2.927   8.737  0.0371  0.4598  0.3290
 1794TIP3    H129577   4.393   2.901   8.703  0.7881  2.1093 -3.3698
 1794TIP3    H229578   4.469   2.928   8.832 -3.9658  0.3877  0.0562
 1795TIP3   OH229579   6.315   1.453   9.009 -0.3369 -0.1791  0.3805
 1795TIP3    H129580   6.266   1.495   8.938 -0.0659 -0.8402 -0.1993
 1795TIP3    H229581   6.249   1.407   9.060 -0.4255 -0.3614  0.0978
 1796TIP3   OH229582   4.271   4.892   7.529 -0.0632  0.3720  0.0226
 1796TIP3    H129583   4.265   4.956   7.600  0.0019  1.6669 -1.1033
 1796TIP3    H229584   4.305   4.813   7.571  0.1345  1.1563  1.3956
 1797TIP3   OH229585   2.109   3.936   8.180  0.0304  0.1276  0.1453
 1797TIP3    H129586   2.177   3.922   8.247 -0.5045 -1.0780  0.4711
 1797TIP3    H229587   2.147   4.000   8.120  0.2025  1.9103  2.0418
 1798TIP3   OH229588   6.340   6.181   7.523 -0.6154  0.3648 -0.2395
 1798TIP3    H129589   6.322   6.091   7.549 -1.6095  0.5261 -0.2960
 1798TIP3    H229590   6.391   6.218   7.595 -1.7953  0.2848  0.6814
 1799TIP3   OH229591   3.129   7.348   8.485  0.2600  0.0336 -0.2979
 1799TIP3    H129592   3.199   7.414   8.480  1.1188 -0.7657  0.7124
 1799TIP3    H229593   3.147   7.288   8.412  0.8037 -0.3274  0.1285
 1800TIP3   OH229594   3.175   1.647   8.099  0.1630 -0.0005  0.1625
 1800TIP3    H129595   3.136   1.697   8.171  1.8513 -0.3045  1.3587
 1800TIP3    H229596   3.104   1.636   8.036 -1.5463 -0.1700  2.0159
 1801TIP3   OH229597   2.802   4.733   8.282  0.2612  0.5058 -0.0800
 1801TIP3    H129598   2.724   4.753   8.333  0.5972 -0.4528  0.8393
 1801TIP3    H229599   2.867   4.797   8.311  0.3609  0.1512  0.4870
 1802TIP3   OH229600   0.052   3.065   7.434 -0.3802  0.6296  0.4805
 1802TIP3    H129601  -0.006   3.060   7.509 -0.9737  0.9378  0.0503
 1802TIP3    H229602   0.140   3.063   7.471 -0.6671  0.8050  1.1788
 1803TIP3   OH229603   1.258   5.714   9.070 -0.9198 -0.0095  0.1878
 1803TIP3    H129604   1.254   5.739   9.163  0.2793 -1.0129  0.5439
 1803TIP3    H229605   1.296   5.790   9.027 -2.2166  0.7682  0.3740
 1804TIP3   OH229606   4.205   3.284   8.255  0.2249  0.6356 -0.3440
 1804TIP3    H129607   4.237   3.373   8.272  0.8648  0.8817 -2.5986
 1804TIP3    H229608   4.268   3.228   8.299  0.9824  1.2475 -0.6247
 1805TIP3   OH229609   4.425   2.348   9.581 -0.6746  0.2870  0.4621
 1805TIP3    H129610   4.505   2.350   9.632 -0.3925 -0.7838  0.0909
 1805TIP3    H229611   4.454   2.332   9.491 -1.3443 -1.1854  0.4765
 1806TIP3   OH229612   0.234   2.737   9.157  0.0460  0.1267 -0.3145
 1806TIP3    H129613   0.278   2.690   9.087 -1.0009 -0.2755 -0.7257
 1806TIP3    H229614   0.256   2.688   9.236  0.5658  0.1057 -0.4679
 1807TIP3   OH229615   5.724   4.553   7.819  0.2562 -0.1792 -0.8914
 1807TIP3    H129616   5.659   4.564   7.751 -0.5603 -0.2689 -0.1410
 1807TIP3    H229617   5.710   4.465   7.853  0.1556  0.1230 -0.1180
 1808TIP3   OH229618   3.512   6.001   7.533  0.0422 -0.8292 -0.0156
 1808TIP3    H129619   3.447   6.005   7.604  0.2624  0.4540  0.1262
 1808TIP3    H229620   3.587   5.957   7.573  0.8090  1.3702  1.1086
 1809TIP3   OH229621   2.741   6.366   8.782  0.5679  0.5118 -0.3963
 1809TIP3    H129622   2.736   6.272   8.767 -1.1376  0.6250 -0.7417
 1809TIP3    H229623   2.827   6.380   8.822 -0.1141 -1.5349  1.9982
 1810TIP3   OH229624   5.720   6.154   7.683  0.0131  0.1598 -0.2195
 1810TIP3    H129625   5.716   6.060   7.663 -1.2782 -0.6703  3.2448
 1810TIP3    H229626   5.813   6.174   7.688  0.3706 -1.6467  1.5802
 1811TIP3   OH229627   7.439   3.649   8.896 -0.1537  0.0094  0.6222
 1811TIP3    H129628   7.396   3.731   8.919  0.6639  0.4102  0.7378
 1811TIP3    H229629   7.433   3.595   8.975  1.6596  0.9599  1.4550
 1812TIP3   OH229630   7.187   4.237   8.314 -0.4455 -0.1405  0.0001
 1812TIP3    H129631   7.137   4.203   8.240  1.7744 -0.4411 -1.4768
 1812TIP3    H229632   7.241   4.307   8.278  1.1871 -0.7243  1.1326
 1813TIP3   OH229633   3.291   4.722   7.430 -0.1815  0.1651  0.1025
 1813TIP3    H129634   3.286   4.627   7.424 -0.1320  0.2235 -1.3635
 1813TIP3    H229635   3.384   4.741   7.444 -0.4318 -0.0414  2.3733
 1814TIP3   OH229636   1.953   2.595   8.578  0.2393 -0.1510 -0.2738
 1814TIP3    H129637   1.959   2.686   8.551  0.1087 -0.0921 -0.0982
 1814TIP3    H229638   1.978   2.594   8.670 -0.2794 -0.2180 -0.1301
 1815TIP3   OH229639   2.503   0.073   9.616  0.4676  0.2461  0.3315
 1815TIP3    H129640   2.522   0.060   9.709  2.5802 -2.1209 -0.3190
 1815TIP3    H229641   2.437   0.007   9.596  0.5288  0.2799  0.0166
 1816TIP3   OH229642   7.286   4.468   8.204 -0.7564  0.1108 -0.2434
 1816TIP3    H129643   7.334   4.490   8.124  0.8276 -0.7155  0.4519
 1816TIP3    H229644   7.277   4.551   8.251 -1.6429  0.5925 -1.2060
 1817TIP3   OH229645   1.993   2.364   8.889 -0.0064  0.6252 -0.1057
 1817TIP3    H129646   2.007   2.439   8.830 -0.4039  0.3363 -0.5806
 1817TIP3    H229647   1.988   2.403   8.976  0.1920  1.1076 -0.3028
 1818TIP3   OH229648   6.248   0.028   7.099 -0.0783  0.0410 -0.2599
 1818TIP3    H129649   6.197   0.098   7.139 -1.2583 -1.1071  0.2865
 1818TIP3    H229650   6.329   0.072   7.070 -0.8147  1.6362 -0.0335
 1819TIP3   OH229651   0.042   0.851   8.332 -0.2245 -0.0690  0.2244
 1819TIP3    H129652   0.098   0.823   8.259  0.2846  2.0161 -0.2370
 1819TIP3    H229653   0.002   0.770   8.363  0.6994 -1.2165 -1.4086
 1820TIP3   OH229654   4.407   2.300   8.676 -0.5006 -0.3655  0.2321
 1820TIP3    H129655   4.496   2.290   8.643 -0.0759 -0.0966  1.2673
 1820TIP3    H229656   4.355   2.322   8.599  0.0253 -2.1043 -0.6764
 1821TIP3   OH229657   3.244   5.533   8.837  0.0114  0.1020  0.0476
 1821TIP3    H129658   3.149   5.526   8.828  0.1058 -0.0949 -0.9178
 1821TIP3    H229659   3.277   5.526   8.748  0.9596 -0.2334  0.4130
 1822TIP3   OH229660   2.506   3.182   8.549  0.1859 -0.0603  0.8434
 1822TIP3    H129661   2.492   3.240   8.475 -0.1376 -1.9993 -0.7049
 1822TIP3    H229662   2.452   3.218   8.620 -0.2045  1.3346 -0.1373
 1823TIP3   OH229663   4.492   0.804   7.526  0.1061 -0.3019  0.1279
 1823TIP3    H129664   4.519   0.807   7.618  0.3438  0.0703  0.0494
 1823TIP3    H229665   4.525   0.720   7.494 -0.1828 -0.5368  0.4442
 1824TIP3   OH229666   4.069   2.654   7.396  0.1939  0.4075  0.4255
 1824TIP3    H129667   4.111   2.569   7.405 -1.5743 -0.7649 -1.4548
 1824TIP3    H229668   4.140   2.716   7.382  1.4042 -1.1220 -0.4075
 1825TIP3   OH229669   1.349   1.771   7.132 -0.3150 -0.5850  0.5990
 1825TIP3    H129670   1.381   1.795   7.219 -2.8278  0.8177  1.2466
 1825TIP3    H229671   1.314   1.683   7.143 -0.1471 -0.6201  0.8793
 1826TIP3   OH229672   3.223   5.411   8.378  0.3871 -0.4308  0.0186
 1826TIP3    H129673   3.206   5.488   8.324 -0.3176 -1.2255 -0.9344
 1826TIP3    H229674   3.156   5.347   8.352 -0.2061 -0.7417  2.0894
 1827TIP3   OH229675   5.432   3.218   8.309  0.1341 -0.0845  0.1547
 1827TIP3    H129676   5.394   3.223   8.221  0.6027  2.0407  0.0362
 1827TIP3    H229677   5.425   3.307   8.344  1.0985 -0.6115  1.8037
 1828TIP3   OH229678   5.395   1.372   7.989  0.1869  0.1053 -0.1169
 1828TIP3    H129679   5.458   1.349   8.057 -0.2748  1.2572  0.7370
 1828TIP3    H229680   5.358   1.288   7.961  1.1122 -0.4637  0.3274
 1829TIP3   OH229681   3.975   3.393   9.309  0.2458  0.5993 -0.0362
 1829TIP3    H129682   3.963   3.425   9.398 -2.3648 -0.9943  0.2778
 1829TIP3    H229683   3.998   3.301   9.318 -0.5550  0.2826 -0.9679
 1830TIP3   OH229684   2.415   6.298   6.647 -0.0309  0.2623 -0.5429
 1830TIP3    H129685   2.393   6.376   6.596  1.2949  1.0059 -0.0410
 1830TIP3    H229686   2.475   6.330   6.715 -0.7601 -0.9134  0.7084
 1831TIP3   OH229687   2.478   7.198   9.576 -0.3263 -0.3712 -0.6675
 1831TIP3    H129688   2.495   7.203   9.482  0.1766  0.0245 -0.5610
 1831TIP3    H229689   2.455   7.287   9.601 -3.1435 -0.9300 -0.8832
 1832TIP3   OH229690   5.796   2.405   7.810  0.5173  0.1299 -0.0331
 1832TIP3    H129691   5.721   2.373   7.759 -0.1287  0.5630  0.6172
 1832TIP3    H229692   5.853   2.329   7.819  0.2898 -0.1364 -0.7738
 1833TIP3   OH229693   7.398   3.270   8.449 -0.2902  0.1437  0.4380
 1833TIP3    H129694   7.429   3.361   8.452 -0.7791  0.3226  0.0136
 1833TIP3    H229695   7.418   3.241   8.361  1.1571 -0.6280  0.9815
 1834TIP3   OH229696   3.002   6.453   8.532 -0.2881  0.3088 -0.5333
 1834TIP3    H129697   3.032   6.378   8.583 -1.9718 -1.5265 -2.0856
 1834TIP3    H229698   3.039   6.529   8.577  1.3250 -1.4085  1.2247
 1835TIP3   OH229699   1.085   6.664   8.247 -0.3095  0.2475 -0.4277
 1835TIP3    H129700   1.067   6.735   8.186  1.3242 -0.5074 -1.8773
 1835TIP3    H229701   1.138   6.602   8.197  0.0559 -1.0066  1.4030
 1836TIP3   OH229702   6.909   4.520   8.860  0.4990  0.4865  0.1284
 1836TIP3    H129703   6.850   4.462   8.908  1.0820 -0.3911 -0.2084
 1836TIP3    H229704   6.910   4.601   8.912  1.4794 -0.5967  1.9113
 1837TIP3   OH229705   3.596   7.469   7.956 -0.0313  0.4031  0.0955
 1837TIP3    H129706   3.682   7.457   7.997 -0.0206  0.8049  0.1845
 1837TIP3    H229707   3.602   7.416   7.875  0.4099  0.6813 -0.0613
 1838TIP3   OH229708   6.652   4.663   8.040 -0.0971 -0.5271  0.1985
 1838TIP3    H129709   6.743   4.642   8.021 -0.4137 -1.6406 -0.2245
 1838TIP3    H229710   6.655   4.727   8.110  1.0282  0.3054 -0.5819
 1839TIP3   OH229711   6.628   0.181   8.496 -0.1662 -0.5242  0.2186
 1839TIP3    H129712   6.644   0.272   8.521 -1.6614 -0.4455  1.0121
 1839TIP3    H229713   6.549   0.156   8.544  0.8899 -2.6383  0.9808
 1840TIP3   OH229714   0.369   4.657   6.784 -0.1820 -0.5961  0.1945
 1840TIP3    H129715   0.367   4.737   6.732 -1.1305 -0.5147  0.3358
 1840TIP3    H229716   0.446   4.610   6.754  0.5435  0.4933  0.2889
 1841TIP3   OH229717   1.286   4.695   8.187  0.5114 -0.1756 -0.0708
 1841TIP3    H129718   1.339   4.715   8.109  2.3077 -1.5858  0.7407
 1841TIP3    H229719   1.292   4.774   8.241 -0.0710  0.4982 -0.9486
 1842TIP3   OH229720   5.098   3.773   8.198 -0.5211 -0.5880  0.5372
 1842TIP3    H129721   5.176   3.781   8.252 -1.6245  1.8902  1.9412
 1842TIP3    H229722   5.119   3.704   8.135  4.2891  2.4814 -1.7585
 1843TIP3   OH229723   0.210   5.038   7.843  0.0669 -0.2326  0.5417
 1843TIP3    H129724   0.222   5.079   7.758 -2.8180 -1.2607 -0.4862
 1843TIP3    H229725   0.158   5.101   7.893 -0.1736 -0.5640  0.7165
 1844TIP3   OH229726   3.828   1.651   8.741 -0.3189 -0.5088 -0.4606
 1844TIP3    H129727   3.733   1.640   8.746 -0.3644 -0.5604 -1.3720
 1844TIP3    H229728   3.843   1.741   8.772 -0.6527 -0.5170 -0.2640
 1845TIP3   OH229729   1.640   0.551   7.434  0.1241  0.1013 -0.1352
 1845TIP3    H129730   1.563   0.497   7.455  0.9977 -1.0030  0.3020
 1845TIP3    H229731   1.635   0.624   7.495 -0.0024 -0.5396  0.6444
 1846TIP3   OH229732   2.039   3.529   9.226  0.2934  0.1222  0.0440
 1846TIP3    H129733   2.068   3.511   9.315 -0.8448 -0.0449  0.3938
 1846TIP3    H229734   2.002   3.447   9.195 -1.6139  0.8176  0.3451
 1847TIP3   OH229735   5.320   2.543   8.433 -0.2329 -0.2229 -0.5244
 1847TIP3    H129736   5.414   2.559   8.440 -0.2889 -0.2226  0.2266
 1847TIP3    H229737   5.312   2.483   8.358  0.1452  1.5306 -2.0392
 1848TIP3   OH229738   4.859   1.309   7.952  0.7250 -0.7208  0.0569
 1848TIP3    H129739   4.767   1.297   7.973  0.6355 -0.4727 -0.1856
 1848TIP3    H229740   4.860   1.336   7.860  1.1232 -1.9604 -0.3179
 1849TIP3   OH229741   4.148   0.126   7.182  0.4769  0.0192 -0.0262
 1849TIP3    H129742   4.228   0.131   7.128  1.3214  0.7593  1.2487
 1849TIP3    H229743   4.098   0.204   7.156 -0.0926 -0.6853 -1.1608
 1850TIP3   OH229744   3.872   6.286   7.078 -0.1745  0.0015  0.1468
 1850TIP3    H129745   3.874   6.243   6.992 -0.9894 -0.7988  0.5006
 1850TIP3    H229746   3.781   6.276   7.107  0.7265 -2.8944  2.6111
 1851TIP3   OH229747   1.599   1.775   6.715  0.1705 -0.2910  0.2350
 1851TIP3    H129748   1.681   1.813   6.684 -0.4985  1.0450  0.0107
 1851TIP3    H229749   1.551   1.849   6.754 -0.3505 -1.3119  1.6109
 1852TIP3   OH229750   7.378   7.205   8.760  0.2198 -0.3833 -0.6791
 1852TIP3    H129751   7.384   7.284   8.706 -0.5969 -0.5468 -1.0314
 1852TIP3    H229752   7.375   7.134   8.696  0.1487 -0.6386 -0.3902
 1853TIP3   OH229753   2.608   4.196   8.430 -0.2560  0.3846  0.1525
 1853TIP3    H129754   2.687   4.174   8.381 -0.9307  0.5985 -1.0733
 1853TIP3    H229755   2.622   4.157   8.517  1.0180  0.0956 -0.1590
 1854TIP3   OH229756   2.846   4.686   8.868  0.2450  0.1007 -0.3929
 1854TIP3    H129757   2.832   4.593   8.883 -1.5630  0.2464 -0.8995
 1854TIP3    H229758   2.888   4.691   8.782 -1.7617 -0.1967 -1.4432
 1855TIP3   OH229759   6.343   2.150   8.247  0.2593 -0.1555 -0.1855
 1855TIP3    H129760   6.373   2.183   8.332  1.1182  0.0101 -0.5410
 1855TIP3    H229761   6.422   2.145   8.194 -0.3482  0.2679 -1.1589
 1856TIP3   OH229762   3.725   4.741   8.766 -0.0441 -0.0739 -0.6889
 1856TIP3    H129763   3.741   4.722   8.859  0.8184  0.2275 -0.7600
 1856TIP3    H229764   3.669   4.669   8.736  0.0823 -0.4487 -0.0581
 1857TIP3   OH229765   6.470   2.235   9.016  0.5112  0.6474  0.5359
 1857TIP3    H129766   6.440   2.225   8.926  0.7811 -0.7081  0.5818
 1857TIP3    H229767   6.408   2.296   9.056 -0.2236  0.4346 -0.2641
 1858TIP3   OH229768   5.752   0.057   8.577 -0.3005  0.1253 -0.1821
 1858TIP3    H129769   5.676   0.102   8.540 -0.6313  0.7451  1.2122
 1858TIP3    H229770   5.723   0.025   8.662  1.0781  0.6656  0.5369
 1859TIP3   OH229771   3.391   2.492   9.271 -0.4594  0.0320 -0.3322
 1859TIP3    H129772   3.412   2.568   9.324  0.4837 -1.4347  1.5104
 1859TIP3    H229773   3.339   2.436   9.328 -2.8595  0.1042 -2.2869
 1860TIP3   OH229774   6.546   7.081   8.575  0.4084  0.1464  0.2843
 1860TIP3    H129775   6.606   7.015   8.610  1.1264  0.2153 -0.7568
 1860TIP3    H229776   6.604   7.150   8.542 -0.1129 -0.6333 -2.4787
 1861TIP3   OH229777   2.686   4.749   6.733  0.1292  0.3774  0.3289
 1861TIP3    H129778   2.623   4.761   6.662 -0.2029  0.7476  0.6800
 1861TIP3    H229779   2.635   4.708   6.803  0.1205  1.2051  0.8290
 1862TIP3   OH229780   5.843   5.331   8.991  0.2489  0.0492 -0.4760
 1862TIP3    H129781   5.887   5.252   9.022 -0.4896 -1.2200 -2.5253
 1862TIP3    H229782   5.750   5.315   9.008  0.0427  0.2439 -1.3695
 1863TIP3   OH229783   1.399   3.533   9.109 -0.3821 -0.6947 -0.3346
 1863TIP3    H129784   1.349   3.477   9.169  0.1306  0.7540  1.5735
 1863TIP3    H229785   1.356   3.618   9.116  3.2571  1.1709  2.9316
 1864TIP3   OH229786   3.462   3.622   8.109  0.0649  0.4866 -0.2259
 1864TIP3    H129787   3.408   3.674   8.050  1.5294 -0.1170 -2.2085
 1864TIP3    H229788   3.401   3.588   8.175 -1.6719  1.0620 -1.4826
 1865TIP3   OH229789   0.338   0.448   9.392 -0.2166  0.1473 -0.4179
 1865TIP3    H129790   0.373   0.364   9.361 -3.1217 -1.2579 -0.2647
 1865TIP3    H229791   0.303   0.490   9.313 -2.3456 -0.7162 -0.0007
 1866TIP3   OH229792   7.466   4.283   8.520 -0.2570  0.4733  0.3853
 1866TIP3    H129793   7.383   4.243   8.546  0.2967  0.8051  2.9111
 1866TIP3    H229794   7.445   4.375   8.507 -0.4400  0.4181  0.2894
 1867TIP3   OH229795   3.601   1.878   7.859 -0.5732 -0.4618 -0.2814
 1867TIP3    H129796   3.543   1.943   7.820 -2.4642 -1.4965  0.6520
 1867TIP3    H229797   3.683   1.925   7.875 -1.2518  1.1621 -1.3136
 1868TIP3   OH229798   6.760   1.035   7.023  0.1585  0.1177  0.1859
 1868TIP3    H129799   6.729   1.125   7.028 -0.7399 -0.1063 -1.0119
 1868TIP3    H229800   6.782   1.021   6.931  1.6807 -0.4579  0.5991
 1869TIP3   OH229801   1.676   3.520   9.221  0.4930  0.5290 -0.3591
 1869TIP3    H129802   1.584   3.505   9.199 -0.4833 -1.5907  4.1119
 1869TIP3    H229803   1.724   3.468   9.157 -1.4840  0.2229 -1.7057
 1870TIP3   OH229804   0.626   2.874   7.593  0.0326 -0.0813  0.0595
 1870TIP3    H129805   0.588   2.919   7.668  0.5998  0.2925  0.1231
 1870TIP3    H229806   0.634   2.941   7.526  0.1196 -0.2752 -0.1251
 1871TIP3   OH229807   4.762   6.925   7.354  0.0757 -0.1273  0.4498
 1871TIP3    H129808   4.819   6.854   7.383  2.7768  1.3750 -0.8351
 1871TIP3    H229809   4.687   6.921   7.413  0.3899 -3.6103  0.8302
 1872TIP3   OH229810   6.147   1.863   9.508  0.0518 -0.5962 -0.1568
 1872TIP3    H129811   6.234   1.874   9.471  0.0386  0.2260  0.0309
 1872TIP3    H229812   6.146   1.774   9.542 -0.3730 -1.9154 -3.2415
 1873TIP3   OH229813   5.971   7.444   9.307  0.0030 -0.9190  0.2326
 1873TIP3    H129814   6.048   7.488   9.343 -2.0569  0.6954  2.9385
 1873TIP3    H229815   5.906   7.447   9.376 -3.3052 -0.2454 -2.6380
 1874TIP3   OH229816   3.207   1.779   8.594 -0.0449 -0.2190  0.7728
 1874TIP3    H129817   3.175   1.833   8.522  0.0452 -0.0460  0.8611
 1874TIP3    H229818   3.273   1.834   8.637  0.7142 -0.7578  0.3057
 1875TIP3   OH229819   5.712   4.197   7.555 -0.2957 -0.3567  0.0851
 1875TIP3    H129820   5.739   4.157   7.637 -0.3890 -0.4546  0.0674
 1875TIP3    H229821   5.732   4.130   7.489  0.0166 -0.1808  0.0004
 1876TIP3   OH229822   3.800   4.128   8.011  0.2246 -0.4953  0.5415
 1876TIP3    H129823   3.733   4.082   8.062  0.1965 -1.8189 -0.6434
 1876TIP3    H229824   3.750   4.182   7.949  0.2594 -0.4619  0.5430
 1877TIP3   OH229825   4.457   4.407   7.410  0.2522 -0.2150 -0.4531
 1877TIP3    H129826   4.396   4.422   7.338  0.3692  0.2600 -0.4610
 1877TIP3    H229827   4.521   4.478   7.402  0.0949  0.0266  0.2925
 1878TIP3   OH229828   1.128   2.982   8.182  0.3769 -0.5194 -0.2133
 1878TIP3    H129829   1.205   2.934   8.152 -0.2937 -1.3749 -0.5892
 1878TIP3    H229830   1.164   3.062   8.220  1.5314 -1.3636  0.5431
 1879TIP3   OH229831   6.931   5.104   8.748 -0.0613 -0.0857  0.3474
 1879TIP3    H129832   6.926   5.138   8.658  2.1298  0.2687  0.2957
 1879TIP3    H229833   6.965   5.015   8.738 -3.5416 -1.6368  0.6548
 1880TIP3   OH229834   5.310   6.501   9.336 -0.4384 -0.0197  0.3009
 1880TIP3    H129835   5.364   6.422   9.328 -2.4898 -1.7385  2.0127
 1880TIP3    H229836   5.360   6.559   9.394  0.2719 -0.8942  0.5883
 1881TIP3   OH229837   4.849   0.946   7.704  0.6489  0.0900  0.0329
 1881TIP3    H129838   4.841   0.936   7.799 -0.2715  1.7667  0.1612
 1881TIP3    H229839   4.943   0.942   7.687  0.8459  0.1487  1.0639
 1882TIP3   OH229840   2.882   0.875   8.010 -0.0288 -0.1421 -0.0604
 1882TIP3    H129841   2.825   0.951   8.024  0.6112  0.2610  0.4031
 1882TIP3    H229842   2.971   0.910   8.013  0.3882 -1.1733  2.2589
 1883TIP3   OH229843   0.217   1.052   9.680  0.6442 -0.1648  0.3003
 1883TIP3    H129844   0.267   1.064   9.761  1.1991 -0.2746 -0.0201
 1883TIP3    H229845   0.284   1.042   9.612  0.1908  0.9467 -0.3305
 1884TIP3   OH229846   3.930   6.734   8.516 -0.9336  0.1614  0.2906
 1884TIP3    H129847   3.899   6.653   8.558 -0.3057 -0.1789  0.1168
 1884TIP3    H229848   4.004   6.762   8.570 -0.0914 -0.2996 -0.5871
 1885TIP3   OH229849   4.728   4.926   9.342 -0.4663 -0.0445  0.4006
 1885TIP3    H129850   4.720   4.877   9.423 -0.4669 -4.0459 -1.7774
 1885TIP3    H229851   4.814   4.903   9.307 -0.9083  0.6197 -1.2561
 1886TIP3   OH229852   3.779   0.537   8.032 -0.0944 -0.4571 -0.1633
 1886TIP3    H129853   3.865   0.507   8.060  0.5888 -0.3884 -2.0665
 1886TIP3    H229854   3.789   0.555   7.938 -2.2695 -0.8062 -0.5128
 1887TIP3   OH229855   4.154   4.863   8.669 -0.5812 -0.1712 -0.1514
 1887TIP3    H129856   4.199   4.781   8.688  0.9454  0.8669  0.9579
 1887TIP3    H229857   4.169   4.877   8.576 -0.0062 -0.6703 -0.1416
 1888TIP3   OH229858   2.923   1.108   9.451  0.0704 -0.2737 -0.6420
 1888TIP3    H129859   2.840   1.060   9.459  0.2374 -0.3001  1.4557
 1888TIP3    H229860   2.940   1.111   9.356 -1.1520 -2.2649 -0.9850
 1889TIP3   OH229861   7.511   3.158   8.188  0.1408  0.0119 -0.3697
 1889TIP3    H129862   7.522   3.238   8.135  0.4429 -0.6299 -1.3053
 1889TIP3    H229863   7.519   3.087   8.125  1.9305 -0.8549  0.7605
 1890TIP3   OH229864   5.581   1.324   8.176 -0.2766  0.1349  0.2392
 1890TIP3    H129865   5.674   1.303   8.168 -0.4592 -0.5114 -0.3833
 1890TIP3    H229866   5.553   1.280   8.256 -0.6416 -2.1062 -1.0199
 1891TIP3   OH229867   0.422   6.599   8.384  0.8980  0.1707 -0.1706
 1891TIP3    H129868   0.395   6.660   8.452  0.3193 -0.9731  0.6640
 1891TIP3    H229869   0.355   6.531   8.384  1.0640 -0.0410 -1.6626
 1892TIP3   OH229870   2.990   7.535   8.347 -0.7092 -0.2369 -0.0913
 1892TIP3    H129871   3.023   7.449   8.373 -2.1319 -0.2336  1.9393
 1892TIP3    H229872   2.945   7.519   8.264 -0.4727 -1.3516 -0.0222
 1893TIP3   OH229873   1.431   5.192   8.981 -0.3198  0.4685 -0.0546
 1893TIP3    H129874   1.480   5.194   8.899  1.2155  0.4051  0.8285
 1893TIP3    H229875   1.418   5.284   9.003  1.3882  0.5390  0.8161
 1894TIP3   OH229876   5.943   0.649   6.729 -0.3217  0.4308  0.5789
 1894TIP3    H129877   5.849   0.637   6.720  0.0623 -2.0260 -1.1038
 1894TIP3    H229878   5.956   0.744   6.723 -2.5987  0.7510 -0.0871
 1895TIP3   OH229879   4.637   2.014   8.275  0.1499  0.3098  0.0232
 1895TIP3    H129880   4.672   1.934   8.314  0.0874 -0.1324 -0.8114
 1895TIP3    H229881   4.665   2.011   8.183 -1.7575  0.1247 -0.5948
 1896TIP3   OH229882   2.618   5.578   7.393 -0.0554  0.2744 -0.1695
 1896TIP3    H129883   2.571   5.661   7.400 -0.5559  0.0552 -0.8164
 1896TIP3    H229884   2.549   5.513   7.383  0.3486 -0.1844  0.0218
 1897TIP3   OH229885   1.579   7.534   9.014 -0.1458 -0.0353  0.1159
 1897TIP3    H129886   1.623   7.615   8.990 -0.1326 -0.0337  0.1447
 1897TIP3    H229887   1.629   7.465   8.970  0.7419 -0.1615  1.2798
 1898TIP3   OH229888   6.194   1.354   8.163  0.4351  0.2440 -0.4355
 1898TIP3    H129889   6.115   1.351   8.217  0.9978  2.0035  0.5474
 1898TIP3    H229890   6.265   1.330   8.223  0.9352  1.1444 -0.6601
 1899TIP3   OH229891   4.881   6.377   8.959 -0.0724  0.4063 -0.2108
 1899TIP3    H129892   4.844   6.388   8.871 -0.5952 -1.7261 -0.3157
 1899TIP3    H229893   4.949   6.310   8.948  1.6279  1.9216  0.5930
 1900TIP3   OH229894   6.827   3.052   9.012 -0.3326  0.4492  0.7320
 1900TIP3    H129895   6.815   2.965   9.050 -0.0042  0.0321 -0.0918
 1900TIP3    H229896   6.751   3.102   9.041 -1.3101 -0.5514 -0.0137
 1901TIP3   OH229897   4.240   0.068   9.266  0.6838 -0.0625 -0.5155
 1901TIP3    H129898   4.180   0.010   9.313  0.5662  0.2777 -0.2475
 1901TIP3    H229899   4.327   0.037   9.291  0.6349 -0.8756 -1.2891
 1902TIP3   OH229900   3.242   4.001   8.896 -0.4013 -0.3113 -0.3117
 1902TIP3    H129901   3.182   3.992   8.970 -0.6694  0.9331 -0.3497
 1902TIP3    H229902   3.287   3.917   8.891  1.8439  0.4753  3.1881
 1903TIP3   OH229903   3.676   1.643   7.964  0.1460 -0.3622  0.1738
 1903TIP3    H129904   3.626   1.711   7.919 -0.2377 -1.0404 -0.4627
 1903TIP3    H229905   3.753   1.688   7.999 -0.2650  0.4503  0.0526
 1904TIP3   OH229906   4.689   6.550   7.702  0.1955 -0.2551  0.4537
 1904TIP3    H129907   4.596   6.572   7.702  0.1781 -0.2171 -0.8097
 1904TIP3    H229908   4.723   6.588   7.782 -0.7724  0.2017  0.6618
 1905TIP3   OH229909   4.457   1.928   8.494  0.1319 -0.2697  0.1879
 1905TIP3    H129910   4.547   1.902   8.476  0.5185  1.0049  0.2223
 1905TIP3    H229911   4.405   1.879   8.430  1.0270  0.3993 -1.1035
 1906TIP3   OH229912   2.025   6.605   8.234 -0.4969 -0.2095 -0.6253
 1906TIP3    H129913   2.089   6.644   8.293  0.1254 -0.2470 -1.2641
 1906TIP3    H229914   1.993   6.528   8.280 -0.9799  0.4752  0.2128
 1907TIP3   OH229915   0.529   5.311   8.738 -0.3168  0.0618  0.3244
 1907TIP3    H129916   0.497   5.398   8.716 -0.0046 -0.2022 -1.3636
 1907TIP3    H229917   0.466   5.251   8.697  1.0512 -0.4666 -1.1082
 1908TIP3   OH229918   7.163   0.869   7.785  0.1892 -0.0374 -0.5840
 1908TIP3    H129919   7.104   0.822   7.845  0.8209  2.2610  2.0669
 1908TIP3    H229920   7.238   0.892   7.839  1.7084  0.5747 -2.8306
 1909TIP3   OH229921   0.856   4.310   8.933 -0.2094  0.6951  0.2740
 1909TIP3    H129922   0.842   4.405   8.933  4.3664  1.6454  0.8542
 1909TIP3    H229923   0.875   4.289   9.025 -1.2227 -0.8176  0.1629
 1910TIP3   OH229924   5.994   6.260   9.783  0.2684  0.1767  0.1603
 1910TIP3    H129925   5.932   6.209   9.730  2.3000 -0.9271 -1.2888
 1910TIP3    H229926   5.941   6.295   9.854 -2.2509  0.2100 -1.5756
 1911TIP3   OH229927   1.474   4.002   9.458  0.1296 -0.0738  0.2388
 1911TIP3    H129928   1.467   3.914   9.420 -0.1958  0.1067 -0.1265
 1911TIP3    H229929   1.530   3.991   9.534  0.6533 -0.4760 -0.2011
 1912TIP3   OH229930   1.554   5.910   7.632 -0.1296  0.6327  0.1013
 1912TIP3    H129931   1.479   5.867   7.671  0.3926 -0.0992  0.3231
 1912TIP3    H229932   1.555   5.998   7.671  0.0306  0.1239  1.2883
 1913TIP3   OH229933   1.391   1.557   8.718 -0.6307  0.1342 -0.4573
 1913TIP3    H129934   1.400   1.614   8.642  1.8814 -0.1874 -0.4654
 1913TIP3    H229935   1.432   1.605   8.790  0.0192 -0.9409 -0.0835
 1914TIP3   OH229936   4.739   5.374   8.934 -0.0103 -0.2944 -0.4822
 1914TIP3    H129937   4.798   5.300   8.952  0.3852 -0.1634 -1.1788
 1914TIP3    H229938   4.745   5.386   8.839  0.3482  0.9716 -0.3195
 1915TIP3   OH229939   3.950   3.165   8.470  0.3448 -0.2872  0.4361
 1915TIP3    H129940   3.983   3.249   8.438 -0.3266 -1.1452 -2.9610
 1915TIP3    H229941   3.864   3.157   8.428 -0.0378 -2.2242  1.5149
 1916TIP3   OH229942   2.439   1.021   7.130 -0.0182 -0.2734  0.0410
 1916TIP3    H129943   2.346   1.001   7.119 -0.0920 -0.3270  0.7340
 1916TIP3    H229944   2.463   1.067   7.050 -0.7170  0.0194 -0.0052
 1917TIP3   OH229945   4.286   7.278   7.543  0.1440 -0.0330 -0.1615
 1917TIP3    H129946   4.325   7.354   7.499  1.1548  1.4189  2.9082
 1917TIP3    H229947   4.234   7.316   7.614 -1.6240 -2.2042 -0.1713
 1918TIP3   OH229948   6.560   7.011   9.458  0.1836 -0.6658 -0.1238
 1918TIP3    H129949   6.555   7.074   9.531  2.3510  0.6879 -1.0491
 1918TIP3    H229950   6.621   6.944   9.488  0.1418 -0.7598 -0.2470
 1919TIP3   OH229951   5.105   1.009   9.363 -0.5561 -0.2203 -0.2996
 1919TIP3    H129952   5.010   1.010   9.367 -0.6134  0.4343 -1.3820
 1919TIP3    H229953   5.125   0.966   9.279  0.0672  0.5858 -0.5809
 1920TIP3   OH229954   7.296   4.997   8.037 -0.2817  0.5421 -0.2920
 1920TIP3    H129955   7.307   5.033   8.125 -0.7221 -0.8469  0.3576
 1920TIP3    H229956   7.208   5.025   8.010 -0.5308  0.1625  0.1137
 1921TIP3   OH229957   3.196   0.955   9.478 -0.1288  0.4451  0.1490
 1921TIP3    H129958   3.247   1.023   9.434 -0.4894  0.9933  0.5826
 1921TIP3    H229959   3.114   0.998   9.503 -0.4825 -0.2228  0.1634
 1922TIP3   OH229960   5.825   1.607   7.452  0.5559 -0.0811 -0.2191
 1922TIP3    H129961   5.832   1.655   7.370  2.3231  0.9343  0.4778
 1922TIP3    H229962   5.897   1.640   7.505  0.3514 -1.7852  1.1938
 1923TIP3   OH229963   3.562   0.346   8.981 -0.5463 -0.2592  0.6249
 1923TIP3    H129964   3.611   0.426   9.000 -0.3618  0.2433 -1.6733
 1923TIP3    H229965   3.627   0.276   8.988 -0.3969 -0.0640  1.2981
 1924TIP3   OH229966   7.475   1.742   8.479 -0.1911  0.5569 -0.5563
 1924TIP3    H129967   7.442   1.749   8.390  0.2610 -1.9128 -0.9766
 1924TIP3    H229968   7.397   1.728   8.533 -0.2943  0.1436 -0.8152
 1925TIP3   OH229969   5.212   5.071   8.419 -0.4757  0.0917  0.2120
 1925TIP3    H129970   5.193   5.119   8.338 -0.7311 -2.4983 -1.3800
 1925TIP3    H229971   5.143   5.098   8.480  0.0537  2.5319 -0.1531
 1926TIP3   OH229972   0.104   5.765   7.866 -1.0652  0.1489 -0.5448
 1926TIP3    H129973   0.015   5.786   7.839 -0.9450 -0.7145 -1.7269
 1926TIP3    H229974   0.121   5.679   7.826  0.1292  0.0862  0.0504
 1927TIP3   OH229975   5.565   4.847   6.682  0.0218 -0.2600  0.3283
 1927TIP3    H129976   5.549   4.872   6.591  1.0088 -0.1216  0.1784
 1927TIP3    H229977   5.648   4.800   6.680  0.4677  0.4433  1.2655
 1928TIP3   OH229978   5.806   5.735   8.013 -0.1228 -0.2654  0.2569
 1928TIP3    H129979   5.857   5.654   8.006  0.4110 -0.0402  1.3214
 1928TIP3    H229980   5.802   5.752   8.107 -0.4825  0.7885  0.0567
 1929TIP3   OH229981   0.908   3.505   7.054 -0.3306  0.2531 -0.1213
 1929TIP3    H129982   0.920   3.589   7.098 -1.5916  0.4515 -0.1237
 1929TIP3    H229983   0.826   3.515   7.005 -0.9724 -1.2806  0.5845
 1930TIP3   OH229984   2.411   2.945   9.496 -0.1986 -0.3227  0.4537
 1930TIP3    H129985   2.488   2.994   9.525 -0.4530  1.3184 -1.4269
 1930TIP3    H229986   2.415   2.863   9.545  0.0490  1.6620  4.1004
 1931TIP3   OH229987   5.719   6.546   8.807 -0.8967 -0.1678  0.5409
 1931TIP3    H129988   5.634   6.588   8.823 -1.0428 -0.0420 -0.4998
 1931TIP3    H229989   5.777   6.618   8.782 -1.2599 -0.5714 -1.6953
 1932TIP3   OH229990   5.764   5.706   9.057  0.6170  0.8277 -0.0817
 1932TIP3    H129991   5.851   5.717   9.018  1.1229 -0.0672  0.7290
 1932TIP3    H229992   5.767   5.619   9.097 -0.5612  0.9036  0.2140
 1933TIP3   OH229993   2.989   6.953   8.267  0.0337 -0.3624 -0.4942
 1933TIP3    H129994   2.898   6.925   8.260  0.2995 -1.4206  0.0427
 1933TIP3    H229995   3.035   6.901   8.201  0.3220 -0.1917 -0.4298
 1934TIP3   OH229996   0.981   6.041   8.423  0.4554 -0.1180 -0.1524
 1934TIP3    H129997   0.961   6.100   8.351  1.2137 -1.0851 -1.1851
 1934TIP3    H229998   1.073   6.019   8.412  0.1714 -1.5764  0.1384
 1935TIP3   OH229999   0.525   3.956   7.427  0.3320  0.1921  0.0365
 1935TIP3    H130000   0.586   3.911   7.368  0.2196 -1.1391  0.8996
 1935TIP3    H230001   0.443   3.907   7.417 -0.4895  1.6565 -0.7398
 1936TIP3   OH230002   5.778   2.941   8.074 -0.5207 -0.0549 -0.1732
 1936TIP3    H130003   5.858   2.911   8.031  0.1990  1.4529  0.0321
 1936TIP3    H230004   5.707   2.914   8.015  0.1744 -0.9466 -0.6179
 1937TIP3   OH230005   4.064   0.737   9.585  0.1906 -0.6850  0.0487
 1937TIP3    H130006   4.101   0.821   9.560 -0.6642 -0.4380 -0.4034
 1937TIP3    H230007   3.978   0.758   9.623  0.8365 -1.1645  1.9078
 1938TIP3   OH230008   4.721   3.121   9.708 -0.0521  0.1940 -0.0542
 1938TIP3    H130009   4.745   3.188   9.645  0.9586  0.5304  0.6631
 1938TIP3    H230010   4.786   3.129   9.778 -0.6174 -0.7506  0.6075
 1939TIP3   OH230011   0.474   2.305   7.347 -0.4501  0.0974  0.0523
 1939TIP3    H130012   0.468   2.225   7.399 -1.2945  0.4829  0.5661
 1939TIP3    H230013   0.384   2.332   7.333 -0.1711  1.0604  0.0395
 1940TIP3   OH230014   2.698   2.485   9.719  0.6378 -0.0738  0.1968
 1940TIP3    H130015   2.739   2.568   9.694  0.0634  0.7879  1.9768
 1940TIP3    H230016   2.631   2.469   9.652  1.7204  0.1164 -0.9677
 1941TIP3   OH230017   4.708   5.191   9.224  0.1344  0.4514  0.3749
 1941TIP3    H130018   4.741   5.182   9.134 -1.9299  0.3348 -0.4302
 1941TIP3    H230019   4.708   5.102   9.258  0.7667  0.4719  0.4359
 1942TIP3   OH230020   0.663   2.239   8.813 -0.0404  0.4064 -0.6190
 1942TIP3    H130021   0.594   2.220   8.877  1.2019 -2.0969  0.1116
 1942TIP3    H230022   0.657   2.333   8.799 -3.7397  0.2907 -0.8007
 1943TIP3   OH230023   6.928   2.061   8.717  0.2468 -0.2733  0.6301
 1943TIP3    H130024   6.935   1.984   8.774 -0.4767 -0.9722 -0.1981
 1943TIP3    H230025   6.864   2.117   8.761 -0.6621 -1.0230  0.2994
 1944TIP3   OH230026   6.269   2.894   9.140 -0.0546 -0.0336  0.5694
 1944TIP3    H130027   6.205   2.830   9.107  0.2970 -0.1633  0.1205
 1944TIP3    H230028   6.352   2.847   9.139 -0.0336 -0.0341  1.6605
 1945TIP3   OH230029   5.321   0.601   9.191  0.0346  0.9291  0.0044
 1945TIP3    H130030   5.239   0.553   9.187 -0.1800  1.1771  1.0542
 1945TIP3    H230031   5.389   0.533   9.186 -0.2636  0.5210  1.2316
 1946TIP3   OH230032   1.206   6.236   7.809 -0.6723  0.4538 -0.1434
 1946TIP3    H130033   1.134   6.181   7.841  0.5925 -1.0934  0.1370
 1946TIP3    H230034   1.232   6.288   7.885  1.7053 -2.5434  1.3013
 1947TIP3   OH230035   6.610   6.631   8.692  0.1702  0.1325 -0.3840
 1947TIP3    H130036   6.635   6.567   8.757  0.0293  0.4135 -0.0520
 1947TIP3    H230037   6.529   6.669   8.724  0.6666  1.0485 -0.1656
 1948TIP3   OH230038   6.817   4.835   7.621  0.2983  0.8121 -0.5110
 1948TIP3    H130039   6.867   4.879   7.689 -0.1458 -1.7562  1.6213
 1948TIP3    H230040   6.880   4.778   7.577  0.0536  0.4926 -0.4574
 1949TIP3   OH230041   6.103   4.883   8.703  0.1754  0.0918 -0.4146
 1949TIP3    H130042   6.101   4.920   8.791  2.0362  0.5251 -0.5134
 1949TIP3    H230043   6.171   4.816   8.706 -0.7925 -0.9633 -1.1459
 1950TIP3   OH230044   5.269   2.988   9.340  0.1165  0.4933  0.0496
 1950TIP3    H130045   5.323   2.928   9.289  0.4492  1.6779 -1.0479
 1950TIP3    H230046   5.181   2.952   9.335  0.4090 -0.2068 -0.0952
 1951TIP3   OH230047   5.790   0.178   8.249  0.1786 -0.8537 -0.1369
 1951TIP3    H130048   5.795   0.214   8.338  0.6907 -1.7137  0.1949
 1951TIP3    H230049   5.827   0.247   8.194  0.4344 -0.5577  0.3939
 1952TIP3   OH230050   2.015   6.503   8.950 -0.1967 -0.0602  0.4903
 1952TIP3    H130051   2.074   6.460   9.012  1.4251 -0.1234 -0.9950
 1952TIP3    H230052   2.046   6.593   8.946  1.2472 -0.5704 -1.8353
 1953TIP3   OH230053   2.748   6.821   7.996 -0.1555  0.0004 -0.1296
 1953TIP3    H130054   2.839   6.821   8.027 -0.4667 -0.2767  0.8318
 1953TIP3    H230055   2.750   6.770   7.915  0.6680  0.6213 -0.5038
 1954TIP3   OH230056   2.373   6.121   9.275  0.6543 -0.1275  0.1018
 1954TIP3    H130057   2.404   6.208   9.250 -0.3044 -0.1738 -1.3400
 1954TIP3    H230058   2.290   6.111   9.229 -1.5645 -0.0299  3.7295
 1955TIP3   OH230059   6.055   5.232   7.421  0.1824 -0.3006 -0.3368
 1955TIP3    H130060   5.964   5.245   7.450  0.0482 -0.3399 -0.7324
 1955TIP3    H230061   6.062   5.283   7.341 -0.0564 -1.7965 -1.3572
 1956TIP3   OH230062   1.623   5.103   9.212 -0.2383  0.1620  0.5372
 1956TIP3    H130063   1.603   5.190   9.246  0.5997  0.9206 -0.8243
 1956TIP3    H230064   1.687   5.118   9.142  0.7782 -1.6528  1.0055
 1957TIP3   OH230065   1.868   0.392   8.247 -0.5480  0.3509  0.4272
 1957TIP3    H130066   1.920   0.378   8.326  1.0506  1.0980 -0.4511
 1957TIP3    H230067   1.855   0.487   8.243 -1.8569  0.1966  0.5247
 1958TIP3   OH230068   1.079   5.357   8.106  0.4269 -0.1459 -0.0959
 1958TIP3    H130069   1.116   5.386   8.189 -0.8001 -0.1805  0.4827
 1958TIP3    H230070   1.148   5.375   8.042  1.3481 -0.0019  0.8954
 1959TIP3   OH230071   0.743   1.308   7.977  0.4358 -0.4948  0.7698
 1959TIP3    H130072   0.755   1.219   8.010  2.9510 -0.3514  0.4342
 1959TIP3    H230073   0.650   1.327   7.993  0.1490 -2.6422  2.1174
 1960TIP3   OH230074   3.228   0.262   7.396 -0.9315  0.2732 -0.6100
 1960TIP3    H130075   3.285   0.336   7.375 -0.8799  0.7347  0.9763
 1960TIP3    H230076   3.288   0.189   7.414 -0.7036  0.9500  1.7903
 1961TIP3   OH230077   0.714   4.204   7.756 -0.5649 -0.3497  0.4427
 1961TIP3    H130078   0.630   4.172   7.723 -0.7480 -1.3751  1.8314
 1961TIP3    H230079   0.733   4.281   7.702 -2.9522  0.6115  0.8297
 1962TIP3   OH230080   5.846   4.227   9.180 -0.3150  0.0545  0.1418
 1962TIP3    H130081   5.851   4.281   9.259 -0.8390 -0.1515  0.3185
 1962TIP3    H230082   5.900   4.150   9.200 -1.2363 -0.4766  0.6940
 1963TIP3   OH230083   2.355   5.062   6.542  0.9688  0.0304  0.4270
 1963TIP3    H130084   2.261   5.075   6.550  0.7862 -0.2463 -0.9234
 1963TIP3    H230085   2.394   5.134   6.591  0.0299  1.3092 -0.6438
 1964TIP3   OH230086   4.121   5.948   7.610 -0.2525  0.1608 -0.4062
 1964TIP3    H130087   4.091   5.924   7.523 -2.3428 -0.9883  0.5614
 1964TIP3    H230088   4.214   5.922   7.612 -0.2396 -0.0036 -2.1726
 1965TIP3   OH230089   4.396   5.663   8.400 -0.1271 -0.1399 -0.0629
 1965TIP3    H130090   4.307   5.644   8.369 -0.5910  0.7690  0.6403
 1965TIP3    H230091   4.383   5.696   8.489  1.0221 -1.1174  0.4907
 1966TIP3   OH230092   4.887   6.902   9.182 -0.2786 -0.4253  0.1908
 1966TIP3    H130093   4.803   6.866   9.210 -0.2673  0.2301  1.1160
 1966TIP3    H230094   4.949   6.829   9.192 -0.7035 -0.8818 -0.4002
 1967TIP3   OH230095   3.888   2.615   8.425 -0.1544  0.4144  0.0575
 1967TIP3    H130096   3.953   2.567   8.477  0.0130 -1.3228 -1.6443
 1967TIP3    H230097   3.818   2.551   8.410 -0.2942  0.9340 -1.6358
 1968TIP3   OH230098   5.463   3.678   8.225 -0.7327 -0.5197 -0.6596
 1968TIP3    H130099   5.544   3.719   8.196 -0.4643 -0.4472  0.1752
 1968TIP3    H230100   5.415   3.748   8.269 -0.5500 -0.9338  0.2179
 1969TIP3   OH230101   0.380   4.243   7.882 -0.1600  0.4309  0.1385
 1969TIP3    H130102   0.407   4.328   7.848 -0.5371  1.0553  1.3380
 1969TIP3    H230103   0.429   4.180   7.829  0.4063  1.3988 -0.5341
 1970TIP3   OH230104   2.093   4.960   9.365  0.0319  0.0758  0.2326
 1970TIP3    H130105   2.001   4.957   9.390  0.0812 -1.6407  0.3129
 1970TIP3    H230106   2.092   4.955   9.269  0.0351  1.0191  0.1687
 1971TIP3   OH230107   3.797   5.669   8.624  0.0285  0.0258 -0.0274
 1971TIP3    H130108   3.776   5.575   8.624  0.6285 -0.1089  0.0320
 1971TIP3    H230109   3.772   5.699   8.711  1.3300 -0.4202  0.5156
 1972TIP3   OH230110   7.104   5.677   6.937 -0.1748 -0.2853 -0.2045
 1972TIP3    H130111   7.138   5.764   6.958 -0.6277  0.2152 -1.4258
 1972TIP3    H230112   7.015   5.676   6.973 -0.3429 -0.0618 -0.6129
 1973TIP3   OH230113   5.756   4.877   9.113 -0.4159 -0.0105  0.0297
 1973TIP3    H130114   5.697   4.883   9.038 -0.0838 -1.6052 -0.4132
 1973TIP3    H230115   5.698   4.876   9.189 -0.9130 -0.5686 -0.3454
 1974TIP3   OH230116   1.892   5.905   8.604 -0.6038  0.7240  0.2850
 1974TIP3    H130117   1.954   5.833   8.590 -0.1251  1.4726 -1.7869
 1974TIP3    H230118   1.811   5.861   8.629 -0.5394 -0.6546 -1.6628
 1975TIP3   OH230119   7.227   0.791   7.008  0.4599 -0.3107 -0.4054
 1975TIP3    H130120   7.197   0.767   6.920 -0.2141  2.0304 -0.8969
 1975TIP3    H230121   7.176   0.735   7.067 -3.9424  2.2817 -1.2830
 1976TIP3   OH230122   2.342   1.299   8.646  0.0795 -0.3474  0.1780
 1976TIP3    H130123   2.420   1.296   8.702 -0.0142 -1.3882  0.2887
 1976TIP3    H230124   2.280   1.241   8.690 -0.4609 -0.1723 -0.3421
 1977TIP3   OH230125   4.638   7.343   6.936  0.1435 -0.0336  0.1617
 1977TIP3    H130126   4.679   7.396   6.868 -0.7456 -0.8922 -1.0873
 1977TIP3    H230127   4.575   7.401   6.978 -0.5954  0.0142 -0.9783
 1978TIP3   OH230128   0.792   1.162   9.259  0.2080  0.3332  0.7931
 1978TIP3    H130129   0.709   1.121   9.281  0.1619  1.3959  2.9240
 1978TIP3    H230130   0.857   1.112   9.307  0.7112  0.0453 -0.1644
 1979TIP3   OH230131   5.477   6.372   9.570  0.0771 -0.2303  0.3000
 1979TIP3    H130132   5.467   6.282   9.541 -0.8565 -0.3708  1.0122
 1979TIP3    H230133   5.557   6.403   9.526 -0.6522 -0.7613 -1.4833
 1980TIP3   OH230134   6.685   4.218   7.098  0.5813 -0.1590 -0.0375
 1980TIP3    H130135   6.754   4.216   7.033  0.3427 -0.7745 -0.2838
 1980TIP3    H230136   6.605   4.200   7.048  0.3925 -0.5912  0.4101
 1981TIP3   OH230137   7.190   4.703   8.014 -0.0757  0.2434 -0.9725
 1981TIP3    H130138   7.194   4.768   7.943  0.3112 -0.3654 -1.5146
 1981TIP3    H230139   7.274   4.658   8.011  1.4525  2.4961  2.1229
 1982TIP3   OH230140   0.698   1.333   6.400  0.2416 -0.2276  0.9558
 1982TIP3    H130141   0.673   1.300   6.487  1.1344  1.0778  1.7374
 1982TIP3    H230142   0.773   1.280   6.376 -0.0125 -0.6003  0.9700
 1983TIP3   OH230143   2.023   3.863   9.623 -0.2646 -0.0330 -0.1431
 1983TIP3    H130144   2.071   3.838   9.544  1.4258  0.5562  0.6597
 1983TIP3    H230145   2.017   3.959   9.618 -0.9466 -0.0602  0.0238
 1984TIP3   OH230146   0.753   3.367   8.325 -0.2965  0.2010 -0.2067
 1984TIP3    H130147   0.817   3.340   8.259 -0.7231 -1.7288  0.0836
 1984TIP3    H230148   0.716   3.284   8.356 -2.5124  1.2244  0.0506
 1985TIP3   OH230149   7.157   2.024   8.555  0.2836 -0.4555  0.0923
 1985TIP3    H130150   7.072   2.028   8.599  1.0215  0.2962  1.4750
 1985TIP3    H230151   7.212   1.971   8.612  0.8741 -0.6196 -0.6049
 1986TIP3   OH230152   3.610   1.452   7.541  0.6153 -0.0860 -0.4949
 1986TIP3    H130153   3.591   1.395   7.615 -1.3964 -0.0776 -0.9621
 1986TIP3    H230154   3.629   1.537   7.580 -0.4844 -0.0701  0.0306
 1987TIP3   OH230155   1.340   0.285   9.245  0.0342 -0.6606  0.1814
 1987TIP3    H130156   1.435   0.281   9.245  0.0942  0.3810 -0.6914
 1987TIP3    H230157   1.312   0.197   9.220  0.7658 -0.8890  0.1474
 1988TIP3   OH230158   7.205   6.374   9.052 -0.0297 -0.3617 -0.0593
 1988TIP3    H130159   7.238   6.289   9.025  1.1058  0.3829 -1.1263
 1988TIP3    H230160   7.110   6.368   9.040  0.0342 -1.4693 -0.0919
 1989TIP3   OH230161   2.491   3.491   9.419 -0.2204 -0.1095 -0.5418
 1989TIP3    H130162   2.574   3.529   9.447 -0.3539 -0.3310  0.1890
 1989TIP3    H230163   2.437   3.490   9.499 -1.2203  0.7938 -1.1835
 1990TIP3   OH230164   0.375   0.951   8.153  0.1032  0.3954 -0.3030
 1990TIP3    H130165   0.445   0.891   8.181  0.3400  0.8393  0.0791
 1990TIP3    H230166   0.385   1.026   8.211  0.0617  0.9743 -1.0402
 1991TIP3   OH230167   4.569   6.677   7.156 -0.6157 -0.2690 -0.1415
 1991TIP3    H130168   4.634   6.623   7.110 -0.7112 -0.7402  0.2629
 1991TIP3    H230169   4.488   6.625   7.153 -1.4482  1.0064 -2.0683
 1992TIP3   OH230170   0.991   5.709   9.366  0.3356  0.1813 -0.3695
 1992TIP3    H130171   1.082   5.734   9.351  0.5713 -0.3769  0.1196
 1992TIP3    H230172   0.941   5.789   9.348  1.0621  0.9952  1.0446
 1993TIP3   OH230173   6.093   1.850   7.374  0.9675 -0.5529  0.1922
 1993TIP3    H130174   6.138   1.932   7.356 -1.2802  0.8694  0.5902
 1993TIP3    H230175   6.074   1.813   7.287 -0.6865  0.9709 -0.1582
 1994TIP3   OH230176   0.922   2.229   8.711 -0.4895 -0.2332 -0.2398
 1994TIP3    H130177   0.835   2.220   8.751 -0.0357 -1.0637  0.6090
 1994TIP3    H230178   0.971   2.284   8.772  0.3450 -1.8769  0.6448
 1995TIP3   OH230179   4.828   2.633   9.436  0.5945 -0.2806  0.2062
 1995TIP3    H130180   4.774   2.700   9.478 -0.0636 -1.2641  0.9981
 1995TIP3    H230181   4.818   2.649   9.343  2.3951  2.2151  0.3392
 1996TIP3   OH230182   3.142   4.732   8.170 -0.5033  1.1181  0.0322
 1996TIP3    H130183   3.082   4.706   8.100  1.4605 -1.1084 -0.9585
 1996TIP3    H230184   3.183   4.651   8.198  0.3711  2.2549  2.3068
 1997TIP3   OH230185   6.079   3.710   8.523 -0.4245  0.1639  0.0900
 1997TIP3    H130186   6.138   3.717   8.598  1.4583 -1.3146 -1.1720
 1997TIP3    H230187   6.127   3.751   8.451 -1.7023  0.4888 -0.6180
 1998TIP3   OH230188   1.236   6.170   8.188  0.2703  0.2889 -0.0305
 1998TIP3    H130189   1.317   6.124   8.164  1.0624  1.5359  0.1192
 1998TIP3    H230190   1.264   6.261   8.201 -1.4938  1.1587 -1.8168
 1999TIP3   OH230191   6.227   2.082   9.224  0.1379 -0.1684 -0.0534
 1999TIP3    H130192   6.270   2.153   9.176 -0.0025 -2.0256 -3.1333
 1999TIP3    H230193   6.166   2.128   9.283 -0.2482  2.3131 -2.1726
 2000TIP3   OH230194   2.656   2.839   7.683  0.3003 -0.3084  0.1902
 2000TIP3    H130195   2.751   2.827   7.689  0.7325  1.9422 -1.1479
 2000TIP3    H230196   2.638   2.843   7.589 -0.6512  2.1022  0.3974
 2001TIP3   OH230197   6.770   1.789   9.040  0.1590  0.3055 -0.2063
 2001TIP3    H130198   6.858   1.819   9.020  0.0019 -0.7813 -3.0032
 2001TIP3    H230199   6.720   1.869   9.055  1.3307  0.9795  0.2556
 2002TIP3   OH230200   3.850   1.940   9.223  0.4387  0.3573  0.2256
 2002TIP3    H130201   3.915   2.010   9.214 -1.1140  1.8255 -0.0113
 2002TIP3    H230202   3.780   1.963   9.162 -0.7032 -0.7351  1.0584
 2003TIP3   OH230203   6.207   3.767   6.967 -0.0039 -0.7981 -0.5895
 2003TIP3    H130204   6.169   3.824   6.900  0.1862  0.1075  0.0541
 2003TIP3    H230205   6.300   3.791   6.969 -0.4273  1.0076  1.7030
 2004TIP3   OH230206   6.732   0.157   8.144 -0.0626  0.1947 -0.0501
 2004TIP3    H130207   6.665   0.098   8.177  0.9827 -0.2832  1.3454
 2004TIP3    H230208   6.772   0.195   8.223 -0.3784  2.4303 -0.8876
 2005TIP3   OH230209   5.213   4.799   8.755 -0.2004 -0.2673  0.3202
 2005TIP3    H130210   5.260   4.878   8.783  0.5504 -1.0894  1.4780
 2005TIP3    H230211   5.167   4.770   8.833 -0.5547 -0.9251 -0.1247
 2006TIP3   OH230212   4.251   4.102   9.519  0.2478 -0.1126 -0.0424
 2006TIP3    H130213   4.193   4.030   9.544  1.1883 -1.0582 -0.5001
 2006TIP3    H230214   4.223   4.125   9.430 -0.7210  0.8083  0.4729
 2007TIP3   OH230215   0.506   1.462   7.094 -0.2870 -0.0922  0.2956
 2007TIP3    H130216   0.469   1.548   7.075 -1.0772 -0.6905 -1.1235
 2007TIP3    H230217   0.441   1.401   7.059  0.5828 -1.2500  0.6405
 2008TIP3   OH230218   2.019   3.551   6.542 -0.5866  0.0068 -0.3536
 2008TIP3    H130219   2.031   3.602   6.623  0.9860 -0.9092  0.0365
 2008TIP3    H230220   1.944   3.592   6.499  0.1798  2.2443  0.2583
 2009TIP3   OH230221   3.313   0.263   9.259 -0.1070 -0.4941  0.2430
 2009TIP3    H130222   3.293   0.206   9.185  2.4414 -0.9917 -0.1619
 2009TIP3    H230223   3.300   0.352   9.227 -0.9522 -0.7547 -0.1537
 2010TIP3   OH230224   6.996   7.547   8.291  0.4610  0.2256  0.5071
 2010TIP3    H130225   6.904   7.534   8.313 -0.7111  1.6251 -2.8671
 2010TIP3    H230226   7.020   7.629   8.335 -1.1792  1.9137 -1.5438
 2011TIP3   OH230227   5.222   7.256   9.202 -0.3646  0.3478 -0.1435
 2011TIP3    H130228   5.175   7.298   9.130 -2.8235  0.0065  1.1524
 2011TIP3    H230229   5.229   7.164   9.176 -1.3946  0.1927  0.0764
 2012TIP3   OH230230   4.084   3.910   9.617 -0.4327 -0.4299  0.3088
 2012TIP3    H130231   4.063   3.842   9.553 -2.7147  0.5149 -0.0561
 2012TIP3    H230232   4.035   3.885   9.696  0.6598 -0.4635  0.9989
 2013TIP3   OH230233   7.020   0.666   7.927  0.5946  0.0168 -0.0082
 2013TIP3    H130234   6.953   0.598   7.918  2.3857 -1.7141 -1.1885
 2013TIP3    H230235   7.025   0.682   8.021 -0.2896 -1.0380  0.2437
 2014TIP3   OH230236   4.074   3.577   8.538  0.3906 -0.8925  0.4743
 2014TIP3    H130237   4.134   3.650   8.520 -0.3357 -0.0497  1.3534
 2014TIP3    H230238   4.130   3.509   8.576  0.8361 -0.2123  1.0662
 2015TIP3   OH230239   2.610   3.686   8.040 -0.1776  0.4285 -0.8261
 2015TIP3    H130240   2.580   3.629   7.969  1.1599  0.6237 -1.5866
 2015TIP3    H230241   2.694   3.719   8.010 -0.5446  2.1980 -0.0619
 2016TIP3   OH230242   4.688   6.535   6.956 -0.0626 -0.2131 -0.4560
 2016TIP3    H130243   4.627   6.468   6.924  1.2541 -1.1977 -1.0244
 2016TIP3    H230244   4.738   6.560   6.879  0.4217  0.3901  0.0446
 2017TIP3   OH230245   1.743   2.239   8.896 -0.3710  0.1661  0.3536
 2017TIP3    H130246   1.738   2.153   8.854 -0.6475  1.3577 -2.2497
 2017TIP3    H230247   1.837   2.256   8.905 -0.2527  0.6240 -1.4938
 2018TIP3   OH230248   3.927   2.826   8.817 -0.1157 -0.2889  0.4168
 2018TIP3    H130249   3.953   2.734   8.824  0.5248 -0.1878 -0.5045
 2018TIP3    H230250   3.924   2.844   8.723 -1.4751  0.2966  0.5501
 2019TIP3   OH230251   1.056   2.341   7.039 -0.2683 -0.5302 -0.5632
 2019TIP3    H130252   1.146   2.365   7.062 -0.2520 -0.9365 -0.2019
 2019TIP3    H230253   1.062   2.250   7.010 -0.5673 -0.5565 -0.5373
 2020TIP3   OH230254   0.328   4.606   8.867 -0.3549 -0.6370  0.0560
 2020TIP3    H130255   0.312   4.572   8.779 -0.6264 -1.0174  0.2558
 2020TIP3    H230256   0.397   4.551   8.902 -0.9701 -1.1493  0.4736
 2021TIP3   OH230257   2.260   5.397   6.565 -0.3718 -0.7180  0.1651
 2021TIP3    H130258   2.341   5.358   6.533  0.0358  0.8035 -0.7115
 2021TIP3    H230259   2.195   5.377   6.498 -0.6831 -1.7047  0.7398
 2022TIP3   OH230260   0.517   1.732   8.095  0.0341  0.1765 -0.1314
 2022TIP3    H130261   0.426   1.715   8.119  0.2361 -0.7275  0.0159
 2022TIP3    H230262   0.531   1.682   8.015  1.0345 -1.5416  1.0504
 2023TIP3   OH230263   1.741   6.509   8.879  0.1390 -0.0219  0.7278
 2023TIP3    H130264   1.836   6.519   8.873  0.0340  0.7522  0.2632
 2023TIP3    H230265   1.724   6.502   8.973  0.6266  0.0823  0.8267
 2024TIP3   OH230266   6.995   1.989   9.287  0.2910 -0.3888 -0.4648
 2024TIP3    H130267   6.947   2.071   9.276 -0.9538 -0.7776  1.3565
 2024TIP3    H230268   7.074   2.013   9.335 -0.1618 -0.2306  0.2319
 2025TIP3   OH230269   4.902   3.141   8.578 -0.8090  0.3781 -0.1689
 2025TIP3    H130270   4.853   3.106   8.653  1.0365  0.6728  1.2408
 2025TIP3    H230271   4.986   3.095   8.582 -0.5765  0.6143 -1.9130
 2026TIP3   OH230272   1.706   4.346   9.046 -0.2074  0.2939  0.1660
 2026TIP3    H130273   1.787   4.329   8.997 -0.9232 -1.3153 -0.4951
 2026TIP3    H230274   1.700   4.442   9.048  2.4834  0.5290  1.5471
 2027TIP3   OH230275   4.185   6.319   9.411  0.2631  0.1597  0.1608
 2027TIP3    H130276   4.150   6.328   9.323 -0.1727 -1.6997  0.1007
 2027TIP3    H230277   4.269   6.274   9.400 -0.6169 -1.7456  0.7528
 2028TIP3   OH230278   3.603   4.026   8.174 -0.0784 -0.4430 -0.2225
 2028TIP3    H130279   3.513   3.999   8.157  0.0327  0.1581 -2.0411
 2028TIP3    H230280   3.605   4.047   8.267 -2.4490  1.8204 -0.5708
 2029TIP3   OH230281   5.045   3.335   7.711  0.3721  0.5772  0.3231
 2029TIP3    H130282   5.009   3.350   7.624  0.8894  0.2382  0.0472
 2029TIP3    H230283   4.969   3.338   7.769 -0.2806 -1.2788 -0.3699
 2030TIP3   OH230284   2.257   0.954   7.663  0.3716  0.0325 -0.1178
 2030TIP3    H130285   2.318   0.931   7.733  0.8980  0.7110 -0.3446
 2030TIP3    H230286   2.246   0.873   7.613  1.8401  0.1396 -0.6418
 2031TIP3   OH230287   4.268   3.485   9.594  0.0331  0.0321 -0.2037
 2031TIP3    H130288   4.355   3.452   9.617  0.4702  0.4353 -1.2040
 2031TIP3    H230289   4.211   3.408   9.599  0.5798 -0.3788 -0.1954
 2032TIP3   OH230290   4.584   1.158  10.005 -0.1703  0.0569 -0.3245
 2032TIP3    H130291   4.590   1.161  10.101 -2.7274 -1.0559 -0.0413
 2032TIP3    H230292   4.551   1.244   9.980 -0.1998  0.1000 -0.1367
 2033TIP3   OH230293   1.183   5.438   7.559  0.2581 -0.0445  0.5091
 2033TIP3    H130294   1.274   5.442   7.587  0.1846 -1.6350  1.1320
 2033TIP3    H230295   1.181   5.366   7.496 -0.7184 -0.7207  1.2701
 2034TIP3   OH230296   4.292   6.419   8.742 -0.0753  0.1122 -0.2769
 2034TIP3    H130297   4.375   6.454   8.775 -0.4570 -0.0205  0.8805
 2034TIP3    H230298   4.312   6.329   8.716  0.1557  0.0931 -0.0406
 2035TIP3   OH230299   2.918   3.051   7.921  0.1350  0.0819 -0.2741
 2035TIP3    H130300   2.961   3.098   7.850  1.2112  0.4749  0.6033
 2035TIP3    H230301   2.825   3.073   7.912  0.5438  2.0503 -0.1539
 2036TIP3   OH230302   3.571   6.883   6.894  0.2374  0.2947  0.4677
 2036TIP3    H130303   3.605   6.954   6.839  1.4107  1.3368  2.4078
 2036TIP3    H230304   3.634   6.812   6.885  1.4112  1.1204  1.7449
 2037TIP3   OH230305   0.171   4.331   8.485  0.2056  0.9029  0.6758
 2037TIP3    H130306   0.079   4.329   8.512  0.1993  1.3281  0.6877
 2037TIP3    H230307   0.198   4.239   8.487  0.0577  0.8709  1.6095
 2038TIP3   OH230308   1.263   1.218   9.107  0.0612  0.3797 -0.4690
 2038TIP3    H130309   1.239   1.181   9.022  1.0836 -0.4813 -0.3895
 2038TIP3    H230310   1.248   1.148   9.170 -4.7686  2.1414  0.8352
 2039TIP3   OH230311   3.254   6.413   8.345  0.0359 -0.3679 -0.0217
 2039TIP3    H130312   3.242   6.374   8.258 -1.1488  1.4208 -0.7132
 2039TIP3    H230313   3.165   6.430   8.376  0.4624  2.9220 -0.3366
 2040TIP3   OH230314   4.000   6.827   9.295 -0.6594 -0.2449  0.1622
 2040TIP3    H130315   3.980   6.795   9.207 -0.2628  0.3484 -0.1526
 2040TIP3    H230316   4.090   6.800   9.311  0.0998  1.6771 -0.5873
 2041TIP3   OH230317   3.116   2.498   9.031 -0.4638 -0.1142 -0.6146
 2041TIP3    H130318   3.154   2.557   8.966 -1.7331  0.7965 -0.5644
 2041TIP3    H230319   3.182   2.494   9.101 -0.1042  0.7911 -0.8844
 2042TIP3   OH230320   2.676   1.414   7.872 -0.1250  0.0194 -0.3360
 2042TIP3    H130321   2.627   1.349   7.922  0.7138  0.1205  0.6432
 2042TIP3    H230322   2.729   1.460   7.937  1.4153 -0.2112 -1.3610
 2043TIP3   OH230323   4.388   2.593   8.157 -0.4913 -0.0329  1.2831
 2043TIP3    H130324   4.345   2.579   8.072  0.0293 -0.4579  1.0853
 2043TIP3    H230325   4.427   2.508   8.178  0.3459  0.3814  1.4092
 2044TIP3   OH230326   5.230   2.204   8.795  0.1633  0.0720 -0.5623
 2044TIP3    H130327   5.228   2.259   8.874 -1.2251 -0.1760 -0.3924
 2044TIP3    H230328   5.234   2.114   8.828  1.3991  0.0246 -0.8189
 2045TIP3   OH230329   5.882   0.364   9.033  0.4670 -0.1703 -0.6732
 2045TIP3    H130330   5.903   0.276   9.003  2.1484  0.2229 -0.7488
 2045TIP3    H230331   5.934   0.422   8.977  1.1000  0.7431  0.7695
 2046TIP3   OH230332   6.594   1.947   6.776  0.2991  0.0139 -0.3084
 2046TIP3    H130333   6.538   1.870   6.788  0.1638  0.4078  1.9853
 2046TIP3    H230334   6.535   2.015   6.742 -0.6849  0.4050  2.0213
 2047TIP3   OH230335   5.214   7.273   8.257 -0.3812  0.4776 -0.0656
 2047TIP3    H130336   5.211   7.332   8.333  3.0518  2.5940 -1.3509
 2047TIP3    H230337   5.130   7.287   8.213  0.1186  4.4559 -0.1811
 2048TIP3   OH230338   5.106   3.919   8.570  0.2666 -0.3746 -0.1434
 2048TIP3    H130339   5.139   3.919   8.660  0.8488  0.1755 -0.3526
 2048TIP3    H230340   5.129   3.832   8.537  1.0914 -0.1766 -0.1223
 2049TIP3   OH230341   2.544   5.869   9.546  0.2623  0.0791 -0.5453
 2049TIP3    H130342   2.615   5.808   9.563 -0.3881 -0.5640 -0.0574
 2049TIP3    H230343   2.470   5.833   9.594 -0.2919  0.9411 -0.7333
 2050TIP3   OH230344   2.976   2.208   8.491 -0.5896 -0.1240 -0.1137
 2050TIP3    H130345   2.928   2.226   8.572 -2.2067  0.3211 -1.1240
 2050TIP3    H230346   2.918   2.149   8.442  0.3892 -0.4338 -0.9181
 2051TIP3   OH230347   2.295   7.013   9.467 -0.2627  0.3473  0.4467
 2051TIP3    H130348   2.358   7.065   9.517  0.9814  0.2303 -0.9196
 2051TIP3    H230349   2.348   6.942   9.430 -1.3540 -0.1816 -0.1365
 2052TIP3   OH230350   6.992   0.969   9.166  0.2492 -0.0645  0.0911
 2052TIP3    H130351   6.923   0.980   9.231 -0.0028  0.0568 -0.1950
 2052TIP3    H230352   7.073   0.990   9.213  0.0309  0.4201  0.2557
 2053TIP3   OH230353   1.909   4.177   8.950 -0.3063  0.1674 -0.2991
 2053TIP3    H130354   1.946   4.219   8.872  0.1737 -0.2129 -0.2813
 2053TIP3    H230355   1.872   4.095   8.918  0.4918 -0.3106 -0.0268
 2054TIP3   OH230356   5.486   6.154   7.863 -0.0148 -0.4738 -0.5886
 2054TIP3    H130357   5.559   6.122   7.809  0.6124  0.3376 -0.2376
 2054TIP3    H230358   5.490   6.100   7.942  0.1392 -0.5083 -0.6178
 2055TIP3   OH230359   4.136   5.208   7.577 -0.4006  0.7124 -0.2992
 2055TIP3    H130360   4.127   5.303   7.581 -2.0283  0.5725 -0.1487
 2055TIP3    H230361   4.046   5.175   7.573  0.1446 -0.7356 -2.7515
 2056TIP3   OH230362   6.743   2.377   7.489 -0.0077  0.1253 -0.1304
 2056TIP3    H130363   6.706   2.314   7.552  0.8283 -2.9391 -2.4303
 2056TIP3    H230364   6.675   2.442   7.477 -1.3278 -0.8090  1.7854
 2057TIP3   OH230365   4.823   1.605   9.324  0.5004  0.0174  0.0363
 2057TIP3    H130366   4.829   1.577   9.415 -1.7279 -2.7674 -0.5036
 2057TIP3    H230367   4.780   1.691   9.327  1.4470  0.4535  1.6176
 2058TIP3   OH230368   2.200   5.681   7.279 -0.5051 -0.3164  0.1301
 2058TIP3    H130369   2.113   5.675   7.316  0.1466 -0.1704  1.7541
 2058TIP3    H230370   2.255   5.627   7.336  0.4700 -0.4768 -0.9052
 2059TIP3   OH230371   3.109   4.196   9.352  0.2349 -0.6617  0.1730
 2059TIP3    H130372   3.091   4.166   9.263  1.1083 -1.1240  0.1408
 2059TIP3    H230373   3.090   4.121   9.408  0.3903 -0.6057  0.3036
 2060TIP3   OH230374   0.659   6.619   7.479 -0.3020 -0.2997  0.5632
 2060TIP3    H130375   0.618   6.641   7.396  1.6229  0.6503 -0.2011
 2060TIP3    H230376   0.609   6.667   7.545 -0.4629  0.7400 -0.3074
 2061TIP3   OH230377   0.778   5.947   9.283 -0.0105  0.6157  0.0331
 2061TIP3    H130378   0.713   5.984   9.343  1.7124  3.5608  0.2716
 2061TIP3    H230379   0.731   5.934   9.201 -1.7093 -0.7585  1.1576
 2062TIP3   OH230380   3.763   7.084   8.202 -0.1448  0.6887  0.0638
 2062TIP3    H130381   3.827   7.149   8.175  0.7224  0.2286  0.9498
 2062TIP3    H230382   3.750   7.099   8.295  0.5710 -0.7936  0.4344
 2063TIP3   OH230383   0.017   4.499   7.557 -0.0463 -0.2550  0.2359
 2063TIP3    H130384   0.090   4.501   7.495  0.0915  1.7382  0.3809
 2063TIP3    H230385   0.058   4.515   7.642 -0.6741  1.7896  0.2163
 2064TIP3   OH230386   5.236   1.676   8.396  0.1644 -0.0924  0.0845
 2064TIP3    H130387   5.188   1.670   8.314  0.6877 -1.2559 -0.1561
 2064TIP3    H230388   5.261   1.768   8.402  0.7514 -0.1230 -1.4333
 2065TIP3   OH230389   3.497   6.098   8.774 -0.4227 -0.4699 -0.2568
 2065TIP3    H130390   3.482   6.006   8.752 -1.3008 -0.2284 -0.7275
 2065TIP3    H230391   3.499   6.143   8.689  1.4480 -0.2393 -0.1190
 2066TIP3   OH230392   0.520   1.838   9.386 -0.0422 -0.0107 -0.1434
 2066TIP3    H130393   0.611   1.830   9.358 -0.0378  0.3649 -0.2463
 2066TIP3    H230394   0.511   1.930   9.414  0.0264 -0.4378  1.3446
 2067TIP3   OH230395   7.499   4.632   8.013 -0.4640  0.1621 -0.4985
 2067TIP3    H130396   7.516   4.701   8.077 -1.1576  0.0448 -0.1930
 2067TIP3    H230397   7.524   4.551   8.057  0.9374  0.2520 -1.0689
 2068TIP3   OH230398   1.295   2.145   9.451 -0.0219 -0.7963  0.4781
 2068TIP3    H130399   1.253   2.060   9.434  0.0312 -0.5432 -1.0231
 2068TIP3    H230400   1.387   2.122   9.467  0.1400 -0.9825 -0.6318
 2069TIP3   OH230401   0.236   5.015   8.427  0.0374 -0.4586 -0.4689
 2069TIP3    H130402   0.149   4.989   8.395  0.2008  0.1143 -1.4354
 2069TIP3    H230403   0.296   4.957   8.381  0.2617  0.2112 -1.0408
 2070TIP3   OH230404   0.343   3.949   8.162 -0.1671 -0.2717 -0.1219
 2070TIP3    H130405   0.290   3.883   8.205  2.2730 -2.6841 -0.5222
 2070TIP3    H230406   0.385   3.997   8.233  0.7710 -1.5973  0.2628
 2071TIP3   OH230407   4.758   6.740   8.515 -0.3025 -0.7619  0.6218
 2071TIP3    H130408   4.700   6.674   8.554  0.0960 -0.3731  1.9112
 2071TIP3    H230409   4.743   6.819   8.568  0.7091 -0.3891  0.3639
 2072TIP3   OH230410   1.798   4.162   6.961 -0.0149 -0.5142  0.6714
 2072TIP3    H130411   1.724   4.121   6.916 -0.0941 -1.4701  1.6118
 2072TIP3    H230412   1.789   4.255   6.944 -0.4481 -0.7848 -0.6657
 2073TIP3   OH230413   2.536   7.043   9.084  0.4401  0.0057  0.4369
 2073TIP3    H130414   2.446   7.012   9.097 -0.2482  1.8223  0.3352
 2073TIP3    H230415   2.589   6.964   9.088 -1.0818 -1.0362  1.2413
 2074TIP3   OH230416   1.669   6.256   7.795 -0.2389  0.0408 -0.3371
 2074TIP3    H130417   1.735   6.283   7.731  0.3394 -1.8393 -0.5835
 2074TIP3    H230418   1.704   6.176   7.834 -1.1644  0.4554  1.4536
 2075TIP3   OH230419   4.964   4.653   8.872  0.1101  0.1099 -0.0109
 2075TIP3    H130420   5.043   4.641   8.926 -0.6764 -1.0790  0.9310
 2075TIP3    H230421   4.982   4.602   8.794 -0.4322 -1.7585  1.0189
 2076TIP3   OH230422   6.483   5.364   8.044  0.1360  0.4642  0.4916
 2076TIP3    H130423   6.393   5.390   8.062 -0.3104 -2.7951  4.0262
 2076TIP3    H230424   6.478   5.318   7.960 -1.6890 -0.4708  1.0715
 2077TIP3   OH230425   6.356   1.038   6.995  0.5921 -0.3768  0.0582
 2077TIP3    H130426   6.425   1.098   7.021  0.8738 -0.1771 -1.0681
 2077TIP3    H230427   6.280   1.094   6.980  1.3403  0.0297 -2.7856
 2078TIP3   OH230428   2.495   7.010   7.900 -0.3713 -0.3014  0.4632
 2078TIP3    H130429   2.446   6.940   7.859  0.4600 -0.9362  0.5295
 2078TIP3    H230430   2.570   6.967   7.940  0.7308  0.7388 -0.3958
 2079TIP3   OH230431   6.877   2.089   9.616 -0.2426 -0.0835  0.6667
 2079TIP3    H130432   6.863   2.091   9.521  0.6445  0.4077  0.5351
 2079TIP3    H230433   6.807   2.143   9.652  0.2453  0.9153  0.1645
 2080TIP3   OH230434   4.996   1.288   8.472 -0.0937 -0.0474 -0.2700
 2080TIP3    H130435   5.023   1.202   8.505 -0.3336 -0.0565 -0.0931
 2080TIP3    H230436   4.963   1.271   8.384 -0.8145 -0.2504  0.0342
 2081TIP3   OH230437   3.589   2.565   8.602 -0.6279  0.0096 -0.2594
 2081TIP3    H130438   3.593   2.469   8.611  1.0290  0.0602 -0.1992
 2081TIP3    H230439   3.567   2.579   8.510 -0.9934 -0.4237 -0.2456
 2082TIP3   OH230440   1.676   7.130   7.039 -0.0982  0.2516  0.3804
 2082TIP3    H130441   1.603   7.083   7.079 -1.9116  2.0744 -0.6197
 2082TIP3    H230442   1.689   7.086   6.954 -0.3590  0.2203  0.3560
 2083TIP3   OH230443   2.473   4.829   6.575  0.6643 -0.2276 -0.1605
 2083TIP3    H130444   2.459   4.919   6.546  0.6829  0.8580  2.9000
 2083TIP3    H230445   2.388   4.802   6.610  1.4953 -0.0529  2.1541
 2084TIP3   OH230446   4.773   0.850   7.958 -0.0176 -0.1298 -0.2890
 2084TIP3    H130447   4.785   0.758   7.981 -2.4882 -1.7480 -4.3011
 2084TIP3    H230448   4.768   0.895   8.042  1.6842 -3.5118  1.8748
 2085TIP3   OH230449   1.081   1.930   7.877 -0.1787 -0.1870 -0.1810
 2085TIP3    H130450   1.006   1.946   7.820 -1.6928  0.2670  1.8088
 2085TIP3    H230451   1.147   1.993   7.849 -0.4414 -0.6807 -2.0532
 2086TIP3   OH230452   1.628   0.900   8.452 -0.3769  0.2464 -0.3759
 2086TIP3    H130453   1.551   0.957   8.462 -0.6030 -0.1782  0.3499
 2086TIP3    H230454   1.592   0.814   8.430 -0.0214  0.4388 -1.8614
 2087TIP3   OH230455   1.327   2.432   7.107 -0.4156  0.3351 -0.2220
 2087TIP3    H130456   1.359   2.342   7.105 -2.8309 -0.5820 -0.0368
 2087TIP3    H230457   1.393   2.481   7.057  0.9908 -1.4848 -0.2766
 2088TIP3   OH230458   4.951   3.625   7.707  0.8254  0.3325  0.0422
 2088TIP3    H130459   4.898   3.613   7.785  2.1159  0.1219  0.9081
 2088TIP3    H230460   4.887   3.625   7.635 -0.3877  0.6648  1.0853
 2089TIP3   OH230461   6.306   7.480   8.088 -0.1157 -0.1901  0.4111
 2089TIP3    H130462   6.229   7.537   8.085  2.9846  4.4893 -1.2066
 2089TIP3    H230463   6.325   7.461   7.996  2.3077  1.5337  0.4613
 2090TIP3   OH230464   3.988   1.423   8.771 -0.0253 -0.0095 -0.6714
 2090TIP3    H130465   4.033   1.404   8.853 -1.6880  0.3261  0.3661
 2090TIP3    H230466   3.956   1.512   8.781 -1.0388 -0.2851 -1.3088
 2091TIP3   OH230467   5.278   0.783   9.422  0.5876  0.4306  0.3529
 2091TIP3    H130468   5.190   0.746   9.411  0.5329 -0.3027  2.6762
 2091TIP3    H230469   5.281   0.856   9.361 -0.2795 -1.7151 -2.4969
 2092TIP3   OH230470   4.052   2.097   8.473  0.2969  0.3080  0.2760
 2092TIP3    H130471   4.007   2.103   8.557 -0.3602  1.3945 -0.1366
 2092TIP3    H230472   4.079   2.005   8.467 -3.1071 -0.7984 -0.0940
 2093TIP3   OH230473   0.646   4.967   7.328 -0.3331 -0.5304  0.7914
 2093TIP3    H130474   0.551   4.970   7.339 -0.6430  0.8205 -1.5956
 2093TIP3    H230475   0.675   5.055   7.351  0.6324 -1.3808  3.1206
 2094TIP3   OH230476   6.339   2.412   7.322  0.0030 -0.6039 -0.0228
 2094TIP3    H130477   6.317   2.445   7.235 -0.5187  0.5228  0.5165
 2094TIP3    H230478   6.402   2.342   7.306 -0.0430 -0.3739 -1.3012
 2095TIP3   OH230479   7.333   3.179   7.593 -0.6168  0.1489  0.4808
 2095TIP3    H130480   7.276   3.104   7.611  0.2991 -0.4089  1.1198
 2095TIP3    H230481   7.360   3.210   7.680  2.0183 -1.1428  0.1963
 2096TIP3   OH230482   1.177   4.858   7.410 -0.2049 -0.3507  0.4939
 2096TIP3    H130483   1.127   4.930   7.448 -0.0541 -0.2107  0.4301
 2096TIP3    H230484   1.259   4.898   7.381 -0.1982 -0.5108  0.2845
 2097TIP3   OH230485   1.509   1.278   7.794 -0.4115  0.0011 -0.5192
 2097TIP3    H130486   1.532   1.369   7.813 -2.8775  0.6523 -0.4296
 2097TIP3    H230487   1.554   1.228   7.862  2.3311  0.9047 -1.5058
 2098TIP3   OH230488   5.526   5.319   7.378 -0.5474 -0.3012 -0.2769
 2098TIP3    H130489   5.480   5.315   7.461  0.7013  1.0908  0.5428
 2098TIP3    H230490   5.496   5.400   7.337  1.6407  1.0721  0.6493
 2099TIP3   OH230491   6.884   4.233   8.527 -0.6185  0.2513  0.1937
 2099TIP3    H130492   6.887   4.313   8.476 -1.9532  0.6430  0.6868
 2099TIP3    H230493   6.943   4.250   8.601 -0.2063  0.4289 -0.1717
 2100TIP3   OH230494   4.505   7.128   7.638 -0.1123 -0.2889 -0.3036
 2100TIP3    H130495   4.493   7.036   7.617  2.1266 -1.0354  1.3421
 2100TIP3    H230496   4.433   7.173   7.593 -1.6781 -2.8905 -0.5491
 2101TIP3   OH230497   5.391   1.673   6.655 -0.1806 -0.0681 -0.0168
 2101TIP3    H130498   5.410   1.753   6.606 -1.0660 -0.8487 -1.6821
 2101TIP3    H230499   5.303   1.686   6.690  0.5118  0.5648  1.6354
 2102TIP3   OH230500   7.364   6.222   8.359  0.0531  0.3289 -0.1245
 2102TIP3    H130501   7.359   6.282   8.433 -0.7155 -0.3293  0.3832
 2102TIP3    H230502   7.320   6.269   8.288  0.2663  0.7290  0.0040
 2103TIP3   OH230503   1.316   2.386   9.305  0.0321 -0.0797  0.8668
 2103TIP3    H130504   1.289   2.303   9.343 -1.1143 -1.5423 -2.7550
 2103TIP3    H230505   1.397   2.366   9.257 -1.7754 -0.0788 -2.5247
 2104TIP3   OH230506   0.324   3.151   8.052  0.3786  0.7518  0.0147
 2104TIP3    H130507   0.287   3.209   7.985 -0.1441 -1.6416 -1.9313
 2104TIP3    H230508   0.409   3.125   8.016  0.6846  0.4602  0.9334
 2105TIP3   OH230509   2.026   6.965   9.142 -0.2657 -0.0838 -0.1585
 2105TIP3    H130510   2.008   7.027   9.213 -1.8786 -1.0002  0.2886
 2105TIP3    H230511   2.070   7.017   9.075  2.3295  0.5944  1.8796
 2106TIP3   OH230512   3.909   5.370   8.995  0.5282  0.3284  0.4617
 2106TIP3    H130513   3.822   5.375   9.035  0.7362  1.7739  0.7937
 2106TIP3    H230514   3.933   5.461   8.979  0.8074 -0.1429 -2.2032
 2107TIP3   OH230515   5.644   7.262   8.279 -0.0750  0.2756  0.4796
 2107TIP3    H130516   5.646   7.187   8.338 -1.0154  0.0471  0.2371
 2107TIP3    H230517   5.576   7.241   8.215  0.3357  0.8975 -0.1777
 2108TIP3   OH230518   5.912   6.047   8.013 -0.1468  0.4840  0.1432
 2108TIP3    H130519   5.942   6.087   7.931  1.2535  2.0967  1.3544
 2108TIP3    H230520   5.956   5.963   8.017  0.1882  0.6249 -0.5171
 2109TIP3   OH230521   0.243   1.728   8.204 -0.7655  0.1590  0.0909
 2109TIP3    H130522   0.228   1.713   8.111 -0.0854  0.3481 -0.0551
 2109TIP3    H230523   0.228   1.822   8.216 -2.1983 -0.0963  0.4465
 2110TIP3   OH230524   7.174   3.430   8.377 -0.5871  1.2262  0.1437
 2110TIP3    H130525   7.126   3.470   8.449  3.3510  3.2130  1.9731
 2110TIP3    H230526   7.210   3.349   8.414  0.0042  1.3417 -0.1701
 2111TIP3   OH230527   4.383   4.129   8.891 -0.2972  0.1458  0.0310
 2111TIP3    H130528   4.288   4.118   8.878 -0.2020 -0.7723  0.0430
 2111TIP3    H230529   4.411   4.046   8.929  0.6662  0.0740 -0.8014
 2112TIP3   OH230530   6.942   5.823   7.549 -0.5397  0.4734 -0.5316
 2112TIP3    H130531   6.932   5.765   7.474 -1.7949 -0.1772  0.1054
 2112TIP3    H230532   6.878   5.791   7.613  0.2993  1.1794  0.7096
 2113TIP3   OH230533   4.415   6.722   8.715  0.2770 -0.2709  0.1531
 2113TIP3    H130534   4.463   6.646   8.747 -0.1932 -0.4881  0.3526
 2113TIP3    H230535   4.418   6.716   8.620  2.3972  0.8148  0.0885
 2114TIP3   OH230536   2.535   5.161   9.267  0.6123 -0.1624  0.1462
 2114TIP3    H130537   2.629   5.160   9.287  1.0013 -1.8568 -1.4757
 2114TIP3    H230538   2.497   5.217   9.334  2.5422 -0.8571  1.9528
 2115TIP3   OH230539   4.998   6.575   8.518 -0.3674  0.2612 -0.2798
 2115TIP3    H130540   4.919   6.627   8.531  0.6502  1.6379  0.6862
 2115TIP3    H230541   5.019   6.585   8.425 -1.0378  0.3042 -0.4269
 2116TIP3   OH230542   3.265   6.485   8.737 -0.6145 -0.2379  0.2312
 2116TIP3    H130543   3.197   6.539   8.696 -0.8180 -0.9482 -0.3893
 2116TIP3    H230544   3.297   6.538   8.810 -1.4715  0.3215  0.2130
 2117TIP3   OH230545   3.669   0.709   6.672  0.3702  0.1475  0.2723
 2117TIP3    H130546   3.646   0.802   6.669  0.2716  0.1517  1.0378
 2117TIP3    H230547   3.741   0.704   6.734  0.4379 -0.2776  0.1620
 2118TIP3   OH230548   3.648   5.692   8.856  0.0923  0.6000 -0.1339
 2118TIP3    H130549   3.614   5.603   8.864  2.7270 -0.3874  1.6807
 2118TIP3    H230550   3.599   5.743   8.920  0.6019 -0.3012  1.0022
 2119TIP3   OH230551   2.245   0.352   7.443  0.0330 -0.2334 -0.0427
 2119TIP3    H130552   2.249   0.386   7.532 -0.7555  1.9432 -0.7859
 2119TIP3    H230553   2.308   0.404   7.394  0.9411 -1.8475 -0.6866
 2120TIP3   OH230554   2.910   3.449   6.928  0.5084  0.1923 -0.4590
 2120TIP3    H130555   2.859   3.368   6.924 -1.9568  1.6772 -1.1694
 2120TIP3    H230556   2.951   3.447   7.015 -1.3731 -0.7636  0.4706
 2121TIP3   OH230557   2.654   6.607   8.999 -0.1856  0.4085  0.5892
 2121TIP3    H130558   2.664   6.538   8.934 -0.0808  0.4880  0.5220
 2121TIP3    H230559   2.559   6.619   9.006 -0.1705  1.0314 -0.2022
 2122TIP3   OH230560   3.443   1.408   9.143  0.6880  0.5000 -0.1091
 2122TIP3    H130561   3.520   1.433   9.093  0.0623  1.9183 -0.4015
 2122TIP3    H230562   3.457   1.445   9.230  1.6163 -1.6758  0.7530
 2123TIP3   OH230563   1.571   0.723   7.889 -0.1213 -0.0996 -0.2370
 2123TIP3    H130564   1.603   0.755   7.973  0.7658  1.2534 -1.0559
 2123TIP3    H230565   1.627   0.647   7.870  0.3576  0.2168 -0.0893
 2124TIP3   OH230566   1.285   5.756   8.672 -0.0546  0.1759  0.1960
 2124TIP3    H130567   1.286   5.821   8.602 -0.8091 -0.2355 -0.2130
 2124TIP3    H230568   1.238   5.799   8.744 -2.7486 -0.6771 -0.9015
 2125TIP3   OH230569   3.131   3.909   7.312  0.7579  0.2755 -0.1994
 2125TIP3    H130570   3.199   3.843   7.311  0.1598 -0.3719  0.4290
 2125TIP3    H230571   3.090   3.904   7.226  1.7318  0.9374 -0.7216
 2126TIP3   OH230572   4.447   1.603   7.622  0.9325  0.3373  0.4928
 2126TIP3    H130573   4.516   1.583   7.559  0.6235  1.1681 -0.1316
 2126TIP3    H230574   4.426   1.519   7.662  0.5545 -0.3935 -1.1224
 2127TIP3   OH230575   2.210   0.577   8.560 -0.2455  0.4075  0.3507
 2127TIP3    H130576   2.295   0.585   8.603  0.0657  0.6895 -0.3002
 2127TIP3    H230577   2.164   0.658   8.583  2.4819  4.2261 -5.3099
 2128TIP3   OH230578   0.008   0.307   8.542  0.0197 -0.4964 -0.1202
 2128TIP3    H130579   0.051   0.354   8.614 -0.3989  0.1556 -0.2914
 2128TIP3    H230580   0.056   0.334   8.464  0.7567 -1.5437 -0.0524
 2129TIP3   OH230581   4.293   4.995   8.322 -0.0478  0.3270  0.1109
 2129TIP3    H130582   4.235   4.920   8.316 -1.1743  1.2722 -1.8469
 2129TIP3    H230583   4.369   4.963   8.371 -0.6041 -1.9835 -0.4145
 2130TIP3   OH230584   6.441   6.069   9.841  0.2524  0.2911 -0.2971
 2130TIP3    H130585   6.467   6.099   9.927  1.9362  0.7471 -0.9298
 2130TIP3    H230586   6.391   6.143   9.804  1.6415  1.0985 -0.6281
 2131TIP3   OH230587   2.153   1.385   7.868 -0.1434  0.1328  0.0755
 2131TIP3    H130588   2.214   1.438   7.920 -0.2333 -1.0018  1.4308
 2131TIP3    H230589   2.209   1.332   7.812  0.0253  0.4939 -0.0951
 2132TIP3   OH230590   5.295   0.624   6.442 -0.1893  0.0374 -0.1025
 2132TIP3    H130591   5.328   0.709   6.470 -0.5487 -0.4219  1.8530
 2132TIP3    H230592   5.200   0.637   6.435 -0.1780 -0.0401 -0.3972
 2133TIP3   OH230593   1.330   0.668   8.035 -0.4185  0.1177 -0.3916
 2133TIP3    H130594   1.264   0.636   7.973 -0.5713  1.1374 -0.7766
 2133TIP3    H230595   1.408   0.683   7.982  0.1177 -1.0258  0.0546
 2134TIP3   OH230596   6.592   1.126   8.318 -0.2327  0.0419 -0.2588
 2134TIP3    H130597   6.597   1.121   8.223  0.3897  0.1133 -0.2297
 2134TIP3    H230598   6.682   1.118   8.348 -0.4454 -0.1792  0.3373
 2135TIP3   OH230599   1.531   4.888   8.665 -0.3790 -0.2787  0.3334
 2135TIP3    H130600   1.490   4.920   8.585 -1.6359 -1.5499  0.4400
 2135TIP3    H230601   1.511   4.795   8.668  1.4102 -0.6961  1.0972
 2136TIP3   OH230602   6.876   2.862   8.771  0.0647  0.2376 -0.0796
 2136TIP3    H130603   6.830   2.926   8.825 -1.0520 -1.2461  0.8290
 2136TIP3    H230604   6.881   2.784   8.827 -1.2169 -1.4081 -2.1295
 2137TIP3   OH230605   6.394   5.010   7.931  0.1002 -0.4109  0.0806
 2137TIP3    H130606   6.299   5.000   7.933 -0.1691  1.5430 -0.7092
 2137TIP3    H230607   6.409   5.085   7.874  2.0050  0.7949  2.0221
 2138TIP3   OH230608   5.252   6.435   7.647 -0.1467 -0.2343 -0.0902
 2138TIP3    H130609   5.263   6.410   7.738  2.1100 -3.2772 -1.0183
 2138TIP3    H230610   5.300   6.518   7.638  2.4371 -1.5100  0.9301
 2139TIP3   OH230611   7.359   2.214   8.449 -0.2991  0.5005  0.4119
 2139TIP3    H130612   7.420   2.163   8.395  0.2208  2.1849 -0.6945
 2139TIP3    H230613   7.305   2.149   8.493  2.3354 -1.1170  1.5279
 2140TIP3   OH230614   0.962   0.641   7.379 -0.0021  0.7491  0.4347
 2140TIP3    H130615   0.986   0.734   7.379 -0.4631  0.9350  2.8646
 2140TIP3    H230616   0.981   0.612   7.468 -1.3888 -1.0907  0.1823
 2141TIP3   OH230617   2.848   3.987   8.857  0.3334 -0.0656 -0.0215
 2141TIP3    H130618   2.922   3.973   8.916  0.1840 -1.5518 -0.1561
 2141TIP3    H230619   2.812   3.900   8.842 -0.5749  0.4682 -1.0968
 2142TIP3   OH230620   2.856   0.615   8.105 -0.2298  0.2002  0.2247
 2142TIP3    H130621   2.761   0.627   8.105 -0.3757 -0.8042  0.5782
 2142TIP3    H230622   2.891   0.697   8.072 -1.2562  0.3313 -0.5716
 2143TIP3   OH230623   0.685   4.693   8.737 -0.4848 -0.1861  0.5215
 2143TIP3    H130624   0.726   4.715   8.654  1.0675  0.2144  1.3565
 2143TIP3    H230625   0.615   4.758   8.746  0.6628  1.1155  0.4714
 2144TIP3   OH230626   7.526   0.856   9.191 -0.4515  0.0412  0.7909
 2144TIP3    H130627   7.507   0.775   9.142  0.4079  0.6978 -0.7114
 2144TIP3    H230628   7.620   0.868   9.180 -0.6621  1.5787  0.4378
 2145TIP3   OH230629   1.325   0.418   7.218 -0.0266  0.1809 -0.2088
 2145TIP3    H130630   1.355   0.370   7.141 -0.0352  0.3086 -0.2922
 2145TIP3    H230631   1.310   0.507   7.186 -0.8320  0.0366 -0.2564
 2146TIP3   OH230632   5.441   1.785   9.063 -0.1040 -0.3061 -0.1429
 2146TIP3    H130633   5.489   1.857   9.021 -0.1689 -0.0484  0.2233
 2146TIP3    H230634   5.429   1.814   9.153 -0.4573 -0.6181 -0.0909
 2147TIP3   OH230635   0.478   4.088   8.345  0.1980 -0.1504  0.0370
 2147TIP3    H130636   0.570   4.080   8.371 -0.0145  0.7019  1.1264
 2147TIP3    H230637   0.431   4.101   8.427 -0.4902  2.8812 -0.7173
 2148TIP3   OH230638   2.936   5.637   8.780  0.0782 -0.7977  0.0552
 2148TIP3    H130639   2.981   5.699   8.837  0.7677 -0.9609 -0.2975
 2148TIP3    H230640   2.845   5.664   8.782  0.1095 -0.7360  1.1488
 2149TIP3   OH230641   1.453   5.953   7.350  0.0143 -0.2411 -0.5938
 2149TIP3    H130642   1.505   5.933   7.428  1.0852  0.0407 -1.2047
 2149TIP3    H230643   1.379   6.004   7.382  1.1043  0.9527  0.0952
 2150TIP3   OH230644   5.098   5.423   9.125 -0.2756 -0.1606  0.0846
 2150TIP3    H130645   5.062   5.478   9.057  2.5696  0.4756 -1.0538
 2150TIP3    H230646   5.089   5.474   9.205  0.5261  1.1303 -0.6231
 2151TIP3   OH230647   5.470   2.450   7.733  0.6260 -0.1047  0.0549
 2151TIP3    H130648   5.515   2.373   7.700  2.7459  1.1371 -0.1298
 2151TIP3    H230649   5.466   2.510   7.658 -1.0640 -0.0320  0.1648
 2152TIP3   OH230650   2.154   6.939   7.506 -0.3938  0.1170  0.2287
 2152TIP3    H130651   2.131   7.007   7.570 -0.8692  0.1899 -0.0157
 2152TIP3    H230652   2.106   6.861   7.535 -2.7064  0.8004 -1.4359
 2153TIP3   OH230653   1.176   2.328   6.736  0.4700 -0.4165  0.5756
 2153TIP3    H130654   1.127   2.256   6.776 -2.4501  1.6288  1.0604
 2153TIP3    H230655   1.125   2.406   6.758  2.1728  1.5568 -1.8972
 2154TIP3   OH230656   5.165   4.488   9.333 -0.4790 -0.4728  0.0915
 2154TIP3    H130657   5.227   4.530   9.393  1.0483  0.1595 -1.8581
 2154TIP3    H230658   5.171   4.395   9.353 -0.5419 -0.2249  1.3727
 2155TIP3   OH230659   2.329   6.772   9.776  0.2436  0.3490  0.8122
 2155TIP3    H130660   2.377   6.854   9.761 -0.5938  0.7405  0.1558
 2155TIP3    H230661   2.269   6.792   9.848  0.3953  0.1645  0.9870
 2156TIP3   OH230662   5.440   6.177   7.541  0.3138  0.1317  0.1745
 2156TIP3    H130663   5.486   6.170   7.625  0.5579  0.7537  0.1012
 2156TIP3    H230664   5.510   6.181   7.475  0.2180  1.9260  0.1271
 2157TIP3   OH230665   4.059   1.974   9.743 -0.1996  0.9383  0.3926
 2157TIP3    H130666   4.137   1.977   9.687  0.1973  2.1312  0.9864
 2157TIP3    H230667   3.992   2.020   9.692 -0.6111 -0.2884 -0.2187
 2158TIP3   OH230668   6.044   3.210   8.063  0.4160 -0.7660  0.1456
 2158TIP3    H130669   6.113   3.150   8.091  0.4005 -0.7635  0.1892
 2158TIP3    H230670   5.971   3.154   8.038  1.0744 -0.8725 -1.6990
 2159TIP3   OH230671   4.120   4.970   8.920 -0.5443 -0.5639  0.3822
 2159TIP3    H130672   4.124   4.955   8.826  0.7643 -0.6582  0.4290
 2159TIP3    H230673   4.094   4.886   8.957 -1.9284 -0.3011  0.0722
 2160TIP3   OH230674   0.206   6.284   8.602 -0.0003  0.2318 -0.3489
 2160TIP3    H130675   0.292   6.241   8.605  0.3092  0.8815  1.0742
 2160TIP3    H230676   0.208   6.335   8.522  0.6890 -0.2715 -0.6676
 2161TIP3   OH230677   3.387   0.365   6.840  0.3770 -0.2779  0.9223
 2161TIP3    H130678   3.379   0.308   6.763  1.3674  1.1791 -0.3044
 2161TIP3    H230679   3.321   0.433   6.826  2.9471  2.0936 -0.6022
 2162TIP3   OH230680   1.242   5.510   8.602 -0.9408 -0.1552  0.0851
 2162TIP3    H130681   1.208   5.462   8.678  0.8984 -1.6490  0.0579
 2162TIP3    H230682   1.277   5.591   8.638 -1.0672 -0.3626  0.6818
 2163TIP3   OH230683   1.761   5.157   8.988 -0.2281  0.6147 -0.2230
 2163TIP3    H130684   1.781   5.065   8.970  0.4599  0.7350 -0.1182
 2163TIP3    H230685   1.693   5.180   8.925  0.2009  0.2658 -0.8251
 2164TIP3   OH230686   1.003   1.425   9.011  0.1662  0.1329 -0.2590
 2164TIP3    H130687   1.035   1.434   8.921  3.2048 -2.2017  0.4328
 2164TIP3    H230688   0.968   1.336   9.016  0.7853 -0.0697  1.0226
 2165TIP3   OH230689   1.726   1.068   7.582  0.8596  0.5961  0.8256
 2165TIP3    H130690   1.675   1.086   7.661 -1.5298 -3.7811  0.6403
 2165TIP3    H230691   1.797   1.011   7.612  1.1064  0.5045  0.0814
 2166TIP3   OH230692   6.375   6.336   8.491  0.3302 -0.3252  0.1069
 2166TIP3    H130693   6.315   6.396   8.534  1.2850 -0.3309  1.5165
 2166TIP3    H230694   6.440   6.393   8.449 -0.2235 -0.3358 -0.7876
 2167TIP3   OH230695   6.841   3.514   8.114 -0.7690 -0.2909  0.0324
 2167TIP3    H130696   6.931   3.547   8.118 -0.9229  0.0204  1.6908
 2167TIP3    H230697   6.849   3.420   8.128 -0.7196 -0.2278  0.4271
 2168TIP3   OH230698   1.782   1.323   7.247  0.0699  0.1202 -0.0858
 2168TIP3    H130699   1.770   1.335   7.153  1.1182 -0.9693 -0.3841
 2168TIP3    H230700   1.706   1.271   7.275 -0.0209  0.0805 -0.4047
 2169TIP3   OH230701   6.080   1.129   8.715 -0.1655 -0.8785  0.2301
 2169TIP3    H130702   6.033   1.209   8.739 -1.1265 -1.8644  1.8138
 2169TIP3    H230703   6.021   1.081   8.658 -0.4772 -1.4235  0.9996
 2170TIP3   OH230704   4.568   2.635   9.658 -0.0580 -0.6241 -0.2497
 2170TIP3    H130705   4.616   2.564   9.616  0.7449  0.0991 -0.5739
 2170TIP3    H230706   4.635   2.699   9.681 -0.9048  0.6765 -1.2520
 2171TIP3   OH230707   2.831   2.116   9.048  0.8771  0.4562  0.2562
 2171TIP3    H130708   2.862   2.201   9.017  0.8937 -0.0764 -1.2678
 2171TIP3    H230709   2.900   2.055   9.023  0.1518 -0.2287 -0.1261
 2172TIP3   OH230710   5.371   7.478   8.765  0.1461 -0.1576  0.1827
 2172TIP3    H130711   5.368   7.439   8.852 -1.0042 -1.4959 -0.4205
 2172TIP3    H230712   5.350   7.406   8.705 -0.7895  1.0941 -1.0767
 2173TIP3   OH230713   3.376   2.771   7.944 -0.1964  0.3250 -0.3976
 2173TIP3    H130714   3.283   2.779   7.919 -0.1092  0.0485 -0.8303
 2173TIP3    H230715   3.424   2.798   7.866  0.0927  0.8341 -0.0495
 2174TIP3   OH230716   5.386   3.866   7.955 -0.3017  0.7023 -0.2900
 2174TIP3    H130717   5.451   3.865   8.025 -0.2781  0.5027 -0.3147
 2174TIP3    H230718   5.437   3.865   7.874 -0.2748  2.8450 -0.3382
 2175TIP3   OH230719   0.318   5.319   7.988 -0.2342 -0.6863  0.5150
 2175TIP3    H130720   0.317   5.239   8.040  2.0371 -0.6694  0.6816
 2175TIP3    H230721   0.407   5.324   7.954  0.0957  2.4150  1.5552
 2176TIP3   OH230722   2.401   4.830   8.887 -0.0065 -0.5759 -0.0918
 2176TIP3    H130723   2.414   4.871   8.973  2.4881  0.4655 -0.8895
 2176TIP3    H230724   2.407   4.736   8.904  3.2193 -0.3412  0.5720
 2177TIP3   OH230725   1.229   1.770   8.942  0.2199  0.0512  0.1516
 2177TIP3    H130726   1.289   1.840   8.914  1.2119 -0.7318  0.2466
 2177TIP3    H230727   1.143   1.810   8.939  0.7933  1.3702  0.4844
 2178TIP3   OH230728   2.126   7.247   8.632  0.0780  0.2959 -0.1514
 2178TIP3    H130729   2.150   7.261   8.540 -0.2681 -0.4467 -0.3677
 2178TIP3    H230730   2.160   7.323   8.678  0.0270  0.8030 -0.9386
 2179TIP3   OH230731   7.262   2.886   7.850 -0.4873 -0.1438 -0.1896
 2179TIP3    H130732   7.202   2.948   7.807 -1.9272  1.0316  3.1691
 2179TIP3    H230733   7.211   2.850   7.922  2.3503 -0.2754  1.9143
 2180TIP3   OH230734   5.437   1.042   6.980  0.1275  0.2178 -0.8125
 2180TIP3    H130735   5.378   1.055   6.906  0.2527 -0.0759 -0.9658
 2180TIP3    H230736   5.488   0.964   6.957  0.7819  0.6354 -0.8234
 2181TIP3   OH230737   2.830   5.728   7.063 -0.4717  0.5987  0.7445
 2181TIP3    H130738   2.752   5.758   7.016 -1.5084 -1.8585  0.7510
 2181TIP3    H230739   2.853   5.646   7.021  1.7183  0.9003  1.2418
 2182TIP3   OH230740   3.549   4.073   7.284  0.2630 -0.1242 -0.2815
 2182TIP3    H130741   3.533   4.164   7.262  1.6410  0.3724  0.5842
 2182TIP3    H230742   3.497   4.023   7.222 -1.7236  1.2417  0.1827
 2183TIP3   OH230743   5.487   3.088   9.505  0.1514 -0.2541  0.2836
 2183TIP3    H130744   5.438   3.098   9.586  0.0492 -1.1171  0.3324
 2183TIP3    H230745   5.427   3.043   9.445  0.7983 -1.1251  0.2777
 2184TIP3   OH230746   6.817   4.477   7.052 -0.1658  0.1244  1.0759
 2184TIP3    H130747   6.817   4.570   7.076 -1.3141 -0.1050  2.0976
 2184TIP3    H230748   6.725   4.451   7.056  0.0289 -0.8560 -0.0952
 2185TIP3   OH230749   4.589   0.639   9.679 -0.8166 -0.3604 -0.1507
 2185TIP3    H130750   4.503   0.651   9.720 -0.9654 -0.3796 -0.4574
 2185TIP3    H230751   4.611   0.548   9.696 -0.7146 -0.2708  0.2024
 2186TIP3   OH230752   3.151   1.085   7.555  0.1929  0.3700 -0.3514
 2186TIP3    H130753   3.084   1.019   7.571 -0.3073  0.4343 -2.0210
 2186TIP3    H230754   3.103   1.168   7.551  0.4089  0.4691 -1.1004
 2187TIP3   OH230755   6.414   7.139   7.548 -0.2443  0.0947 -0.0506
 2187TIP3    H130756   6.347   7.131   7.616  0.0371  0.3762  0.2630
 2187TIP3    H230757   6.420   7.051   7.510 -0.8912  0.1020 -0.1806
 2188TIP3   OH230758   2.557   7.180   7.650 -0.5772  0.1067  0.5961
 2188TIP3    H130759   2.530   7.111   7.589 -0.0018  0.4139 -0.0296
 2188TIP3    H230760   2.507   7.164   7.729 -2.7160  0.7414 -0.5481
 2189TIP3   OH230761   2.397   3.794   7.651 -0.2368 -0.7758  0.3736
 2189TIP3    H130762   2.370   3.866   7.708  1.0636 -0.2803  0.3971
 2189TIP3    H230763   2.483   3.768   7.685  0.2636 -0.9161 -0.9517
 2190TIP3   OH230764   6.498   2.762   8.545 -0.0238 -0.9032 -0.2936
 2190TIP3    H130765   6.501   2.765   8.640  1.2952 -0.1535 -0.3323
 2190TIP3    H230766   6.580   2.804   8.517 -0.2035 -1.4617 -1.7467
 2191TIP3   OH230767   6.535   1.074   9.102 -0.2164  0.2406  0.1406
 2191TIP3    H130768   6.578   0.989   9.094  0.6801  0.7757 -1.0845
 2191TIP3    H230769   6.465   1.072   9.037  0.1360  0.6052 -0.2633
 2192TIP3   OH230770   7.249   6.720   8.346  0.2968 -0.1510 -0.5093
 2192TIP3    H130771   7.194   6.648   8.378  0.7808  0.3124  1.4473
 2192TIP3    H230772   7.191   6.796   8.348  1.1111  0.5042  2.3144
 2193TIP3   OH230773   0.619   2.030   7.509 -0.5621  0.0193  0.3799
 2193TIP3    H130774   0.675   2.070   7.441 -0.8229 -0.9173 -0.4136
 2193TIP3    H230775   0.657   1.943   7.523  0.2668  0.6502  2.4053
 2194TIP3   OH230776   0.976   5.023   7.502  0.4898  0.6427 -0.3630
 2194TIP3    H130777   1.032   5.087   7.547  2.3930 -2.1901  1.6200
 2194TIP3    H230778   0.917   4.991   7.570 -0.1493  0.0014 -1.2057
 2195TIP3   OH230779   2.466   4.672   8.607 -0.0492  0.1242  0.1210
 2195TIP3    H130780   2.518   4.592   8.615 -0.6154 -0.4465 -1.4272
 2195TIP3    H230781   2.475   4.716   8.691  1.1599 -1.0315  0.6220
 2196TIP3   OH230782   6.598   1.971   7.033 -0.0007  0.2598  0.2366
 2196TIP3    H130783   6.583   1.878   7.051  2.0386 -0.0563  0.5545
 2196TIP3    H230784   6.607   1.976   6.938  0.7179 -0.0451  0.2759
 2197TIP3   OH230785   3.631   5.752   7.330 -0.2759  0.3479 -0.3199
 2197TIP3    H130786   3.697   5.798   7.382 -0.8940  1.2568 -0.3197
 2197TIP3    H230787   3.599   5.682   7.389 -0.7089  1.1379  0.4114
 2198TIP3   OH230788   5.553   7.386   9.001  0.0095  0.0887 -0.1583
 2198TIP3    H130789   5.502   7.306   9.006 -0.2287  0.1585 -1.1601
 2198TIP3    H230790   5.644   7.356   9.001 -0.0869 -0.2737 -1.4698
 2199TIP3   OH230791   4.332   0.449   8.690  0.1000  0.3582  0.2823
 2199TIP3    H130792   4.395   0.393   8.737  2.5295  2.0098 -0.8066
 2199TIP3    H230793   4.306   0.515   8.754  0.3802  0.3394  0.4193
 2200TIP3   OH230794   0.542   7.465   8.712 -0.1037  0.2244  0.4097
 2200TIP3    H130795   0.459   7.427   8.683 -0.5052  2.0967 -1.0509
 2200TIP3    H230796   0.524   7.559   8.720  2.1604  0.8647 -1.1683
 2201TIP3   OH230797   6.484   3.812   7.004  0.1478 -0.0106  0.4188
 2201TIP3    H130798   6.546   3.827   6.933 -0.9049 -0.4438 -0.6206
 2201TIP3    H230799   6.534   3.764   7.070  0.9728 -0.1564 -0.2959
 2202TIP3   OH230800   3.835   1.306   8.489 -0.5800 -0.5443 -0.5298
 2202TIP3    H130801   3.881   1.231   8.525  0.2801 -0.1329 -0.7284
 2202TIP3    H230802   3.773   1.331   8.557  1.2694  0.4557  0.9053
 2203TIP3   OH230803   0.926   4.690   9.658 -0.0725  0.0346  0.4732
 2203TIP3    H130804   0.959   4.664   9.744 -1.6707  0.9844  1.4278
 2203TIP3    H230805   0.877   4.614   9.627 -0.5681  0.1440  0.9861
 2204TIP3   OH230806   0.584   7.437   8.158 -0.2780  0.0997 -0.3092
 2204TIP3    H130807   0.582   7.414   8.065  0.3777 -0.9284 -0.0901
 2204TIP3    H230808   0.645   7.511   8.163  0.4152 -0.4409 -0.5886
 2205TIP3   OH230809   6.509   6.595   6.895  0.6266 -0.4093 -0.4124
 2205TIP3    H130810   6.552   6.510   6.894  0.8091 -0.3174 -0.4888
 2205TIP3    H230811   6.423   6.579   6.934  0.8188 -0.5519 -0.0445
 2206TIP3   OH230812   0.898   4.063   7.898 -0.3847 -0.5210  0.0620
 2206TIP3    H130813   0.849   4.036   7.975  0.8520  1.4401  1.6308
 2206TIP3    H230814   0.847   4.135   7.861 -0.1631 -0.3803  0.0245
 2207TIP3   OH230815   3.243   4.211   8.150 -0.2846 -0.2981  0.0818
 2207TIP3    H130816   3.325   4.231   8.194  0.1210 -1.8281  0.0722
 2207TIP3    H230817   3.221   4.122   8.179 -0.4670 -1.0133 -2.0612
 2208TIP3   OH230818   4.350   7.489   7.380 -0.0793 -0.0541  0.0087
 2208TIP3    H130819   4.411   7.563   7.392 -2.5468  2.4744 -1.6895
 2208TIP3    H230820   4.383   7.443   7.303  0.8616 -0.0819  0.4101
 2209TIP3   OH230821   5.341   7.036   8.339 -0.8227 -0.5432 -0.3805
 2209TIP3    H130822   5.353   7.128   8.318 -2.5114 -0.9517 -3.9147
 2209TIP3    H230823   5.259   7.031   8.387  1.0242 -0.0176  3.1894
 2210TIP3   OH230824   5.170   4.226   8.523  0.0880 -0.4076  0.3732
 2210TIP3    H130825   5.131   4.142   8.545  0.6454 -0.8251 -0.1953
 2210TIP3    H230826   5.101   4.274   8.477  0.2975 -1.2544 -0.8845
 2211TIP3   OH230827   1.063   0.722   8.096 -0.1092 -0.1102  0.6106
 2211TIP3    H130828   1.051   0.627   8.092 -1.0670  0.0337 -1.0891
 2211TIP3    H230829   1.145   0.734   8.143  0.2807 -1.7931  0.4318
 2212TIP3   OH230830   3.908   2.367   7.619 -0.1651  0.1185 -0.0587
 2212TIP3    H130831   3.842   2.404   7.561  0.4212  1.1860 -0.0763
 2212TIP3    H230832   3.983   2.350   7.563 -0.7283 -2.0836 -0.2513
 2213TIP3   OH230833   1.257   0.029   9.133  0.2967 -0.0944  0.5357
 2213TIP3    H130834   1.297  -0.058   9.127  1.2779  0.3073  1.1678
 2213TIP3    H230835   1.170   0.017   9.094  0.3439 -1.4011  0.7786
 2214TIP3   OH230836   1.324   3.689   8.102 -0.0317 -0.4192  0.2786
 2214TIP3    H130837   1.378   3.700   8.024 -0.4057 -2.1088 -0.2520
 2214TIP3    H230838   1.239   3.726   8.078  0.6388  1.6839  0.9091
 2215TIP3   OH230839   0.258   4.050   8.527 -0.5534 -0.5543 -0.2607
 2215TIP3    H130840   0.220   3.965   8.551  1.1919 -1.2135  0.3415
 2215TIP3    H230841   0.262   4.099   8.609 -0.2790 -0.4330 -0.3438
 2216TIP3   OH230842   5.165   5.494   8.778 -0.5460  0.1892 -0.6108
 2216TIP3    H130843   5.126   5.497   8.865 -1.1434  0.8535 -0.8949
 2216TIP3    H230844   5.137   5.410   8.742  1.0292 -0.8500  0.4251
 2217TIP3   OH230845   2.715   3.836   9.472 -0.0571 -0.3725  0.1922
 2217TIP3    H130846   2.747   3.850   9.562  0.4989 -1.0923  0.1084
 2217TIP3    H230847   2.682   3.922   9.446  0.1672 -0.0479  0.9308
 2218TIP3   OH230848   6.847   0.189   9.290  0.4771  0.1498  0.3366
 2218TIP3    H130849   6.905   0.249   9.338  1.0061  0.1694 -0.3124
 2218TIP3    H230850   6.859   0.105   9.333 -0.1122  0.4537  1.1234
 2219TIP3   OH230851   3.866   6.885   7.071 -0.0119  0.0909  0.0885
 2219TIP3    H130852   3.934   6.832   7.029  1.0458  0.0867  1.7472
 2219TIP3    H230853   3.825   6.827   7.135 -1.9543 -0.0458 -1.1625
 2220TIP3   OH230854   3.910   4.564   8.604  0.0155 -0.1403  0.7714
 2220TIP3    H130855   3.870   4.652   8.603 -1.3852 -0.7510  0.6833
 2220TIP3    H230856   4.004   4.581   8.611 -0.3003  1.3514  2.0113
 2221TIP3   OH230857   5.253   1.374   8.487  0.1603 -0.2877 -0.1054
 2221TIP3    H130858   5.234   1.468   8.489  0.2541 -0.2828  1.5176
 2221TIP3    H230859   5.170   1.334   8.459  0.3189  0.2953 -1.5112
 2222TIP3   OH230860   2.390   3.346   8.372  0.5772  0.1734  0.5663
 2222TIP3    H130861   2.356   3.286   8.306  1.1623 -0.7237  1.0541
 2222TIP3    H230862   2.394   3.431   8.329  1.1508 -0.4405 -0.6184
 2223TIP3   OH230863   1.431   5.455   8.922 -0.0421 -0.4535  0.0430
 2223TIP3    H130864   1.509   5.509   8.933  0.8043 -1.7380  0.5783
 2223TIP3    H230865   1.358   5.511   8.949  0.8465  0.2706  0.9878
 2224TIP3   OH230866   4.121   4.731   8.416  0.2332  0.0148  0.0775
 2224TIP3    H130867   4.093   4.682   8.339 -0.0412 -0.8763  0.7303
 2224TIP3    H230868   4.041   4.770   8.451 -0.1249 -1.8276  1.4500
 2225TIP3   OH230869   7.052   2.132   8.300  0.4570 -0.6934  0.2104
 2225TIP3    H130870   7.135   2.105   8.338  0.0842 -1.7684  0.2975
 2225TIP3    H230871   6.985   2.095   8.358 -0.0931 -0.5998 -0.3450
 2226TIP3   OH230872   2.168   5.770   8.333 -0.0956 -0.7227  0.1494
 2226TIP3    H130873   2.184   5.759   8.239  0.4770 -0.6096  0.2261
 2226TIP3    H230874   2.122   5.853   8.340  0.8631 -0.1636  0.0511
 2227TIP3   OH230875   5.805   1.454   9.110  0.4973 -0.1530  0.1370
 2227TIP3    H130876   5.716   1.482   9.091 -0.5156 -1.1964  2.9365
 2227TIP3    H230877   5.860   1.525   9.076 -1.4584  1.2819 -0.1993
 2228TIP3   OH230878   6.990   1.743   8.423 -0.5494  0.2955 -0.3590
 2228TIP3    H130879   7.036   1.745   8.339  1.0658 -0.1746  0.4747
 2228TIP3    H230880   6.942   1.825   8.426  0.8848  1.1958 -0.9296
 2229TIP3   OH230881   5.147   3.880   8.831  0.3506  0.3923 -0.0836
 2229TIP3    H130882   5.172   3.800   8.879 -3.8163 -0.8748  0.3712
 2229TIP3    H230883   5.079   3.919   8.886  1.0623  3.3790 -1.1888
 2230TIP3   OH230884   4.164   6.205   7.668  0.3346  0.0937  0.0504
 2230TIP3    H130885   4.252   6.207   7.705 -0.3639  0.2059  1.8211
 2230TIP3    H230886   4.148   6.113   7.650  1.0146  0.1373 -0.8261
 2231TIP3   OH230887   6.691   7.500   7.309 -0.4512  0.0977  0.2782
 2231TIP3    H130888   6.696   7.426   7.248  1.0447  0.3594  0.0508
 2231TIP3    H230889   6.606   7.489   7.353 -0.9101 -0.9064 -0.8074
 2232TIP3   OH230890   7.147   1.872   7.783 -0.6007  0.2958 -0.3791
 2232TIP3    H130891   7.105   1.793   7.748 -0.4314 -0.5554  1.2034
 2232TIP3    H230892   7.075   1.934   7.796 -0.8040  0.2459 -1.2318
 2233TIP3   OH230893   1.337   6.810   7.699 -0.6061  0.1540  0.2560
 2233TIP3    H130894   1.337   6.864   7.778  0.3812  0.1342  0.2786
 2233TIP3    H230895   1.387   6.860   7.635  1.0699 -1.0678  0.5379
 2234TIP3   OH230896   0.540   4.974   9.155 -0.5922 -0.2448  0.0712
 2234TIP3    H130897   0.469   4.928   9.111  0.1374 -1.8301  0.4669
 2234TIP3    H230898   0.620   4.933   9.122  0.1163  0.9624  0.2220
 2235TIP3   OH230899   2.072   1.016   9.169 -0.0147  0.1149 -0.0367
 2235TIP3    H130900   2.038   0.950   9.109  1.1420 -1.0765  0.5928
 2235TIP3    H230901   1.999   1.034   9.228 -0.1319 -1.0918  0.2027
 2236TIP3   OH230902   3.524   4.969   9.130  0.5296 -0.7769  0.2214
 2236TIP3    H130903   3.586   4.898   9.147 -0.5268 -2.0293 -0.9786
 2236TIP3    H230904   3.450   4.950   9.188  0.1190 -0.8368 -0.3157
 2237TIP3   OH230905   4.407   1.214   8.296  0.8594  0.6601  0.1907
 2237TIP3    H130906   4.460   1.198   8.374  1.1496 -2.3405 -0.4919
 2237TIP3    H230907   4.317   1.199   8.326  1.0988 -2.6515 -0.3522
 2238TIP3   OH230908   6.609   5.177   8.825  0.0841  0.4265 -0.0422
 2238TIP3    H130909   6.685   5.228   8.797  0.9888 -1.2861 -0.8996
 2238TIP3    H230910   6.568   5.148   8.743 -0.6374  0.1126  0.4146
 2239TIP3   OH230911   2.997   1.112   9.173  0.6028  0.0146  0.1898
 2239TIP3    H130912   2.990   1.152   9.087  0.2487  1.6563  0.9511
 2239TIP3    H230913   3.089   1.125   9.198  0.1928  1.6439  0.9978
 2240TIP3   OH230914   5.731   0.531   8.802  0.3106 -0.3702 -0.2352
 2240TIP3    H130915   5.686   0.614   8.813 -0.1894 -0.2738 -2.5400
 2240TIP3    H230916   5.824   0.552   8.816  0.3465  0.9072 -2.0150
 2241TIP3   OH230917   7.478   4.064   9.068  0.1255  0.2839  0.0132
 2241TIP3    H130918   7.441   4.023   8.990  0.9889 -1.5808  0.5166
 2241TIP3    H230919   7.573   4.056   9.057  0.2691 -0.7197  1.5493
 2242TIP3   OH230920   4.928   3.339   8.805 -0.0072 -0.2447 -0.0753
 2242TIP3    H130921   4.940   3.293   8.722 -0.8112 -1.6003  0.5235
 2242TIP3    H230922   4.960   3.278   8.871  0.3154  0.6845  0.6472
 2243TIP3   OH230923   5.846   0.329   9.567  0.3277 -0.6004 -0.1098
 2243TIP3    H130924   5.797   0.309   9.487 -0.6639 -0.7837  0.5204
 2243TIP3    H230925   5.783   0.313   9.637  1.3227 -0.8819  0.7374
 2244TIP3   OH230926   4.005   1.392   7.449 -0.2674  0.3570 -0.1615
 2244TIP3    H130927   4.070   1.447   7.407 -0.2920  0.8499  0.4309
 2244TIP3    H230928   4.018   1.305   7.411  2.3285 -0.1388  1.6064
 2245TIP3   OH230929   0.762   3.185   7.762 -0.2480  0.6807 -0.4545
 2245TIP3    H130930   0.827   3.255   7.766  0.7072 -0.2338  0.3407
 2245TIP3    H230931   0.784   3.135   7.684  0.0641  0.3080 -0.1267
 2246TIP3   OH230932   2.806   5.303   9.790  0.1530 -0.1342  0.5011
 2246TIP3    H130933   2.827   5.252   9.869  0.7755  0.6588  0.8699
 2246TIP3    H230934   2.876   5.281   9.728 -0.1140 -0.4577  0.3167
 2247TIP3   OH230935   3.560   6.501   7.066 -0.4632 -0.9238 -0.1523
 2247TIP3    H130936   3.523   6.487   7.153 -1.5477  0.6372 -0.3234
 2247TIP3    H230937   3.570   6.412   7.030  1.7762 -1.7369  2.1867
 2248TIP3   OH230938   5.734   4.597   9.229  0.7173 -0.1939 -0.4232
 2248TIP3    H130939   5.828   4.590   9.240  0.6229 -0.7689  0.0198
 2248TIP3    H230940   5.723   4.652   9.151  1.3971  1.3437  0.5247
 2249TIP3   OH230941   5.296   1.448   9.627  0.4330 -0.3343  0.4030
 2249TIP3    H130942   5.236   1.430   9.555 -1.2342 -0.9479  1.8821
 2249TIP3    H230943   5.368   1.386   9.613  0.2898 -0.2324 -0.8884
 2250TIP3   OH230944   2.127   4.522   9.012  0.6906  0.5805 -0.2405
 2250TIP3    H130945   2.119   4.606   8.967  2.2811  0.4361 -0.8516
 2250TIP3    H230946   2.108   4.457   8.945  1.0028  0.4125 -0.1669
 2251TIP3   OH230947   2.694   3.237   8.161  0.0111  0.7284 -0.7881
 2251TIP3    H130948   2.777   3.190   8.157 -0.6437 -0.6264  0.4812
 2251TIP3    H230949   2.703   3.296   8.236 -0.5122 -0.2194  0.0586
 2252TIP3   OH230950   2.374   5.541   7.027 -0.3496  0.2917 -0.4111
 2252TIP3    H130951   2.356   5.632   7.050 -2.4959  0.1497 -1.2985
 2252TIP3    H230952   2.369   5.494   7.109 -0.9178  0.7514 -0.1744
 2253TIP3   OH230953   0.071   5.576   7.378 -0.5424 -0.2900  0.3866
 2253TIP3    H130954   0.152   5.557   7.427 -2.4003 -3.7088  2.5412
 2253TIP3    H230955   0.033   5.652   7.423  0.4120  0.0053  0.7240
 2254TIP3   OH230956   1.146   4.592   7.318  0.5160  0.8376 -0.1777
 2254TIP3    H130957   1.230   4.546   7.327  1.3883  2.1729 -0.9822
 2254TIP3    H230958   1.162   4.679   7.355 -0.4526  1.1783 -0.5242
 2255TIP3   OH230959   1.854   4.182   8.647 -0.3291  0.0260 -0.1119
 2255TIP3    H130960   1.912   4.110   8.624  0.8687  0.5462  1.1128
 2255TIP3    H230961   1.769   4.141   8.665  0.0038 -0.9038 -0.6514
 2256TIP3   OH230962   6.281   7.167   8.006 -0.1055  0.1175 -0.5147
 2256TIP3    H130963   6.335   7.089   8.021  0.1325  0.3748  0.0013
 2256TIP3    H230964   6.345   7.236   7.988 -0.0981  0.9077  2.2065
 2257TIP3   OH230965   1.247   3.494   7.101 -0.2510 -0.3299  0.5871
 2257TIP3    H130966   1.213   3.486   7.012 -1.2070 -0.8182  0.9867
 2257TIP3    H230967   1.289   3.409   7.118 -1.1834 -0.7066  1.0512
 2258TIP3   OH230968   5.688   0.020   8.849  0.1646 -0.2611 -0.1932
 2258TIP3    H130969   5.611  -0.034   8.868  0.0345 -0.0276 -0.0506
 2258TIP3    H230970   5.746   0.007   8.925 -0.1142  0.2393  0.1120
 2259TIP3   OH230971   0.247   1.265   7.847 -0.4105 -0.7157 -0.2414
 2259TIP3    H130972   0.209   1.349   7.821 -1.4480 -1.1395 -0.1460
 2259TIP3    H230973   0.275   1.225   7.764  2.2076  0.6578 -0.1246
 2260TIP3   OH230974   2.850   1.777   9.155  0.5558  0.1767  1.1765
 2260TIP3    H130975   2.925   1.727   9.186  0.7729  0.5559  1.2686
 2260TIP3    H230976   2.867   1.791   9.061  1.3411  1.5366  1.4996
 2261TIP3   OH230977   3.703   1.864   8.494 -0.3694  0.7591  0.0308
 2261TIP3    H130978   3.637   1.803   8.462 -1.4663  1.0558  1.6016
 2261TIP3    H230979   3.784   1.814   8.496 -1.2213 -0.6455  1.1890
 2262TIP3   OH230980   6.561   5.490   8.517  0.3730 -0.1695  0.1863
 2262TIP3    H130981   6.599   5.569   8.479 -1.4017  1.7444  2.1185
 2262TIP3    H230982   6.469   5.513   8.532 -0.3477 -2.8361  0.3068
 2263TIP3   OH230983   2.610   7.061   8.612  0.4094  0.1714  0.1690
 2263TIP3    H130984   2.660   7.119   8.555  0.3064  0.4513  0.3598
 2263TIP3    H230985   2.655   7.067   8.697  0.0717  0.3985  0.3324
 2264TIP3   OH230986   3.322   4.114   7.601 -0.0540 -0.1790  0.2109
 2264TIP3    H130987   3.241   4.065   7.614 -0.6149  0.1704 -1.7383
 2264TIP3    H230988   3.300   4.181   7.537  1.4090  0.8966  0.7746
 2265TIP3   OH230989   0.853   1.601   9.153 -0.2505  0.1724  0.0799
 2265TIP3    H130990   0.897   1.531   9.105 -0.9052  0.0487 -0.3401
 2265TIP3    H230991   0.840   1.565   9.241 -0.9867 -0.4141 -0.2559
 2266TIP3   OH230992   0.536   4.600   9.210 -0.2470  0.2925  1.1310
 2266TIP3    H130993   0.552   4.578   9.118  0.6430  3.7259  0.3388
 2266TIP3    H230994   0.443   4.580   9.224 -0.3350 -0.4938 -0.3962
 2267TIP3   OH230995   1.846   4.805   7.440  0.2034 -0.0844  0.1702
 2267TIP3    H130996   1.906   4.739   7.405  0.4270  0.0789  0.2463
 2267TIP3    H230997   1.836   4.868   7.369 -2.2979 -1.6725 -1.0292
 2268TIP3   OH230998   2.462   0.899   7.834 -0.4937  0.2441  0.2966
 2268TIP3    H130999   2.460   0.918   7.928  1.0224  0.1445  0.3765
 2268TIP3    H231000   2.453   0.804   7.828  1.6777 -0.0385  0.5314
 2269TIP3   OH231001   2.711   1.844   9.389 -0.2669  0.4701 -0.5841
 2269TIP3    H131002   2.727   1.927   9.433 -1.6201  0.1412  0.6172
 2269TIP3    H231003   2.781   1.837   9.323 -0.2392  2.6227 -0.8476
 2270TIP3   OH231004   4.565   0.152   7.966 -0.2935 -0.2184  0.0908
 2270TIP3    H131005   4.586   0.174   8.057  0.0557 -0.2003  0.0095
 2270TIP3    H231006   4.648   0.120   7.930 -0.3084  0.2167 -0.3491
 2271TIP3   OH231007   1.705   1.857   7.707 -0.2105 -0.0208  0.2892
 2271TIP3    H131008   1.721   1.799   7.782  0.4587 -0.1057  0.0898
 2271TIP3    H231009   1.629   1.909   7.733  1.5585  1.8341  2.1877
 2272TIP3   OH231010   3.925   3.842   9.861 -0.4960  0.2944 -0.2473
 2272TIP3    H131011   3.859   3.911   9.861 -1.4400 -0.3425  3.8248
 2272TIP3    H231012   3.887   3.773   9.807 -1.5161  1.2810 -0.8371
 2273TIP3   OH231013   6.349   1.955   7.650  0.4582 -0.1517 -0.4665
 2273TIP3    H131014   6.433   1.945   7.693  0.4777  1.1872 -0.1575
 2273TIP3    H231015   6.334   2.049   7.647 -0.4328 -0.3043 -1.6810
 2274TIP3   OH231016   2.997   1.559   8.491  0.2515 -0.1577 -0.0534
 2274TIP3    H131017   2.986   1.534   8.583  2.7804 -0.7264  0.1549
 2274TIP3    H231018   3.001   1.655   8.493 -1.0647 -0.0860  0.2147
 2275TIP3   OH231019   2.586   4.614   9.562  0.6875 -0.0962 -0.2641
 2275TIP3    H131020   2.603   4.698   9.520  1.3815  0.1025  0.3888
 2275TIP3    H231021   2.510   4.578   9.515 -0.3754  1.4228  0.2186
 2276TIP3   OH231022   1.540   7.233   7.587 -0.4671  0.0237 -0.0986
 2276TIP3    H131023   1.626   7.194   7.567 -1.2456 -1.3492 -0.9199
 2276TIP3    H231024   1.560   7.323   7.614  1.1597  0.0215 -1.1698
 2277TIP3   OH231025   4.364   5.807   7.622  0.4664  0.6674 -0.3811
 2277TIP3    H131026   4.377   5.780   7.713 -1.3328 -0.1144 -0.3215
 2277TIP3    H231027   4.369   5.725   7.572  1.0431  1.0437 -0.9550
 2278TIP3   OH231028   5.558   2.348   8.022 -0.1305  0.0377 -0.6092
 2278TIP3    H131029   5.634   2.310   8.065 -0.4844  0.4981  0.4699
 2278TIP3    H231030   5.593   2.395   7.947  0.6703  0.3564 -0.0521
 2279TIP3   OH231031   0.604   0.710   8.758 -0.3943  0.1598  0.2408
 2279TIP3    H131032   0.652   0.636   8.796  0.9207  0.7757 -0.1448
 2279TIP3    H231033   0.577   0.763   8.833  1.2172  0.7905  0.4169
 2280TIP3   OH231034   4.306   3.522   9.164 -0.1642 -0.0109 -0.3623
 2280TIP3    H131035   4.239   3.591   9.163 -0.2077 -0.0218  0.7058
 2280TIP3    H231036   4.256   3.441   9.153  0.0061  0.1467 -3.1363
 2281TIP3   OH231037   3.753   5.228   7.172 -0.2471  0.1239 -0.8736
 2281TIP3    H131038   3.805   5.277   7.235 -0.7636 -0.1569 -0.2176
 2281TIP3    H231039   3.744   5.288   7.097 -0.0193  0.6391 -0.4983
 2282TIP3   OH231040   6.683   5.206   9.101  0.0181  0.1117  0.2642
 2282TIP3    H131041   6.751   5.272   9.088 -0.4764  0.3914 -0.9568
 2282TIP3    H231042   6.637   5.202   9.018 -0.8162 -0.8163  0.7571
 2283TIP3   OH231043   5.820   1.810   9.194 -0.1810  0.0905  0.3802
 2283TIP3    H131044   5.852   1.745   9.132  0.5105  0.0718  0.7385
 2283TIP3    H231045   5.756   1.861   9.145  0.4286  0.1472 -0.3828
 2284TIP3   OH231046   4.060   6.354   7.458 -0.3685 -0.0388  0.5820
 2284TIP3    H131047   4.017   6.299   7.393 -0.0085  0.7874 -0.3689
 2284TIP3    H231048   4.106   6.292   7.515 -1.9594 -0.8728  1.0247
 2285TIP3   OH231049   6.788   6.013   8.386  0.0635 -0.3536  0.1046
 2285TIP3    H131050   6.785   5.929   8.340 -1.2533 -0.0056 -0.4886
 2285TIP3    H231051   6.703   6.019   8.430  0.0716  0.7612 -0.0171
 2286TIP3   OH231052   4.437   3.834   9.312 -0.3695 -0.5250 -0.0319
 2286TIP3    H131053   4.468   3.866   9.397  1.3135  0.5736 -0.9986
 2286TIP3    H231054   4.512   3.787   9.275 -0.6546  0.0487 -1.4052
 2287TIP3   OH231055   6.041   4.548   9.301  0.1975 -0.1322  0.4498
 2287TIP3    H131056   6.073   4.460   9.281 -0.2065 -0.3276  0.6430
 2287TIP3    H231057   6.112   4.606   9.276 -0.2604 -0.3600 -1.5686
 2288TIP3   OH231058   2.626   3.604   7.429  0.0652  0.1676  0.2822
 2288TIP3    H131059   2.650   3.619   7.521  0.5665 -2.3824  0.6542
 2288TIP3    H231060   2.556   3.539   7.433  1.6403 -1.7454 -1.1447
 2289TIP3   OH231061   4.150   6.004   6.604 -0.2339 -0.1228 -0.1245
 2289TIP3    H131062   4.106   5.951   6.671  1.3096 -1.7213 -0.3127
 2289TIP3    H231063   4.088   6.007   6.531 -0.0029 -2.5941 -0.5137
 2290TIP3   OH231064   7.291   5.309   7.304 -0.8521  0.4605 -0.5283
 2290TIP3    H131065   7.292   5.221   7.342 -0.8304 -0.0254 -1.6071
 2290TIP3    H231066   7.232   5.359   7.360 -0.5498 -0.1264  0.3360
 2291TIP3   OH231067   2.866   5.097   8.882  0.0757 -0.1300 -0.2468
 2291TIP3    H131068   2.960   5.081   8.885  0.6741  2.9304  0.8894
 2291TIP3    H231069   2.858   5.187   8.851 -2.5155 -0.3463 -0.4153
 2292TIP3   OH231070   7.004   4.446   6.878  0.0907 -0.2299 -0.4068
 2292TIP3    H131071   6.930   4.472   6.933  1.2945  1.2902  0.6118
 2292TIP3    H231072   6.977   4.365   6.836 -3.3120  1.6967 -2.3622
 2293TIP3   OH231073   5.964   5.494   7.984 -0.2337 -0.6470 -0.0622
 2293TIP3    H131074   5.888   5.437   7.992 -1.3596  0.6237 -1.2961
 2293TIP3    H231075   6.029   5.456   8.044 -2.3614 -0.8635  2.2574
 2294TIP3   OH231076   3.798   5.065   8.340  0.1759  0.3166  0.3668
 2294TIP3    H131077   3.845   5.141   8.307  0.0854  0.0785 -0.3322
 2294TIP3    H231078   3.708   5.078   8.311 -0.1382  0.6222  1.4429
 2295TIP3   OH231079   5.510   3.015   8.499 -0.1533  0.7740  0.3085
 2295TIP3    H131080   5.506   3.071   8.576 -0.5916  1.4159 -0.1794
 2295TIP3    H231081   5.542   3.072   8.429  0.2668  0.1901  0.0126
 2296TIP3   OH231082   1.428   5.535   7.635 -0.1045  0.4119 -0.5152
 2296TIP3    H131083   1.516   5.513   7.603 -0.4801 -2.6104  0.1840
 2296TIP3    H231084   1.441   5.553   7.728 -0.1826  0.2140 -0.4655
 2297TIP3   OH231085   2.701   4.772   9.236 -0.1053  0.2405  0.4309
 2297TIP3    H131086   2.771   4.825   9.198 -1.0917  1.6302  0.4661
 2297TIP3    H231087   2.675   4.819   9.316 -1.0172 -0.2769  0.4608
 2298TIP3   OH231088   4.082   7.517   7.367  0.2589  0.0787  0.0435
 2298TIP3    H131089   4.088   7.587   7.302 -0.1263  1.1554  1.1312
 2298TIP3    H231090   4.173   7.489   7.382  0.4108  0.3330 -0.3972
 2299TIP3   OH231091   4.879   6.962   7.843 -0.3856  0.6610 -0.4269
 2299TIP3    H131092   4.796   6.947   7.887  0.4725  0.1216  1.0545
 2299TIP3    H231093   4.882   6.895   7.775 -1.0583  0.5447 -0.3528
 2300TIP3   OH231094   1.457   5.273   7.892 -0.3735  0.1865  0.0557
 2300TIP3    H131095   1.543   5.259   7.852  1.1412  2.7914  2.1380
 2300TIP3    H231096   1.449   5.202   7.957  0.3516  0.1175  0.0792
 2301TIP3   OH231097   5.620   2.421   8.985  0.7405  0.6812 -0.1465
 2301TIP3    H131098   5.621   2.329   8.959  0.1514  0.7823 -0.5471
 2301TIP3    H231099   5.533   2.453   8.959  0.4166  1.0034  1.2053
 2302TIP3   OH231100   0.909   6.380   8.593  0.3863 -0.9229  0.7328
 2302TIP3    H131101   0.945   6.469   8.586  0.6867 -1.0358  0.8129
 2302TIP3    H231102   0.983   6.323   8.570 -0.4949 -1.0949 -2.0175
 2303TIP3   OH231103   2.597   7.194   8.303  0.2907  0.2044  0.2252
 2303TIP3    H131104   2.635   7.207   8.216 -0.5817 -0.5752 -0.2841
 2303TIP3    H231105   2.655   7.244   8.362 -0.6688  3.1597 -1.1239
 2304TIP3   OH231106   5.923   4.475   8.387  0.2924  0.4932 -0.0487
 2304TIP3    H131107   5.857   4.460   8.319 -0.0325  1.5917 -0.0082
 2304TIP3    H231108   5.895   4.420   8.460  0.6233 -0.6756 -0.7752
 2305TIP3   OH231109   0.175   2.245   8.425 -0.1621 -0.3589  0.2517
 2305TIP3    H131110   0.157   2.292   8.507  1.5421  0.6403  0.1113
 2305TIP3    H231111   0.271   2.235   8.425 -0.2448 -1.2954 -1.1116
 2306TIP3   OH231112   5.858   6.601   7.489  0.0294 -0.5309  0.1147
 2306TIP3    H131113   5.888   6.554   7.412  2.9140 -0.2938  0.9723
 2306TIP3    H231114   5.817   6.534   7.544 -2.0690 -0.6968 -1.5285
 2307TIP3   OH231115   7.242   7.406   7.511 -0.0570 -0.0737  0.2584
 2307TIP3    H131116   7.201   7.365   7.587 -0.1861  1.3860  1.0158
 2307TIP3    H231117   7.285   7.334   7.466  0.9919 -0.8337  2.3320
 2308TIP3   OH231118   4.217   6.726   9.806  0.1508  0.0063 -0.5204
 2308TIP3    H131119   4.135   6.702   9.848  0.5925 -0.2035  0.2385
 2308TIP3    H231120   4.285   6.695   9.866  0.7715  0.9263 -0.7329
 2309TIP3   OH231121   4.035   5.992   8.203  0.2460  0.1444 -0.3323
 2309TIP3    H131122   4.092   5.967   8.276  3.0142  2.7336 -1.3903
 2309TIP3    H231123   4.064   5.936   8.130 -1.5262 -1.4238  0.0931
 2310TIP3   OH231124   4.187   1.993   7.910  0.2401 -0.3130  0.1837
 2310TIP3    H131125   4.212   1.902   7.897  1.2141 -0.1653  0.9518
 2310TIP3    H231126   4.193   2.032   7.823  4.1528  0.0524  0.4550
 2311TIP3   OH231127   0.859   1.223   7.548 -0.0002 -0.2631  0.3849
 2311TIP3    H131128   0.915   1.146   7.560  1.7965  1.0939  1.3988
 2311TIP3    H231129   0.878   1.278   7.625 -0.9480  1.3382 -0.4699
 2312TIP3   OH231130   4.206   1.584   7.921 -0.0232 -0.4590 -0.3528
 2312TIP3    H131131   4.216   1.531   7.842  0.8108 -1.7714  0.5879
 2312TIP3    H231132   4.259   1.663   7.904 -0.3632 -0.4352 -1.3367
 2313TIP3   OH231133   2.216   7.359   6.707 -0.3195 -0.1043  0.1601
 2313TIP3    H131134   2.279   7.401   6.648 -1.4949  0.6442 -0.6087
 2313TIP3    H231135   2.227   7.265   6.692 -0.0201  0.0503 -0.6336
 2314TIP3   OH231136   3.812   1.826   8.968  0.2170 -0.3913 -0.5947
 2314TIP3    H131137   3.758   1.775   9.029  0.0210 -0.3306 -0.7167
 2314TIP3    H231138   3.752   1.890   8.930  0.7511  0.8154  0.5330
 2315TIP3   OH231139   7.554   2.237   7.797 -0.0153 -0.5550  0.7646
 2315TIP3    H131140   7.536   2.144   7.786 -0.3536 -0.4033 -0.0953
 2315TIP3    H231141   7.628   2.241   7.857  1.0582 -1.4376 -0.4645
 2316TIP3   OH231142   3.772   0.978   7.042 -0.2681 -0.6975  0.4189
 2316TIP3    H131143   3.769   0.885   7.063 -0.9906 -0.8303 -0.2313
 2316TIP3    H231144   3.857   0.991   7.000  0.8561 -0.5897  2.5532
 2317TIP3   OH231145   5.095   5.224   8.208  0.7690  0.1070 -0.4841
 2317TIP3    H131146   5.014   5.274   8.196 -0.4577 -1.0408  2.1277
 2317TIP3    H231147   5.126   5.206   8.120 -2.0033  0.3482 -1.6074
 2318TIP3   OH231148   6.636   5.039   7.212  0.1978  0.2604  0.4803
 2318TIP3    H131149   6.607   4.966   7.266  2.1814 -0.3978  0.7537
 2318TIP3    H231150   6.729   5.022   7.198  0.3318  1.8777 -0.8470
 2319TIP3   OH231151   5.681   6.945   8.921  0.1814 -0.1479  0.2966
 2319TIP3    H131152   5.633   6.893   8.985 -0.0990  0.7486  0.8371
 2319TIP3    H231153   5.631   6.936   8.840 -2.0207  2.2026  1.2601
 2320TIP3   OH231154   1.673   4.434   7.447 -0.2095 -0.0850  0.1520
 2320TIP3    H131155   1.715   4.418   7.363 -0.8870 -1.1205 -0.0092
 2320TIP3    H231156   1.743   4.424   7.512  0.7440  2.5490 -0.3593
 2321TIP3   OH231157   3.960   6.643   8.050  0.8812  0.1926 -0.2545
 2321TIP3    H131158   3.983   6.586   7.976  0.3285 -0.2839 -0.0712
 2321TIP3    H231159   3.865   6.650   8.046  0.7594 -0.5414  0.9155
 2322TIP3   OH231160   4.416   0.963   8.187 -0.2976  0.1011 -0.4567
 2322TIP3    H131161   4.419   1.058   8.202 -0.0487  0.3554 -1.9491
 2322TIP3    H231162   4.334   0.935   8.226 -0.8916  1.1249 -0.9240
 2323TIP3   OH231163   1.253   0.815   8.283  0.3112  0.0440  0.0107
 2323TIP3    H131164   1.325   0.753   8.290 -0.9280 -1.2676  2.4352
 2323TIP3    H231165   1.279   0.889   8.339 -0.2101 -0.4998  1.0159
 2324TIP3   OH231166   2.970   3.818   8.345 -1.0958 -0.4784 -0.1294
 2324TIP3    H131167   2.942   3.730   8.319 -0.0673 -1.6684  2.4994
 2324TIP3    H231168   2.988   3.812   8.438  3.0647  1.4236 -0.5724
 2325TIP3   OH231169   0.902   5.433   6.836  0.2070 -0.1064  0.0596
 2325TIP3    H131170   0.939   5.345   6.832  0.4759  0.0393 -0.9197
 2325TIP3    H231171   0.807   5.419   6.841  0.2334 -0.4557 -0.3733
 2326TIP3   OH231172   3.407   1.066   7.416  0.1128 -0.1099  0.0484
 2326TIP3    H131173   3.411   1.159   7.390  2.6733 -0.0303  0.4740
 2326TIP3    H231174   3.325   1.058   7.465 -0.4431  1.7742 -0.4779
 2327TIP3   OH231175   6.656   0.460   8.540 -0.8344  0.1816  0.0407
 2327TIP3    H131176   6.561   0.470   8.531 -0.8494 -0.1921 -0.2220
 2327TIP3    H231177   6.669   0.445   8.634 -1.1160 -0.5904 -0.0349
 2328TIP3   OH231178   2.983   1.912   7.715 -0.3021 -0.6205 -0.0843
 2328TIP3    H131179   3.062   1.894   7.664  0.7988  0.1679  1.2600
 2328TIP3    H231180   2.964   2.004   7.698  0.2007 -0.2856  1.0228
 2329TIP3   OH231181   7.218   5.166   8.578  0.2746 -0.0407 -0.4918
 2329TIP3    H131182   7.300   5.209   8.554  1.0817 -0.9831  0.4558
 2329TIP3    H231183   7.242   5.105   8.648 -1.3877  0.3356  0.4933
 2330TIP3   OH231184   2.063   4.206   8.426  0.2577 -0.6140  0.2279
 2330TIP3    H131185   2.029   4.118   8.408 -1.6922 -0.2140  1.6591
 2330TIP3    H231186   2.150   4.191   8.461  0.7259 -1.8373 -1.3523
 2331TIP3   OH231187   0.575   2.481   6.522  0.0093  0.2303  0.0711
 2331TIP3    H131188   0.661   2.514   6.496  0.2320 -0.6624 -0.3818
 2331TIP3    H231189   0.594   2.399   6.567 -0.4703  1.0544  1.8677
 2332TIP3   OH231190   2.843   4.444   8.249 -0.1317 -0.1944 -0.2553
 2332TIP3    H131191   2.800   4.439   8.164 -0.1627  0.0838 -0.2560
 2332TIP3    H231192   2.851   4.537   8.267 -0.8769 -0.2436  0.4237
 2333TIP3   OH231193   2.257   2.644   8.113  0.0484 -0.1840  0.5271
 2333TIP3    H131194   2.204   2.568   8.091  0.4651 -0.3020 -0.0982
 2333TIP3    H231195   2.196   2.717   8.114 -0.7008 -0.7415  2.8349
 2334TIP3   OH231196   7.322   5.758   7.942 -0.6345 -0.0128  0.2487
 2334TIP3    H131197   7.390   5.823   7.923 -1.2694  0.2044 -1.5136
 2334TIP3    H231198   7.346   5.723   8.027  0.4671  1.6015  0.6669
 2335TIP3   OH231199   6.033   6.077   7.418  0.1260 -0.2822  0.4935
 2335TIP3    H131200   6.070   6.165   7.410  1.4787 -0.9173 -0.5346
 2335TIP3    H231201   6.023   6.047   7.327  0.2564 -1.4202  0.8437
 2336TIP3   OH231202   1.635   1.474   6.727 -0.3257 -0.3227 -0.4990
 2336TIP3    H131203   1.619   1.568   6.717  0.0475 -0.4134 -2.2077
 2336TIP3    H231204   1.730   1.465   6.721 -0.4507 -0.9481 -2.0666
 2337TIP3   OH231205   6.100   6.688   7.592 -0.1936 -0.1130 -0.0911
 2337TIP3    H131206   6.028   6.638   7.554 -0.8098  0.2466  0.5790
 2337TIP3    H231207   6.091   6.775   7.552 -0.1257 -0.0719 -0.0166
 2338TIP3   OH231208   2.194   6.144   6.707 -0.2325 -1.0461  0.4458
 2338TIP3    H131209   2.266   6.203   6.686 -0.0017 -0.6190  2.2297
 2338TIP3    H231210   2.231   6.056   6.697 -0.2961 -0.9101 -1.2706
 2339TIP3   OH231211   4.338   0.181   7.804  0.2048 -0.2071 -0.1764
 2339TIP3    H131212   4.314   0.096   7.766 -1.1345  0.9620 -2.0995
 2339TIP3    H231213   4.421   0.164   7.848  0.4539 -2.3081 -1.3059
 2340TIP3   OH231214   2.678   4.461   8.007 -0.2891  0.2495 -0.2820
 2340TIP3    H131215   2.679   4.485   7.914 -0.6511 -1.0215 -0.6245
 2340TIP3    H231216   2.586   4.454   8.029 -0.1938 -0.0867  0.0077
 2341TIP3   OH231217   2.908   2.180   7.537  0.4678  0.1775  0.3751
 2341TIP3    H131218   2.983   2.190   7.478  0.2678 -0.5099 -0.0067
 2341TIP3    H231219   2.923   2.244   7.606  0.6932  1.0214 -0.4376
 2342TIP3   OH231220   6.681   2.187   8.833  0.6479  0.2912 -0.2292
 2342TIP3    H131221   6.667   2.121   8.901 -0.0892 -0.2294 -0.8690
 2342TIP3    H231222   6.710   2.265   8.881  0.9546 -0.3087  0.5923
 2343TIP3   OH231223   5.490   1.537   8.547  0.0555 -0.4764 -0.2170
 2343TIP3    H131224   5.431   1.462   8.539 -0.1702 -0.1994 -1.3253
 2343TIP3    H231225   5.444   1.609   8.502 -0.3379  0.7043  1.9513
 2344TIP3   OH231226   3.243   5.626   8.553 -0.1729  0.1616  0.0150
 2344TIP3    H131227   3.269   5.562   8.487  0.8335 -0.7837  1.2868
 2344TIP3    H231228   3.147   5.626   8.550 -0.2426 -2.0619  0.5633
 2345TIP3   OH231229   5.795   2.940   9.171 -0.0256  0.2794 -0.0782
 2345TIP3    H131230   5.840   3.022   9.154  1.3068 -0.1406  1.1683
 2345TIP3    H231231   5.782   2.939   9.266  1.9099 -1.8283  0.2737
 2346TIP3   OH231232   0.930   4.056   7.367  0.4795  0.1627  0.3232
 2346TIP3    H131233   0.874   4.132   7.381  0.6728  0.7715 -1.7559
 2346TIP3    H231234   1.017   4.093   7.347  0.7621 -0.6106  0.0589
 2347TIP3   OH231235   4.299   0.716   8.819  0.0754  0.2200  0.2283
 2347TIP3    H131236   4.217   0.711   8.868  0.1999 -0.4500  0.3783
 2347TIP3    H231237   4.284   0.783   8.753 -0.6448 -0.0016  0.1630
 2348TIP3   OH231238   5.154   4.542   9.062  0.6542 -0.2051  0.4634
 2348TIP3    H131239   5.248   4.527   9.052  0.6126 -1.3938  1.5765
 2348TIP3    H231240   5.140   4.542   9.157 -0.4431  0.2193  0.3170
 2349TIP3   OH231241   5.807   6.409   7.700  0.2637  0.0872 -0.0659
 2349TIP3    H131242   5.747   6.337   7.720 -0.3929  0.5650 -0.2473
 2349TIP3    H231243   5.877   6.401   7.764  2.2717 -2.9941 -2.3844
 2350TIP3   OH231244   2.109   4.395   7.868 -0.0312 -0.3666  0.1720
 2350TIP3    H131245   2.052   4.433   7.935  0.8195  0.3593  0.5152
 2350TIP3    H231246   2.083   4.303   7.864 -0.3611 -0.3385  1.2324
 2351TIP3   OH231247   0.898   4.877   7.746 -0.3490  0.5174 -0.2845
 2351TIP3    H131248   0.976   4.823   7.757 -0.8745 -0.3659 -0.7597
 2351TIP3    H231249   0.852   4.870   7.830  0.3933  1.5821  0.2336
 2352TIP3   OH231250   1.393   2.165   7.131 -0.1655 -0.2750  0.4385
 2352TIP3    H131251   1.325   2.108   7.166 -2.2415  0.0890 -2.6372
 2352TIP3    H231252   1.472   2.111   7.130 -1.0451 -1.6408  1.4753
 2353TIP3   OH231253   6.569   6.962   8.171  0.5647 -0.0158 -0.0631
 2353TIP3    H131254   6.590   7.053   8.150 -1.6881  0.9852  1.5960
 2353TIP3    H231255   6.511   6.935   8.099 -0.1010  0.4529  0.2820
 2354TIP3   OH231256   0.558   6.518   7.175 -0.2997  0.1551 -0.2167
 2354TIP3    H131257   0.632   6.555   7.127  1.1078 -0.3827  1.4229
 2354TIP3    H231258   0.561   6.424   7.157 -0.3254  0.0760  0.1792
 2355TIP3   OH231259   2.153   4.661   9.402 -0.6889 -0.0978  0.0130
 2355TIP3    H131260   2.238   4.631   9.435  0.1522  0.1750 -1.7663
 2355TIP3    H231261   2.154   4.756   9.415  0.0807  0.1533 -1.6063
 2356TIP3   OH231262   4.378   5.591   7.911 -0.2025 -0.0818 -0.4228
 2356TIP3    H131263   4.468   5.563   7.928 -0.1373  0.2763 -0.1698
 2356TIP3    H231264   4.367   5.670   7.964 -0.7309 -0.2343 -0.3007
 2357TIP3   OH231265   4.900   5.129   8.897  0.9344 -0.1361 -0.1227
 2357TIP3    H131266   4.879   5.038   8.877 -0.5819  0.1752 -0.1161
 2357TIP3    H231267   4.974   5.150   8.841  1.1634 -1.3010 -0.2861
 2358TIP3   OH231268   4.022   4.247   8.428  0.1407  0.2911  0.2910
 2358TIP3    H131269   3.966   4.224   8.502  0.5797  1.7086  1.0933
 2358TIP3    H231270   4.062   4.330   8.453  1.7360 -0.1287 -0.7505
 2359TIP3   OH231271   0.399   0.047   7.190  0.1450  0.1550  0.1674
 2359TIP3    H131272   0.366  -0.020   7.130 -1.0831  0.3073  0.6343
 2359TIP3    H231273   0.490   0.021   7.208 -0.1628 -1.1274 -0.0178
 2360TIP3   OH231274   5.788   0.504   7.730  0.0751 -0.2274 -0.2856
 2360TIP3    H131275   5.712   0.470   7.683 -0.4269  0.0898  0.2818
 2360TIP3    H231276   5.776   0.599   7.729 -0.4096 -0.2448  1.2257
 2361TIP3   OH231277   1.861   5.268   8.293 -0.3636  0.1611  0.3141
 2361TIP3    H131278   1.862   5.362   8.308 -2.1201  0.3386 -0.4117
 2361TIP3    H231279   1.774   5.251   8.256  0.9338 -1.3174 -2.3007
 2362TIP3   OH231280   1.621   7.510   7.648  0.3697  0.6925 -0.0009
 2362TIP3    H131281   1.703   7.551   7.673  1.2745  0.2962 -2.0979
 2362TIP3    H231282   1.617   7.520   7.553 -0.0486 -2.6898 -0.4685
 2363TIP3   OH231283   5.256   3.071   9.675  0.1901  0.0756 -0.6517
 2363TIP3    H131284   5.193   3.040   9.610  1.3899 -1.9194 -0.9615
 2363TIP3    H231285   5.222   3.037   9.759  0.1039  0.2398 -0.6201
 2364TIP3   OH231286   4.593   3.536   9.328  0.0067  0.5852 -0.3188
 2364TIP3    H131287   4.673   3.491   9.303 -0.1124 -0.0776  0.4352
 2364TIP3    H231288   4.598   3.621   9.285  0.5893  0.1289 -1.1723
 2365TIP3   OH231289   6.524   2.549   7.514 -0.0054  0.1871 -0.8340
 2365TIP3    H131290   6.456   2.508   7.461 -0.6336  2.0604 -1.5373
 2365TIP3    H231291   6.525   2.641   7.487  0.8273  0.8427  1.1960
 2366TIP3   OH231292   3.655   5.451   8.273 -0.0488 -0.2129 -0.0882
 2366TIP3    H131293   3.720   5.519   8.286  2.7158 -2.4457 -1.0437
 2366TIP3    H231294   3.665   5.393   8.349 -0.1842 -1.0954 -0.7180
 2367TIP3   OH231295   2.164   1.137   8.768 -0.0859 -0.4380 -0.2255
 2367TIP3    H131296   2.068   1.139   8.774 -0.0871 -1.0578  0.1258
 2367TIP3    H231297   2.186   1.044   8.778  0.4682 -0.4879 -1.7492
 2368TIP3   OH231298   4.426   3.621   8.943 -0.1969 -0.2235 -0.1607
 2368TIP3    H131299   4.403   3.588   9.030  0.0489  0.2009  0.0678
 2368TIP3    H231300   4.488   3.557   8.909  0.3062  0.0205  0.2940
 2369TIP3   OH231301   6.438   1.903   9.241  0.0821 -0.5033 -0.7679
 2369TIP3    H131302   6.366   1.965   9.242  1.4924  1.2279  1.0558
 2369TIP3    H231303   6.446   1.873   9.331  2.9706  1.1339 -0.3400
 2370TIP3   OH231304   5.363   6.989   7.951 -0.4527  0.3451 -0.1847
 2370TIP3    H131305   5.400   7.021   7.869 -1.1623 -0.0897 -0.6866
 2370TIP3    H231306   5.288   6.936   7.924 -0.1667 -0.5433  0.6972
 2371TIP3   OH231307   7.364   3.490   9.106  0.0962  0.4039  0.6164
 2371TIP3    H131308   7.282   3.529   9.136 -0.3882 -0.9003  1.0525
 2371TIP3    H231309   7.411   3.468   9.186  0.0934 -0.4466  0.3894
 2372TIP3   OH231310   4.083   7.468   9.417  0.0837 -0.0102  0.4190
 2372TIP3    H131311   4.014   7.406   9.394 -1.8002  2.1147  0.0120
 2372TIP3    H231312   4.080   7.474   9.512 -0.8456  0.6252  0.3608
 2373TIP3   OH231313   1.163   1.103   7.606  0.1978 -0.0224  0.2898
 2373TIP3    H131314   1.206   1.072   7.526 -2.4419 -1.3540 -0.7242
 2373TIP3    H231315   1.147   1.196   7.590  0.5548 -0.0637 -0.3176
 2374TIP3   OH231316   4.278   7.414   8.155 -0.0280  0.8796 -0.2294
 2374TIP3    H131317   4.346   7.363   8.110 -0.4774  0.8522 -0.8880
 2374TIP3    H231318   4.315   7.432   8.241  0.2824 -0.2807 -0.1021
 2375TIP3   OH231319   1.769   5.538   7.845 -0.5324  0.1546 -0.0536
 2375TIP3    H131320   1.833   5.537   7.917 -0.8239  0.2613  0.2124
 2375TIP3    H231321   1.804   5.602   7.783 -1.0554  1.2519  0.7306
 2376TIP3   OH231322   4.877   7.199   6.830 -0.1182 -0.2408  0.1001
 2376TIP3    H131323   4.936   7.213   6.904  0.1196  0.6634 -0.2478
 2376TIP3    H231324   4.844   7.287   6.809  0.7050 -0.2964 -1.5905
 2377TIP3   OH231325   5.161   1.475   7.895  0.5819  0.4006 -0.6425
 2377TIP3    H131326   5.248   1.463   7.933 -0.0534  0.8820  1.0415
 2377TIP3    H231327   5.127   1.385   7.885  1.6832  0.1410 -2.4108
 2378TIP3   OH231328   5.239   6.987   9.103  0.1424 -0.1322 -0.3493
 2378TIP3    H131329   5.176   6.924   9.138 -0.7221  0.7870 -0.1909
 2378TIP3    H231330   5.294   6.936   9.044  0.7606 -1.4444  1.2956
 2379TIP3   OH231331   4.395   2.129   8.212  0.1592  0.1406  0.3234
 2379TIP3    H131332   4.443   2.168   8.139 -0.2238  1.4265  0.7210
 2379TIP3    H231333   4.454   2.063   8.248  0.1503 -0.8853 -1.4512
 2380TIP3   OH231334   3.574   5.024   7.507 -0.7171  0.0182  0.1656
 2380TIP3    H131335   3.564   5.005   7.600 -1.5866  0.5014  0.1781
 2380TIP3    H231336   3.556   5.118   7.500  1.3546  0.4418 -0.2014
 2381TIP3   OH231337   3.745   1.677   9.537  0.1641 -0.2803 -0.3011
 2381TIP3    H131338   3.824   1.673   9.590  0.0877 -2.7595 -0.2415
 2381TIP3    H231339   3.776   1.689   9.447  0.4561  0.8615 -0.0614
 2382TIP3   OH231340   4.292   0.988   8.594 -0.1652 -0.4772 -0.3897
 2382TIP3    H131341   4.364   0.957   8.539  0.7863 -1.4672  1.3329
 2382TIP3    H231342   4.216   0.939   8.563  0.2872 -0.8324 -0.9799
 2383TIP3   OH231343   1.271   3.799   6.927  0.0568  0.3066 -0.6406
 2383TIP3    H131344   1.192   3.811   6.980  1.1718  1.6013  0.8547
 2383TIP3    H231345   1.261   3.713   6.887 -1.4333 -0.2005  0.7000
 2384TIP3   OH231346   1.163   2.918   7.897 -0.4539  0.5837  0.3447
 2384TIP3    H131347   1.200   2.879   7.976  0.6407 -0.8198 -0.8046
 2384TIP3    H231348   1.213   3.000   7.886 -0.2238  0.5079  0.7875
 2385TIP3   OH231349   7.462   4.845   9.169 -0.0953  0.0645  0.3146
 2385TIP3    H131350   7.486   4.758   9.202  2.8352  0.3319 -0.8631
 2385TIP3    H231351   7.526   4.904   9.207 -1.6457  1.6805  0.5550
 2386TIP3   OH231352   1.493   1.518   8.412 -0.5349  0.0709  0.0758
 2386TIP3    H131353   1.461   1.607   8.400 -0.5280 -0.0028 -0.5084
 2386TIP3    H231354   1.580   1.529   8.450 -0.0260  0.3571 -1.1129
 2387TIP3   OH231355   2.786   7.263   8.549 -0.2644 -0.5016  0.2108
 2387TIP3    H131356   2.811   7.355   8.559  1.0473 -0.6568 -1.2581
 2387TIP3    H231357   2.830   7.218   8.621  1.2201 -0.3153 -0.5497
 2388TIP3   OH231358   6.401   3.844   8.359 -0.0148 -0.4800  0.2720
 2388TIP3    H131359   6.337   3.906   8.324 -0.9065 -0.1267  2.3244
 2388TIP3    H231360   6.486   3.882   8.338 -0.3459 -1.3080 -3.1363
 2389TIP3   OH231361   2.306   6.401   8.371  0.9431  0.1446  0.0430
 2389TIP3    H131362   2.246   6.329   8.390 -0.8649  1.5666  0.0112
 2389TIP3    H231363   2.283   6.468   8.436  3.2213  0.3676  0.6824
 2390TIP3   OH231364   4.829   1.914   6.962 -0.1077 -0.2373 -0.0865
 2390TIP3    H131365   4.821   1.830   6.917  1.3122 -1.1044  1.2091
 2390TIP3    H231366   4.826   1.892   7.055  0.3592  1.1388  0.2817
 2391TIP3   OH231367   3.767   4.041   9.047 -0.3816  0.5384 -0.7683
 2391TIP3    H131368   3.801   4.048   9.137 -0.6596  0.3024 -0.6430
 2391TIP3    H231369   3.768   3.947   9.029 -0.7518  0.5470 -0.8448
 2392TIP3   OH231370   5.985   5.060   9.133 -0.3222  0.6703  0.0363
 2392TIP3    H131371   6.060   5.008   9.104 -0.3801 -0.1324  1.2371
 2392TIP3    H231372   5.914   4.997   9.142 -0.8543  1.2456 -0.0910
 2393TIP3   OH231373   5.521   6.623   8.523  0.1933 -0.1173 -0.6261
 2393TIP3    H131374   5.436   6.645   8.487 -0.0304 -1.4774 -0.9896
 2393TIP3    H231375   5.572   6.592   8.447  0.7657 -0.0129 -0.2912
 2394TIP3   OH231376   0.765   2.290   8.186  0.1624 -0.5204 -0.2088
 2394TIP3    H131377   0.811   2.308   8.268  1.3217  1.0168 -1.1342
 2394TIP3    H231378   0.713   2.212   8.204  0.1308 -0.0501  2.0759
 2395TIP3   OH231379   1.868   3.302   7.330 -0.5438  0.3479  0.2702
 2395TIP3    H131380   1.869   3.255   7.246 -2.2736  0.4521  0.1569
 2395TIP3    H231381   1.775   3.323   7.345 -0.1299  1.3414  1.6538
 2396TIP3   OH231382   1.210   1.714   8.025  0.4453 -0.2347  0.3413
 2396TIP3    H131383   1.180   1.634   7.982  0.3968 -0.1218  0.1673
 2396TIP3    H231384   1.153   1.783   7.990  0.6102 -0.0935  0.3519
 2397TIP3   OH231385   2.583   2.403   9.245  0.2086 -0.1810  0.1345
 2397TIP3    H131386   2.574   2.357   9.161  0.9787  0.5979 -0.3964
 2397TIP3    H231387   2.557   2.493   9.226 -2.1118 -0.5097  1.3633
 2398TIP3   OH231388   0.391   3.400   8.280 -0.1784 -0.1055 -0.0950
 2398TIP3    H131389   0.443   3.431   8.206 -0.3774  1.6375  0.4477
 2398TIP3    H231390   0.337   3.330   8.244  0.9498 -0.4383 -1.1878
 2399TIP3   OH231391   6.194   5.243   8.359 -0.1763  0.0235 -0.0750
 2399TIP3    H131392   6.175   5.226   8.451  0.6208  1.8444  0.4643
 2399TIP3    H231393   6.289   5.233   8.351 -0.2667 -0.4004 -0.7737
 2400TIP3   OH231394   1.029   2.248   9.461  0.7779 -0.0501  1.0197
 2400TIP3    H131395   1.013   2.341   9.444  0.8554 -0.1454  0.4090
 2400TIP3    H231396   1.124   2.241   9.466  0.7715 -0.0964  1.0737
 2401TIP3   OH231397   4.381   6.989   8.071  0.5663 -0.0586  0.2324
 2401TIP3    H131398   4.315   6.934   8.028  0.8582  0.3341 -0.7406
 2401TIP3    H231399   4.365   6.976   8.165  0.8290 -2.0242  0.0420
 2402TIP3   OH231400   7.384   3.566   7.603 -0.0648  1.1034  1.0082
 2402TIP3    H131401   7.326   3.570   7.527  1.3825  0.9335 -0.1355
 2402TIP3    H231402   7.459   3.515   7.574 -0.6120 -1.2734  3.3702
 2403TIP3   OH231403   2.415   1.055   7.433  0.1688 -0.0295  0.2615
 2403TIP3    H131404   2.435   1.048   7.340 -2.3596 -3.7015 -0.1974
 2403TIP3    H231405   2.484   1.006   7.477  0.8308  0.9066  0.3145
 2404TIP3   OH231406   4.025   5.809   8.834 -0.2767  0.2146  0.1492
 2404TIP3    H131407   4.058   5.889   8.794  0.2371  0.2415  0.6142
 2404TIP3    H231408   4.074   5.739   8.791 -0.9527  0.1164 -0.4863
 2405TIP3   OH231409   1.870   3.903   8.861 -0.3509 -0.4584 -0.0888
 2405TIP3    H131410   1.930   3.882   8.790  1.5753  1.0177  1.0381
 2405TIP3    H231411   1.905   3.857   8.937 -0.1002  1.1046  0.7807
 2406TIP3   OH231412   4.007   6.977   7.641  0.2660  0.4861  0.1306
 2406TIP3    H131413   4.068   7.032   7.690  0.7843  0.7065 -0.7254
 2406TIP3    H231414   3.929   7.032   7.629  0.7484  1.0328 -0.6497
 2407TIP3   OH231415   2.733   1.111   8.116  0.0956 -0.1595 -0.1659
 2407TIP3    H131416   2.648   1.069   8.097  0.6017 -0.2408 -2.5534
 2407TIP3    H231417   2.710   1.194   8.157 -1.2795  0.6005 -2.3110
 2408TIP3   OH231418   6.432   5.453   8.911 -0.3150 -0.1566 -0.2560
 2408TIP3    H131419   6.506   5.513   8.900 -0.2412 -0.0934  0.4930
 2408TIP3    H231420   6.416   5.417   8.824  0.5711 -0.1392 -0.4279
 2409TIP3   OH231421   3.877   1.688   9.306  0.2776 -0.0339 -0.5890
 2409TIP3    H131422   3.968   1.664   9.289  0.6914  0.7048  0.4718
 2409TIP3    H231423   3.869   1.777   9.271  0.3217  0.3695  0.3964
 2410TIP3   OH231424   4.260   5.659   7.190  0.1390  0.8033 -0.2231
 2410TIP3    H131425   4.192   5.631   7.127 -0.0908  2.8110 -0.9446
 2410TIP3    H231426   4.342   5.639   7.146  0.0215  0.0451 -0.1257
 2411TIP3   OH231427   3.239   1.766   8.979  0.0596  0.0852 -0.3249
 2411TIP3    H131428   3.266   1.675   8.964  1.0356 -0.0018  1.6382
 2411TIP3    H231429   3.284   1.816   8.910  1.0127 -0.7167 -0.3036
 2412TIP3   OH231430   2.488   1.205   6.907  0.3152 -0.1764 -0.0879
 2412TIP3    H131431   2.485   1.147   6.831  0.1835 -1.0857  0.5921
 2412TIP3    H231432   2.577   1.239   6.907  0.8258 -1.4306  0.2372
 2413TIP3   OH231433   4.570   2.139   7.600  0.4014  0.6712 -0.4198
 2413TIP3    H131434   4.625   2.202   7.552 -1.0983  2.1076 -0.3597
 2413TIP3    H231435   4.510   2.194   7.651  0.1615 -0.8323  0.9972
 2414TIP3   OH231436   2.470   6.636   7.304  0.3708  0.5646 -0.3778
 2414TIP3    H131437   2.466   6.730   7.285 -0.9714  0.7256  0.5615
 2414TIP3    H231438   2.460   6.594   7.218 -1.3636  1.2894 -0.5734
 2415TIP3   OH231439   1.543   5.350   9.297  0.5020  0.5239 -0.4921
 2415TIP3    H131440   1.450   5.332   9.283  0.9332 -0.9342 -1.7757
 2415TIP3    H231441   1.556   5.436   9.256 -0.1443  0.4561 -0.8627
 2416TIP3   OH231442   1.501   4.313   7.087 -0.2773  0.0277  0.4775
 2416TIP3    H131443   1.504   4.258   7.008  0.6659  1.0913 -0.2481
 2416TIP3    H231444   1.543   4.260   7.155  1.4555  0.1837 -0.4349
 2417TIP3   OH231445   4.684   1.485   8.835 -0.1892  0.3437 -0.1556
 2417TIP3    H131446   4.592   1.461   8.845 -0.0083 -0.2187  0.2384
 2417TIP3    H231447   4.725   1.455   8.917  0.6039 -0.7504 -0.9202
 2418TIP3   OH231448   1.355   0.088   8.146  0.1775 -0.0122 -0.1455
 2418TIP3    H131449   1.437   0.079   8.194 -0.2697  0.0341  0.6573
 2418TIP3    H231450   1.295   0.129   8.209 -0.0076  1.4658 -1.2254
 2419TIP3   OH231451   4.937   7.375   8.181 -0.9098  0.0055 -0.3923
 2419TIP3    H131452   4.899   7.298   8.139 -1.7132  0.2109 -0.0561
 2419TIP3    H231453   4.901   7.449   8.133  1.0948  0.1786 -1.7648
 2420TIP3   OH231454   5.572   6.994   9.574  0.3102  0.3569 -0.1342
 2420TIP3    H131455   5.652   6.978   9.523  2.0906  2.0482  1.8993
 2420TIP3    H231456   5.556   6.911   9.619  1.6780  0.3246  0.3492
 2421TIP3   OH231457   0.879   2.783   9.140  0.0597 -0.3464  0.0588
 2421TIP3    H131458   0.901   2.768   9.048  0.8474 -0.5724  0.2791
 2421TIP3    H231459   0.955   2.751   9.189 -0.6341 -0.8722  0.8256
 2422TIP3   OH231460   1.026   0.991   8.200 -0.7226  0.1510  0.1053
 2422TIP3    H131461   1.054   0.909   8.157 -0.9418  0.0536  0.1465
 2422TIP3    H231462   1.003   0.964   8.289 -1.9632  0.0360 -0.2324
 2423TIP3   OH231463   2.885   5.828   8.364 -0.3066  0.3338 -0.0423
 2423TIP3    H131464   2.930   5.912   8.364  0.9245 -0.3054  0.1835
 2423TIP3    H231465   2.870   5.809   8.271 -0.8937  0.9470 -0.0800
 2424TIP3   OH231466   3.189   3.131   7.528 -0.1950  0.2887 -0.1408
 2424TIP3    H131467   3.266   3.183   7.507 -0.1894  0.2557 -0.2031
 2424TIP3    H231468   3.157   3.167   7.611 -0.1282  0.3188 -0.1284
 2425TIP3   OH231469   6.354   6.440   8.022 -0.1123 -0.0339 -0.2592
 2425TIP3    H131470   6.442   6.477   8.033 -0.6056  1.3841 -0.7775
 2425TIP3    H231471   6.307   6.470   8.100 -0.2057 -0.6080 -0.0913
 2426TIP3   OH231472   2.065   7.340   8.068  0.2725 -0.1973  0.1403
 2426TIP3    H131473   2.092   7.249   8.076  0.0307 -0.4740 -1.7928
 2426TIP3    H231474   1.991   7.339   8.008  0.6369  1.3311 -0.3936
 2427TIP3   OH231475   7.201   2.486   8.259 -0.2121 -0.2650  0.0914
 2427TIP3    H131476   7.126   2.540   8.283 -1.9671 -2.7422  0.6066
 2427TIP3    H231477   7.177   2.398   8.290  2.6690 -1.2599 -0.2822
 2428TIP3   OH231478   6.442   6.006   7.939  0.0051 -0.2925 -0.3265
 2428TIP3    H131479   6.434   5.917   7.973  0.0300 -1.2243 -2.6065
 2428TIP3    H231480   6.534   6.012   7.912  0.0474  0.4997 -0.0124
 2429TIP3   OH231481   6.193   4.528   8.372 -0.3325  0.1417  0.4018
 2429TIP3    H131482   6.100   4.552   8.374  0.0870  1.8829  1.5436
 2429TIP3    H231483   6.231   4.576   8.447  1.6187  0.0962 -0.5087
 2430TIP3   OH231484   0.893   6.842   7.833 -0.0478 -0.6854 -0.0236
 2430TIP3    H131485   0.819   6.902   7.844  0.7987  0.3338  0.3007
 2430TIP3    H231486   0.854   6.755   7.837 -1.2283 -0.1697  0.1395
 2431TIP3   OH231487   6.932   3.247   8.021 -0.3279 -0.4261  0.3644
 2431TIP3    H131488   7.021   3.248   8.056 -0.1526 -1.5620  0.0157
 2431TIP3    H231489   6.944   3.241   7.926 -0.7790 -0.1434  0.2886
 2432TIP3   OH231490   7.289   1.263   7.557 -0.2811 -0.3476  0.7105
 2432TIP3    H131491   7.259   1.222   7.638  1.7265 -1.6606  0.8517
 2432TIP3    H231492   7.297   1.191   7.495 -0.2300  0.3987 -0.1681
 2433TIP3   OH231493   5.523   6.798   8.244  0.4818 -0.0588 -0.5887
 2433TIP3    H131494   5.496   6.772   8.156  2.6251  0.8177 -1.5979
 2433TIP3    H231495   5.460   6.865   8.270 -1.2570 -1.6000 -0.6431
 2434TIP3   OH231496   3.535   0.371   7.075  0.1108 -0.1305 -0.0890
 2434TIP3    H131497   3.478   0.345   7.002  0.1798  1.0223 -0.5801
 2434TIP3    H231498   3.501   0.457   7.101 -0.5997 -0.9631  1.9642
 2435TIP3   OH231499   2.120   3.114   8.580  0.3567  0.2610  0.1696
 2435TIP3    H131500   2.086   3.200   8.557  2.0966  1.0211  0.2317
 2435TIP3    H231501   2.195   3.101   8.521  1.3968 -0.2678  1.5497
 2436TIP3   OH231502   2.902   0.063   9.181  0.3783  0.3278  0.4546
 2436TIP3    H131503   2.976   0.007   9.205  0.5787  0.3350 -0.1369
 2436TIP3    H231504   2.921   0.147   9.222  1.0387  0.5326 -0.2500
 2437TIP3   OH231505   2.939   2.174   8.796 -0.2243 -0.5743  0.6662
 2437TIP3    H131506   3.005   2.123   8.844 -1.7576 -0.7817  2.6527
 2437TIP3    H231507   2.987   2.250   8.764  1.5057 -1.8702 -0.0381
 2438TIP3   OH231508   3.933   4.046   9.277  0.1519  0.1340  0.4472
 2438TIP3    H131509   4.003   3.994   9.238  0.3526  0.9172 -0.2652
 2438TIP3    H231510   3.977   4.124   9.310 -0.5701  1.3679 -1.3946
 2439TIP3   OH231511   1.746   3.911   7.835  0.1099 -0.4677 -0.0581
 2439TIP3    H131512   1.715   3.893   7.746  0.4072  0.4231 -0.3530
 2439TIP3    H231513   1.833   3.950   7.822 -0.1157  0.2726  0.5892
 2440TIP3   OH231514   3.215   5.593   8.179  0.0044 -0.0897 -0.3366
 2440TIP3    H131515   3.239   5.582   8.087  0.4152  1.9183 -0.5138
 2440TIP3    H231516   3.240   5.683   8.200 -2.1754  0.2599  1.0955
 2441TIP3   OH231517   3.930   7.108   7.243 -0.0631  0.8765  0.0192
 2441TIP3    H131518   3.848   7.081   7.285  1.0801 -0.0083  1.8192
 2441TIP3    H231519   3.933   7.056   7.163  0.0708 -1.3565  1.3678
 2442TIP3   OH231520   2.440   0.365   8.797  0.3987 -0.0305  0.0730
 2442TIP3    H131521   2.443   0.458   8.819  1.8746 -0.5637  2.4274
 2442TIP3    H231522   2.360   0.333   8.838 -0.9594  0.4077 -2.0472
 2443TIP3   OH231523   2.205   1.638   8.483 -0.1168  0.3237 -0.7136
 2443TIP3    H131524   2.257   1.576   8.432  0.9153 -0.5112  1.2503
 2443TIP3    H231525   2.162   1.584   8.550  0.4835  1.6160  0.7869
 2444TIP3   OH231526   7.106   5.750   9.019 -0.5368  0.0543 -0.2997
 2444TIP3    H131527   7.110   5.693   8.942 -1.1515  1.8480 -1.7312
 2444TIP3    H231528   7.197   5.771   9.038 -0.3847 -0.3935 -0.5242
 2445TIP3   OH231529   6.390   6.240   8.852 -0.3084 -0.3223 -0.3490
 2445TIP3    H131530   6.320   6.265   8.792 -0.0176 -0.9391 -0.9736
 2445TIP3    H231531   6.387   6.144   8.852 -0.3182 -0.3236  0.6509
 2446TIP3   OH231532   0.089   1.578   8.789  0.3622 -0.1585 -0.4405
 2446TIP3    H131533   0.147   1.632   8.736  0.5241 -0.7321 -0.8629
 2446TIP3    H231534   0.066   1.633   8.864  2.1321 -0.2141  0.1828
 2447TIP3   OH231535   0.677   5.477   9.039 -0.0572 -0.4415  0.0223
 2447TIP3    H131536   0.606   5.414   9.023 -0.2895  0.1367 -1.2706
 2447TIP3    H231537   0.734   5.432   9.103 -2.0251 -0.5640  1.7998
 2448TIP3   OH231538   0.085   2.663   8.726 -0.1546 -0.5523 -0.2468
 2448TIP3    H131539   0.127   2.593   8.675  1.1867 -0.5786  0.8403
 2448TIP3    H231540   0.074   2.626   8.813  0.8174  0.6537  0.4204
 2449TIP3   OH231541   1.899   6.719   8.709  0.0727  0.3023 -0.2201
 2449TIP3    H131542   1.961   6.729   8.781  0.4074  0.7226 -0.5557
 2449TIP3    H231543   1.905   6.802   8.661  1.5556 -0.7817 -2.0478
 2450TIP3   OH231544   1.390   3.918   8.681 -0.1964  0.1447  0.4010
 2450TIP3    H131545   1.298   3.911   8.659 -0.3792 -0.3007  1.2561
 2450TIP3    H231546   1.436   3.911   8.597 -1.0026  2.3507 -0.2865
 2451TIP3   OH231547   1.421   3.889   7.293  0.1463  0.0223 -0.7825
 2451TIP3    H131548   1.493   3.828   7.303 -0.4152 -0.5646 -0.2265
 2451TIP3    H231549   1.351   3.838   7.252 -0.1918  0.3935 -0.6833
 2452TIP3   OH231550   2.439   4.824   7.259  0.4470  0.3550 -0.1259
 2452TIP3    H131551   2.483   4.883   7.198  0.3189 -0.8133 -1.3850
 2452TIP3    H231552   2.358   4.869   7.281 -0.1328  0.2407 -1.8713
 2453TIP3   OH231553   3.425   2.725   9.435  0.0333  0.0387 -0.5889
 2453TIP3    H131554   3.484   2.700   9.506  1.2639  1.4256 -1.0974
 2453TIP3    H231555   3.472   2.792   9.386 -1.5371  0.4180 -1.6521
 2454TIP3   OH231556   5.411   4.461   9.051  0.0683 -0.5560  0.0588
 2454TIP3    H131557   5.468   4.427   9.119  1.1870  3.1176  1.2037
 2454TIP3    H231558   5.452   4.433   8.969  1.3821 -1.1414  0.8841
 2455TIP3   OH231559   6.049   3.541   7.486 -0.5716  0.0590  0.3166
 2455TIP3    H131560   6.007   3.620   7.452 -0.6380 -0.2047 -0.2330
 2455TIP3    H231561   6.022   3.536   7.578 -0.5482  0.6837  0.3587
 2456TIP3   OH231562   1.174   1.428   8.499  0.0291  0.4460 -0.1172
 2456TIP3    H131563   1.177   1.347   8.448  2.5081  0.3808  0.0264
 2456TIP3    H231564   1.258   1.470   8.483 -0.4675  2.0909  1.2773
 2457TIP3   OH231565   6.683   2.249   7.021 -0.4411  0.3538  0.0463
 2457TIP3    H131566   6.633   2.229   6.942  0.5282  0.5556 -0.6325
 2457TIP3    H231567   6.694   2.344   7.020 -1.4176  0.4940  1.0474
 2458TIP3   OH231568   2.793   5.449   9.089  0.3675 -0.4536  0.0114
 2458TIP3    H131569   2.716   5.504   9.075  0.1435 -0.1202  2.1696
 2458TIP3    H231570   2.811   5.409   9.004 -0.9376  1.0620 -1.0129
 2459TIP3   OH231571   0.079   7.220   8.929  0.7895  0.1487 -0.1149
 2459TIP3    H131572   0.021   7.226   8.854 -1.3022  2.7497  1.5341
 2459TIP3    H231573   0.023   7.187   9.000  0.8869  3.5130  1.7426
 2460TIP3   OH231574   2.323   7.017   8.551  0.0305 -0.3560  0.1728
 2460TIP3    H131575   2.276   7.099   8.566 -0.8453 -1.0888  1.6924
 2460TIP3    H231576   2.415   7.041   8.556 -0.0749  1.0929 -2.7723
 2461TIP3   OH231577   1.011   3.771   7.019  0.0133 -0.2012 -0.2196
 2461TIP3    H131578   0.992   3.718   6.942  0.3772 -0.5080 -0.1031
 2461TIP3    H231579   0.958   3.850   7.008  0.7872  0.1936 -1.2566
 2462TIP3   OH231580   1.704   3.638   8.608 -0.1174 -0.1529 -0.8282
 2462TIP3    H131581   1.697   3.649   8.513 -1.9012  0.4754 -0.6599
 2462TIP3    H231582   1.649   3.707   8.644  0.1013 -0.7220  0.6628
 2463TIP3   OH231583   4.204   4.571   7.898 -0.3193 -0.4709  0.2231
 2463TIP3    H131584   4.289   4.560   7.855 -0.2172 -0.3526  0.3923
 2463TIP3    H231585   4.168   4.483   7.903 -1.2259 -0.2787 -1.8991
 2464TIP3   OH231586   0.542   3.245   6.773 -0.1070 -0.1582  0.1274
 2464TIP3    H131587   0.471   3.253   6.837 -1.4892  0.7267 -1.4447
 2464TIP3    H231588   0.547   3.151   6.754 -1.3707 -0.1573 -0.2775
 2465TIP3   OH231589   5.114   1.337   9.454  0.5584  0.4864  0.4480
 2465TIP3    H131590   5.026   1.305   9.438 -0.4107  3.7321 -1.6702
 2465TIP3    H231591   5.171   1.277   9.406 -0.7509 -0.1177 -0.3933
 2466TIP3   OH231592   2.865   7.335   9.438  0.4383  0.5113  0.0847
 2466TIP3    H131593   2.944   7.281   9.429  1.1678  0.8622  3.1309
 2466TIP3    H231594   2.893   7.409   9.492 -1.2319  2.4583 -1.5830
 2467TIP3   OH231595   4.166   6.471   6.566 -0.8467 -0.1439  0.1317
 2467TIP3    H131596   4.173   6.398   6.504  0.6895  0.3234 -0.2945
 2467TIP3    H231597   4.240   6.458   6.625 -0.4507  1.1696 -0.0613
 2468TIP3   OH231598   7.424   2.046   6.857  0.6506 -0.4299 -0.1128
 2468TIP3    H131599   7.394   1.964   6.818  1.1488 -0.9890  0.6600
 2468TIP3    H231600   7.409   2.112   6.789  1.2476 -1.3317 -1.1471
 2469TIP3   OH231601   1.253   6.463   8.074  0.7884 -0.0705  0.3250
 2469TIP3    H131602   1.291   6.550   8.085  0.2158  0.5317 -1.9713
 2469TIP3    H231603   1.328   6.406   8.056  1.0360  0.1984  0.4908
 2470TIP3   OH231604   4.792   4.498   7.332 -0.0250 -0.4461  0.1613
 2470TIP3    H131605   4.823   4.420   7.288 -1.0607 -0.0933 -1.2515
 2470TIP3    H231606   4.833   4.571   7.285  0.1193 -0.0985  0.8098
 2471TIP3   OH231607   2.710   4.538   7.760 -0.2559 -0.2899  0.5907
 2471TIP3    H131608   2.793   4.534   7.712 -0.2938 -2.1064  0.5752
 2471TIP3    H231609   2.660   4.607   7.717  0.0935 -1.1943 -1.4106
 2472TIP3   OH231610   2.404   3.012   9.235  0.1244 -0.5530 -0.6179
 2472TIP3    H131611   2.391   3.102   9.204 -0.9080 -0.7387 -0.7496
 2472TIP3    H231612   2.437   3.022   9.324 -0.9986 -0.0428 -0.2480
 2473TIP3   OH231613   3.043   6.076   7.872  0.0005 -0.3058  0.6964
 2473TIP3    H131614   2.999   6.073   7.957 -0.0264  0.0760  0.6970
 2473TIP3    H231615   2.976   6.106   7.811  0.8358  2.7674  1.1031
 2474TIP3   OH231616   0.157   1.015   7.418 -0.3610 -0.3045  0.3260
 2474TIP3    H131617   0.088   1.080   7.407 -0.4268 -0.0647  1.9127
 2474TIP3    H231618   0.114   0.941   7.461  0.3289 -0.1803  1.2703
 2475TIP3   OH231619   7.134   0.480   8.366  0.2408  0.0534  0.3650
 2475TIP3    H131620   7.162   0.499   8.456  0.5716 -0.7057  0.4301
 2475TIP3    H231621   7.107   0.565   8.331  1.7623  0.6805  0.6162
 2476TIP3   OH231622   3.404   3.160   8.961  0.1282  0.1430 -0.3338
 2476TIP3    H131623   3.435   3.166   8.871  0.3012 -0.6714 -0.3352
 2476TIP3    H231624   3.461   3.219   9.010  0.7244 -0.2078 -0.5920
 2477TIP3   OH231625   1.901   4.272   7.317  0.2267  0.0074  0.3351
 2477TIP3    H131626   1.961   4.339   7.284 -0.4892  1.0226  1.0639
 2477TIP3    H231627   1.872   4.225   7.239 -0.4107  1.5094 -0.3622
 2478TIP3   OH231628   0.723   0.846   9.523  0.0736  0.2786  0.6256
 2478TIP3    H131629   0.657   0.778   9.536  0.6514  0.0203  2.5668
 2478TIP3    H231630   0.782   0.811   9.457 -0.2415 -0.6521  0.8328
 2479TIP3   OH231631   4.931   1.717   7.894 -0.2629  0.0647 -0.5504
 2479TIP3    H131632   5.022   1.716   7.864 -0.4322 -2.1487 -1.1625
 2479TIP3    H231633   4.881   1.695   7.815 -1.3336  1.0923 -0.1775
 2480TIP3   OH231634   0.507   2.376   7.719 -0.6069  0.3383 -0.4301
 2480TIP3    H131635   0.469   2.295   7.685 -1.0670  0.3455  0.0444
 2480TIP3    H231636   0.595   2.352   7.746 -1.0004 -0.2025  0.4226
 2481TIP3   OH231637   0.775   5.473   8.297 -0.0456  0.4430  0.2981
 2481TIP3    H131638   0.870   5.476   8.306  0.1604  0.1870 -1.4714
 2481TIP3    H231639   0.748   5.399   8.351  0.9554 -0.5154 -0.4675
 2482TIP3   OH231640   2.897   5.345   7.726  0.4584  0.0264 -0.1105
 2482TIP3    H131641   2.953   5.337   7.649 -0.6703  0.6151 -1.0233
 2482TIP3    H231642   2.825   5.401   7.698  0.5751  1.1678  1.7128
 2483TIP3   OH231643   4.190   5.587   8.736  0.6290 -0.0726 -0.2196
 2483TIP3    H131644   4.273   5.540   8.750  0.3047 -0.3403  0.9088
 2483TIP3    H231645   4.156   5.551   8.654 -0.3068 -2.9121  1.2714
 2484TIP3   OH231646   3.802   3.588   8.473 -0.8402  0.4859 -0.6119
 2484TIP3    H131647   3.758   3.570   8.556 -2.7753  0.8464 -1.5227
 2484TIP3    H231648   3.895   3.576   8.493 -1.3659 -1.1455  1.1747
 2485TIP3   OH231649   5.586   4.317   9.208  0.1179  0.4201 -0.6801
 2485TIP3    H131650   5.607   4.358   9.292  0.8480 -0.3923 -0.4511
 2485TIP3    H231651   5.657   4.255   9.193 -0.6720 -0.3655 -1.2861
 2486TIP3   OH231652   7.070   1.421   9.543  0.4598 -0.8265 -0.1694
 2486TIP3    H131653   7.036   1.466   9.620 -2.6002  0.7056 -2.2366
 2486TIP3    H231654   7.012   1.346   9.531  1.0718 -1.2095 -0.8280
 2487TIP3   OH231655   6.006   4.953   8.382 -0.5003 -0.5257 -0.1770
 2487TIP3    H131656   5.938   4.885   8.382  1.3361 -2.5377  2.1545
 2487TIP3    H231657   5.970   5.022   8.437 -1.1447 -1.0452  0.0691
 2488TIP3   OH231658   0.544   4.448   7.736  0.0073 -0.0622  0.2632
 2488TIP3    H131659   0.612   4.451   7.804 -1.2338  0.8073  1.5328
 2488TIP3    H231660   0.504   4.535   7.739 -0.4477 -0.2022 -1.2175
 2489TIP3   OH231661   5.296   4.563   7.117  0.0828 -0.0424  0.2946
 2489TIP3    H131662   5.377   4.517   7.096 -0.2762 -0.9667  0.8911
 2489TIP3    H231663   5.241   4.498   7.161 -0.8296  0.6774  0.2664
 2490TIP3   OH231664   0.314   0.038   8.956  0.1310 -0.3115 -0.1784
 2490TIP3    H131665   0.326  -0.040   9.010  1.3539 -2.4011 -3.2359
 2490TIP3    H231666   0.231   0.023   8.910  0.5628  0.0063 -1.0687
 2491TIP3   OH231667   6.759   7.076   8.924 -0.5632 -0.8252  0.9280
 2491TIP3    H131668   6.716   6.993   8.904  0.7132 -1.3386  0.1809
 2491TIP3    H231669   6.806   7.059   9.006 -1.7818 -0.2400  1.7894
 2492TIP3   OH231670   0.124   6.649   8.707 -0.1497 -0.4763 -0.5277
 2492TIP3    H131671   0.206   6.603   8.727 -1.4964 -2.4196  0.9835
 2492TIP3    H231672   0.056   6.588   8.736 -2.1066  1.8029 -0.0950
 2493TIP3   OH231673   3.434   0.723   9.291 -0.1421 -0.2913 -0.1504
 2493TIP3    H131674   3.383   0.792   9.250 -0.4083 -0.9643 -0.9772
 2493TIP3    H231675   3.421   0.736   9.385 -0.0491  0.8746 -0.2838
 2494TIP3   OH231676   1.284   2.092   7.529  0.2887 -0.1601  0.0297
 2494TIP3    H131677   1.200   2.084   7.484  1.3519  1.1217 -2.3998
 2494TIP3    H231678   1.346   2.045   7.472  1.5693  0.8024  0.5901
 2495TIP3   OH231679   7.136   7.366   8.634 -0.0883 -0.2302  0.4078
 2495TIP3    H131680   7.090   7.316   8.702  1.7921 -0.5165  1.5516
 2495TIP3    H231681   7.133   7.310   8.557 -2.9398  0.4237 -0.0860
 2496TIP3   OH231682   6.402   6.039   7.299  0.1872 -0.3794 -0.2717
 2496TIP3    H131683   6.392   6.096   7.376 -1.4179 -0.3488 -0.4779
 2496TIP3    H231684   6.494   6.013   7.301  0.4171  0.4288  1.0923
 2497TIP3   OH231685   0.862   4.469   9.480  0.4025 -0.7580  0.0013
 2497TIP3    H131686   0.914   4.391   9.496 -0.4013 -1.5312 -1.0424
 2497TIP3    H231687   0.913   4.518   9.415 -0.3434 -1.7374 -1.3705
 2498TIP3   OH231688   4.295   0.574   9.533 -0.1669 -0.1169  0.3473
 2498TIP3    H131689   4.350   0.644   9.568 -0.9095  0.0465  1.2404
 2498TIP3    H231690   4.209   0.616   9.521 -0.2519 -0.5121 -0.4707
 2499TIP3   OH231691   0.101   2.281   9.311 -0.7145  0.5320  0.1417
 2499TIP3    H131692   0.082   2.291   9.218  0.3867 -0.5739 -0.2221
 2499TIP3    H231693   0.023   2.238   9.347 -1.6330  1.9770 -0.0090
 2500TIP3   OH231694   5.872   5.448   8.741 -0.2650  0.1905  0.1827
 2500TIP3    H131695   5.862   5.410   8.828  0.0074 -1.6269 -0.5321
 2500TIP3    H231696   5.783   5.446   8.704 -0.3222  0.6478  0.2918
 2501TIP3   OH231697   4.251   6.559   7.612  0.5014  0.3818 -0.0692
 2501TIP3    H131698   4.186   6.619   7.648  0.4786  1.2380 -1.4712
 2501TIP3    H231699   4.207   6.474   7.609  0.4598  0.3144  1.7259
 2502TIP3   OH231700   4.609   1.179   8.027 -0.2054 -0.4515 -0.7025
 2502TIP3    H131701   4.649   1.197   7.942 -2.7595  2.2444 -1.4653
 2502TIP3    H231702   4.524   1.142   8.007 -1.4913  1.6202  0.5421
 2503TIP3   OH231703   1.004   1.893   8.914  0.0004 -0.5213  0.5109
 2503TIP3    H131704   0.937   1.825   8.902 -0.2185 -0.3568  0.7994
 2503TIP3    H231705   0.959   1.963   8.961  0.3868 -0.4218  0.7316
 2504TIP3   OH231706   7.329   3.212   7.870 -0.4396  0.1948  0.2752
 2504TIP3    H131707   7.347   3.122   7.895 -0.3348 -0.1654 -1.0297
 2504TIP3    H231708   7.396   3.264   7.914  0.1670 -0.4850  0.1598
 2505TIP3   OH231709   1.838   6.345   7.600  0.5158  0.2037  0.0428
 2505TIP3    H131710   1.780   6.420   7.619  0.2512 -0.1249  0.5590
 2505TIP3    H231711   1.839   6.340   7.505 -0.1070  0.3772  0.0166
 2506TIP3   OH231712   6.781   0.931   7.554 -0.0914 -0.0047 -0.2310
 2506TIP3    H131713   6.735   0.945   7.471 -0.9426 -2.6877 -0.2922
 2506TIP3    H231714   6.865   0.892   7.528 -0.1289 -0.3472  0.1633
 2507TIP3   OH231715   0.912   1.369   8.399  0.0853 -0.2613  0.1409
 2507TIP3    H131716   0.958   1.428   8.459 -0.1316 -0.9013  0.9648
 2507TIP3    H231717   0.965   1.370   8.319  0.3515  0.6520  0.3163
 2508TIP3   OH231718   5.270   4.987   9.373  0.6255 -0.0389  0.2660
 2508TIP3    H131719   5.285   5.081   9.369  1.1886 -0.1808 -1.7885
 2508TIP3    H231720   5.185   4.978   9.417 -0.2642  1.5310 -1.0116
 2509TIP3   OH231721   6.844   4.781   8.296  0.4351  0.3891  0.2278
 2509TIP3    H131722   6.826   4.832   8.375  1.9133  0.6373  0.4257
 2509TIP3    H231723   6.881   4.699   8.328  0.6760  0.3302 -0.1967
 2510TIP3   OH231724   1.051   1.986   8.624 -0.0319  0.6396  0.1202
 2510TIP3    H131725   1.024   1.939   8.703  0.6892 -0.2316 -0.1362
 2510TIP3    H231726   1.029   2.077   8.641 -2.1750  0.1265  0.3309
 2511TIP3   OH231727   6.244   7.303   8.643  0.4510  0.3236 -0.2153
 2511TIP3    H131728   6.330   7.321   8.682  0.6280 -0.8132 -0.0523
 2511TIP3    H231729   6.189   7.277   8.717  0.3892 -0.4229 -0.5166
 2512TIP3   OH231730   3.875   4.860   8.026 -0.0700 -0.0119  0.2394
 2512TIP3    H131731   3.828   4.793   7.977  0.7231  0.4329 -1.2005
 2512TIP3    H231732   3.817   4.936   8.025 -1.4100 -0.8745  2.7214
 2513TIP3   OH231733   7.299   4.531   7.609 -0.6206  0.2290  0.1617
 2513TIP3    H131734   7.390   4.517   7.585 -0.0813  1.7974  1.1719
 2513TIP3    H231735   7.251   4.462   7.562  0.9959 -0.2781 -0.8168
 2514TIP3   OH231736   3.551   1.074   9.575 -0.1065  0.4788  0.2530
 2514TIP3    H131737   3.472   1.041   9.618  0.6808 -1.2818  0.4275
 2514TIP3    H231738   3.521   1.105   9.490 -0.8527 -1.0739 -0.0747
 2515TIP3   OH231739   6.077   1.035   8.040  0.6382  0.5914  0.6969
 2515TIP3    H131740   6.139   1.044   8.112  0.8231 -0.3543  0.6686
 2515TIP3    H231741   6.000   1.083   8.069  1.2673  1.5299  0.8592
 2516TIP3   OH231742   5.480   0.769   8.836 -0.5557 -0.0860  0.0361
 2516TIP3    H131743   5.434   0.689   8.862  0.4108 -0.1163  1.8580
 2516TIP3    H231744   5.497   0.814   8.919  2.0537  0.2657 -0.5989
 2517TIP3   OH231745   0.819   5.540   7.092 -0.1480  0.1532 -0.0769
 2517TIP3    H131746   0.778   5.626   7.084  1.8402  1.1624  0.0856
 2517TIP3    H231747   0.857   5.523   7.006 -0.4249 -0.5227 -0.0709
 2518TIP3   OH231748   5.614   1.123   8.392  0.4251 -0.1118 -0.1658
 2518TIP3    H131749   5.564   1.053   8.350  0.5714 -0.7694  0.7291
 2518TIP3    H231750   5.553   1.161   8.456  1.1627 -1.2288  1.2691
 2519TIP3   OH231751   3.916   0.446   9.497  0.7362 -0.8154 -0.1662
 2519TIP3    H131752   3.928   0.356   9.526  0.9642 -0.8502 -0.3659
 2519TIP3    H231753   3.989   0.494   9.538 -0.1304 -0.4712  1.0155
 2520TIP3   OH231754   3.344   3.316   9.462  0.0245 -0.1592 -0.5615
 2520TIP3    H131755   3.316   3.292   9.550 -0.4217 -1.3464 -1.0040
 2520TIP3    H231756   3.325   3.409   9.455  1.2703  0.2599  1.0356
 2521TIP3   OH231757   2.045   7.311   9.557 -0.2537  0.7961  0.4405
 2521TIP3    H131758   1.951   7.322   9.541 -0.4557  0.7670  1.5754
 2521TIP3    H231759   2.050   7.253   9.632  0.6527  1.8302  1.2075
 2522TIP3   OH231760   5.460   0.758   7.028 -0.2375  0.5466  0.0295
 2522TIP3    H131761   5.397   0.691   7.000  0.1202  0.2931 -0.1850
 2522TIP3    H231762   5.523   0.710   7.081 -0.7847  0.9865  1.1182
 2523TIP3   OH231763   6.057   0.401   6.632 -0.8159  0.6101  0.0317
 2523TIP3    H131764   6.011   0.386   6.550 -0.1905 -1.6008  0.0425
 2523TIP3    H231765   6.025   0.487   6.662 -1.2640  1.3223 -2.3369
 2524TIP3   OH231766   6.247   2.534   8.227 -0.1491 -0.0053 -0.1096
 2524TIP3    H131767   6.221   2.610   8.278  1.2114  0.4496 -0.0371
 2524TIP3    H231768   6.187   2.533   8.153 -1.1664  0.2240  0.6866
 2525TIP3   OH231769   2.551   1.663   8.905  0.2083  0.5799  0.3002
 2525TIP3    H131770   2.557   1.688   8.997 -0.1052  0.3665  0.3822
 2525TIP3    H231771   2.458   1.646   8.891  0.4921 -1.4099  0.4945
 2526TIP3   OH231772   0.363   3.091   7.515  0.4810 -0.1440  0.7855
 2526TIP3    H131773   0.392   3.085   7.607 -0.8006 -0.4379  1.1937
 2526TIP3    H231774   0.336   3.002   7.493 -0.8148  0.2507  0.6941
 2527TIP3   OH231775   5.912   5.425   8.376  0.0646  0.6807 -0.0028
 2527TIP3    H131776   5.970   5.376   8.435  0.0167  2.0867  1.2596
 2527TIP3    H231777   5.826   5.386   8.389  0.4742 -0.7013 -1.0894
 2528TIP3   OH231778   3.864   2.713   9.740  0.7004 -0.2257 -0.0978
 2528TIP3    H131779   3.879   2.656   9.815  0.9349  0.7075  0.5880
 2528TIP3    H231780   3.952   2.742   9.715  0.6731 -0.9488 -1.0849
 2529TIP3   OH231781   4.075   5.053   9.626 -0.2329  0.2894 -0.4110
 2529TIP3    H131782   4.157   5.097   9.604 -0.4936 -0.8364 -4.4058
 2529TIP3    H231783   4.102   4.965   9.652 -0.1292  0.3749 -0.2226
 2530TIP3   OH231784   6.025   1.349   8.397 -0.2903  0.3516 -0.2682
 2530TIP3    H131785   5.972   1.288   8.448 -0.0129  0.9523  0.7749
 2530TIP3    H231786   6.051   1.417   8.460  0.9097  0.5774 -0.9748
 2531TIP3   OH231787   7.342   4.032   7.341 -0.0984 -0.2296 -0.0478
 2531TIP3    H131788   7.272   4.095   7.358  1.0429  0.9523  0.4329
 2531TIP3    H231789   7.296   3.949   7.328 -1.6183  0.6152 -0.3550
 2532TIP3   OH231790   6.350   2.756   7.299 -0.2456  0.7317 -0.5979
 2532TIP3    H131791   6.413   2.718   7.237  0.5690  1.2382 -0.1019
 2532TIP3    H231792   6.264   2.731   7.264  0.2215 -1.8844 -0.1091
 2533TIP3   OH231793   1.787   4.945   9.401 -0.4061 -0.0780  0.0762
 2533TIP3    H131794   1.740   5.014   9.355 -1.3127 -0.5756  0.2430
 2533TIP3    H231795   1.722   4.876   9.416  0.3385 -0.7343  0.4134
 2534TIP3   OH231796   7.358   5.141   7.641  0.8255 -0.2720 -0.3738
 2534TIP3    H131797   7.292   5.109   7.580 -2.0081  0.7167  1.9159
 2534TIP3    H231798   7.394   5.061   7.681  0.7832 -0.8201 -1.3878
 2535TIP3   OH231799   0.296   3.906   8.874  0.1114  0.0524  0.1365
 2535TIP3    H131800   0.357   3.909   8.948 -3.6857 -0.1509  3.6473
 2535TIP3    H231801   0.293   3.813   8.849  1.6916  0.1767 -0.6138
 2536TIP3   OH231802   7.206   2.806   8.103 -0.2785 -0.0079  0.3110
 2536TIP3    H131803   7.124   2.759   8.120  0.9673 -2.2316  0.6172
 2536TIP3    H231804   7.240   2.827   8.190 -0.9045  1.6926  0.1712
 2537TIP3   OH231805   2.224   3.344   8.988 -0.5783 -0.3235 -0.5177
 2537TIP3    H131806   2.189   3.304   9.068 -0.3451  0.2160 -0.1410
 2537TIP3    H231807   2.295   3.400   9.019 -0.2918 -0.3417 -1.1380
 2538TIP3   OH231808   0.393   4.566   8.227  0.0285  0.9052  0.3983
 2538TIP3    H131809   0.364   4.484   8.187  0.2045  1.4188 -0.8047
 2538TIP3    H231810   0.477   4.545   8.268  1.3608  1.0576 -2.1025
 2539TIP3   OH231811   6.568   5.987   8.541 -0.2346  0.0477  0.0102
 2539TIP3    H131812   6.491   5.985   8.486 -0.9626  1.4648  0.9152
 2539TIP3    H231813   6.535   5.977   8.630  0.7805 -0.8791  0.3083
 2540TIP3   OH231814   2.187   3.641   8.175 -0.2275  0.4956 -1.0205
 2540TIP3    H131815   2.152   3.553   8.173 -2.4661  1.3371 -1.2930
 2540TIP3    H231816   2.152   3.683   8.096 -1.3377  2.3630  0.3758
 2541TIP3   OH231817   3.020   2.432   9.426  0.4095 -0.5553 -0.2079
 2541TIP3    H131818   2.980   2.387   9.351  0.8364  0.6822 -1.2163
 2541TIP3    H231819   3.103   2.388   9.440  0.4508 -0.6179 -0.6459
 2542TIP3   OH231820   1.673   0.739   9.232 -0.7975 -1.0819  0.0978
 2542TIP3    H131821   1.694   0.696   9.150  1.1932 -0.8396  0.4264
 2542TIP3    H231822   1.683   0.671   9.299  1.1043 -0.4948  0.4788
 2543TIP3   OH231823   4.642   1.063   8.873  0.7070  0.4240  0.0087
 2543TIP3    H131824   4.550   1.083   8.859  0.4141 -1.4305 -1.0731
 2543TIP3    H231825   4.672   1.130   8.935 -0.9068  2.1056 -0.9031
 2544TIP3   OH231826   2.415   4.528   9.372 -0.4549  0.3655 -0.0722
 2544TIP3    H131827   2.365   4.455   9.337  1.1201 -0.6199 -0.3866
 2544TIP3    H231828   2.413   4.594   9.302  0.3394 -0.4722 -0.9150
 2545TIP3   OH231829   5.338   6.465   8.244 -0.0672  0.0205  1.0056
 2545TIP3    H131830   5.371   6.552   8.223  2.0300 -0.7479  0.8697
 2545TIP3    H231831   5.410   6.423   8.291 -0.8617 -1.7777  0.6880
 2546TIP3   OH231832   2.733   2.409   6.633  0.2096  0.0541 -0.0817
 2546TIP3    H131833   2.710   2.325   6.673 -0.8299  0.6963  0.7333
 2546TIP3    H231834   2.802   2.444   6.688 -0.7071  0.5984  0.7586
 2547TIP3   OH231835   3.586   7.564   7.581  0.4537  0.0789 -0.1661
 2547TIP3    H131836   3.590   7.484   7.635  0.8712 -0.5435 -1.0985
 2547TIP3    H231837   3.670   7.566   7.536  0.7416  1.4572  0.4010
 2548TIP3   OH231838   3.485   5.912   9.539  0.3212 -0.5288 -0.0203
 2548TIP3    H131839   3.508   5.984   9.599 -2.2373 -1.3659  2.1780
 2548TIP3    H231840   3.416   5.948   9.484  0.4261 -0.7378 -0.2911
 2549TIP3   OH231841   5.033   6.834   8.810  0.0830 -0.5796  0.1394
 2549TIP3    H131842   5.102   6.820   8.746 -1.0035  0.3143 -1.3088
 2549TIP3    H231843   4.989   6.914   8.781 -1.8793 -1.3922  0.6825
 2550TIP3   OH231844   4.791   3.789   8.494  0.2368  0.0796  0.8307
 2550TIP3    H131845   4.806   3.715   8.436 -1.9223  0.1361  0.0961
 2550TIP3    H231846   4.817   3.757   8.581  2.8320 -0.2436  0.0003
 2551TIP3   OH231847   1.246   0.186   8.765 -1.1459  0.2850  0.4212
 2551TIP3    H131848   1.318   0.201   8.704 -0.5111  0.4854  1.1936
 2551TIP3    H231849   1.191   0.121   8.722 -1.0782  0.9000 -0.6488
 2552TIP3   OH231850   6.259   4.190   6.870  0.1223 -0.0244  0.5347
 2552TIP3    H131851   6.166   4.180   6.852 -0.1208 -0.0992  1.7894
 2552TIP3    H231852   6.263   4.252   6.943  1.0290 -0.5412  0.9354
 2553TIP3   OH231853   0.336   2.498   7.903  0.3382  0.5675 -0.2556
 2553TIP3    H131854   0.407   2.534   7.956  0.4277 -0.2351  0.1896
 2553TIP3    H231855   0.379   2.437   7.844  0.0773  0.4427 -0.3165
 2554TIP3   OH231856   2.090   5.954   7.327  0.4392  0.5200 -0.0545
 2554TIP3    H131857   2.029   5.884   7.304 -0.1949  0.9188  0.3968
 2554TIP3    H231858   2.057   6.031   7.281  0.3244  0.8487  0.5630
 2555TIP3   OH231859   3.193   2.839   9.316 -0.6362  0.0876 -0.2927
 2555TIP3    H131860   3.274   2.819   9.362 -1.6942 -1.6100  0.9741
 2555TIP3    H231861   3.189   2.935   9.315  1.5341  0.2272 -0.7423
 2556TIP3   OH231862   5.589   6.375   8.311  0.3040  0.1947  0.0620
 2556TIP3    H131863   5.623   6.305   8.255  1.7022  0.7501  0.1595
 2556TIP3    H231864   5.667   6.423   8.339 -0.5961  1.6002  0.2658
 2557TIP3   OH231865   2.706   6.381   8.256  0.0016  0.2740 -0.2731
 2557TIP3    H131866   2.650   6.384   8.179  0.3367 -0.4148 -0.5545
 2557TIP3    H231867   2.682   6.300   8.300  0.4786  0.1864 -0.1687
 2558TIP3   OH231868   4.446   3.114   7.662 -0.3805  0.8307 -0.3660
 2558TIP3    H131869   4.417   3.167   7.737 -0.2404  0.0269  0.2700
 2558TIP3    H231870   4.493   3.176   7.606  0.4764  1.2467  0.7502
 2559TIP3   OH231871   1.922   2.828   7.960  0.0063  0.3538 -0.1147
 2559TIP3    H131872   2.017   2.826   7.971 -0.0343  1.1394  0.5324
 2559TIP3    H231873   1.892   2.891   8.026 -0.9184  0.4829 -0.6437
 2560TIP3   OH231874   0.472   6.806   9.298  0.2475  0.1806  0.4841
 2560TIP3    H131875   0.390   6.837   9.261  0.8371  0.6484 -0.4542
 2560TIP3    H231876   0.447   6.771   9.384 -0.5880  2.4024  1.2240
 2561TIP3   OH231877   6.738   6.336   9.206 -0.4784  0.2949  0.7433
 2561TIP3    H131878   6.812   6.319   9.147  0.4550  1.1992  1.6085
 2561TIP3    H231879   6.766   6.410   9.259 -1.8165  0.3286  1.4526
 2562TIP3   OH231880   5.200   4.253   8.931  0.5917  0.2515  0.3216
 2562TIP3    H131881   5.112   4.214   8.931  0.8775 -0.4427 -0.7760
 2562TIP3    H231882   5.186   4.342   8.898  0.4111 -0.1917 -0.8632
 2563TIP3   OH231883   6.487   5.960   9.125 -0.8734  0.0196 -0.0984
 2563TIP3    H131884   6.579   5.949   9.100 -0.6807  0.6912  0.3060
 2563TIP3    H231885   6.488   6.029   9.191 -1.3626 -1.8158  1.9103
 2564TIP3   OH231886   5.656   3.255   7.205  0.0611 -1.1545  0.0416
 2564TIP3    H131887   5.565   3.244   7.180  0.2441 -1.9826 -0.2825
 2564TIP3    H231888   5.702   3.268   7.121  0.1443  0.1082  0.2505
 2565TIP3   OH231889   1.183   4.075   7.932  0.2411  0.3597  0.2995
 2565TIP3    H131890   1.087   4.079   7.932  0.1568 -1.2205 -0.3820
 2565TIP3    H231891   1.204   3.992   7.890  1.8249 -1.1179  3.6604
 2566TIP3   OH231892   0.488   6.287   7.518  0.2514  0.6035  0.0322
 2566TIP3    H131893   0.564   6.258   7.467  0.0603  1.3799 -0.7164
 2566TIP3    H231894   0.453   6.362   7.469  0.5123  1.8796  1.6908
 2567TIP3   OH231895   6.382   1.640   8.449  0.1244 -0.3139  0.0204
 2567TIP3    H131896   6.292   1.659   8.420  0.3052  1.2057  0.3972
 2567TIP3    H231897   6.421   1.594   8.375  0.1093  2.1467 -1.6244
 2568TIP3   OH231898   3.255   0.830   8.062  0.5186  0.0697  0.4086
 2568TIP3    H131899   3.214   0.898   8.009  0.8536 -1.0332 -1.3534
 2568TIP3    H231900   3.186   0.802   8.123 -0.3604  0.3706 -0.4219
 2569TIP3   OH231901   4.740   2.632   7.274  0.0061  0.0318 -0.1070
 2569TIP3    H131902   4.728   2.709   7.218  0.6853 -0.9184 -1.6041
 2569TIP3    H231903   4.835   2.622   7.281 -0.0688 -0.1101  0.9099
 2570TIP3   OH231904   1.860   4.422   7.640 -0.2533 -0.0831 -0.2809
 2570TIP3    H131905   1.863   4.341   7.691  0.6078  0.6358  0.8667
 2570TIP3    H231906   1.950   4.434   7.610 -0.6579 -0.2605 -1.6449
 2571TIP3   OH231907   7.044   0.840   7.535 -0.5264  0.4257 -0.2868
 2571TIP3    H131908   7.045   0.744   7.535 -0.0918  0.3706 -2.6990
 2571TIP3    H231909   7.091   0.864   7.614  0.5516 -1.3709 -0.3203
 2572TIP3   OH231910   4.092   4.100   8.759 -0.0834  0.5731  0.0799
 2572TIP3    H131911   4.019   4.075   8.701  1.1393  0.3698 -1.4453
 2572TIP3    H231912   4.085   4.040   8.833 -0.6652 -0.3630 -0.6981
 2573TIP3   OH231913   0.313   5.817   9.020  0.1808  0.1597 -0.5581
 2573TIP3    H131914   0.346   5.790   8.934  1.1831  0.7409 -0.3804
 2573TIP3    H231915   0.365   5.766   9.082  0.5501  0.8736 -0.2724
 2574TIP3   OH231916   1.126   5.716   7.850 -0.0047 -0.3690 -0.1358
 2574TIP3    H131917   1.112   5.723   7.945 -0.0983  1.9554 -0.2610
 2574TIP3    H231918   1.062   5.651   7.821 -1.0686  0.0389  1.1886
 2575TIP3   OH231919   0.672   6.021   7.503  0.5186  0.2406  0.5740
 2575TIP3    H131920   0.722   6.082   7.450  1.3721 -0.8630  0.0512
 2575TIP3    H231921   0.714   5.936   7.487  0.0787 -0.3097  2.1267
 2576TIP3   OH231922   1.264   1.909   6.884 -0.2844  0.1076  0.7219
 2576TIP3    H131923   1.271   1.884   6.976  2.1292 -1.0437  0.3125
 2576TIP3    H231924   1.348   1.950   6.864  0.8351 -3.0192 -1.8161
 2577TIP3   OH231925   0.543   5.676   8.878 -0.4184 -0.8290  0.3734
 2577TIP3    H131926   0.474   5.617   8.848 -1.1857 -1.0857  2.4746
 2577TIP3    H231927   0.608   5.619   8.919 -0.6127 -0.3468  1.3998
 2578TIP3   OH231928   0.810   7.006   8.972  0.2048  0.1068 -0.1136
 2578TIP3    H131929   0.896   7.016   9.014  0.2355  1.0297 -0.3758
 2578TIP3    H231930   0.759   6.955   9.034  1.8345 -3.1840 -1.2183
 2579TIP3   OH231931   6.334   0.484   9.567 -0.0928  0.7842 -0.8336
 2579TIP3    H131932   6.404   0.424   9.592 -0.3071  0.2352 -1.5330
 2579TIP3    H231933   6.270   0.429   9.521  1.0681  1.9572 -4.1940
 2580TIP3   OH231934   3.694   5.565   7.816  0.9523  0.1353 -0.2512
 2580TIP3    H131935   3.726   5.617   7.890  1.2944 -0.2584 -0.1150
 2580TIP3    H231936   3.625   5.511   7.853  0.0870  1.0152 -0.5554
 2581TIP3   OH231937   3.269   0.069   9.064 -0.1456  0.4741  0.6946
 2581TIP3    H131938   3.218   0.127   9.007  0.3981  1.0474  0.7766
 2581TIP3    H231939   3.336   0.033   9.006 -1.2431 -1.0929  0.3369
 2582TIP3   OH231940   0.244   4.744   7.583 -0.3118 -0.4108  0.5722
 2582TIP3    H131941   0.311   4.812   7.583 -0.0487 -0.6544 -0.2619
 2582TIP3    H231942   0.164   4.789   7.555 -0.2363 -0.3570  0.4420
 2583TIP3   OH231943   0.457   1.345   8.023  0.4620  0.2746  0.0523
 2583TIP3    H131944   0.391   1.287   7.985  0.7682  0.3749 -0.6540
 2583TIP3    H231945   0.443   1.429   7.979  0.6000  0.4913  0.4195
 2584TIP3   OH231946   1.499   2.850   7.840 -0.2678  0.2422 -0.3486
 2584TIP3    H131947   1.520   2.908   7.914 -1.9591  0.9095 -0.3528
 2584TIP3    H231948   1.522   2.901   7.763 -0.2011  0.2453 -0.3273
 2585TIP3   OH231949   2.837   7.175   8.138  0.7857  0.1097  0.0818
 2585TIP3    H131950   2.843   7.237   8.065  0.2475  0.9384  0.7293
 2585TIP3    H231951   2.918   7.124   8.131  1.0865  0.6509 -0.6633
 2586TIP3   OH231952   7.247   3.154   9.178 -0.7341 -0.3109  0.0874
 2586TIP3    H131953   7.300   3.132   9.255 -0.3087 -1.8091 -0.5979
 2586TIP3    H231954   7.311   3.167   9.108 -1.1878 -0.6715 -0.4067
 2587TIP3   OH231955   0.064   6.139   7.619  1.0104  0.2718 -0.0314
 2587TIP3    H131956   0.055   6.176   7.707 -1.3820  0.5257 -0.3040
 2587TIP3    H231957   0.037   6.210   7.561  2.4767  0.0698 -1.0100
 2588TIP3   OH231958   6.185   6.964   9.066 -0.0395 -0.5249 -1.0105
 2588TIP3    H131959   6.145   6.893   9.118  0.8557 -1.6889 -1.8537
 2588TIP3    H231960   6.124   6.978   8.994 -0.7141  0.2952 -0.3103
 2589TIP3   OH231961   0.227   2.667   7.709  0.4466  0.0091  0.1960
 2589TIP3    H131962   0.255   2.605   7.776  0.2345 -0.3499 -0.0471
 2589TIP3    H231963   0.270   2.638   7.629 -1.5214 -1.2781 -0.4589
 2590TIP3   OH231964   0.783   3.592   8.133  0.1110 -0.2518 -0.3102
 2590TIP3    H131965   0.700   3.602   8.085 -0.1837 -1.4491 -0.0853
 2590TIP3    H231966   0.767   3.519   8.193  0.8944  0.3980  0.7150
 2591TIP3   OH231967   2.914   6.477   9.698  0.4119  0.2966 -0.1824
 2591TIP3    H131968   2.829   6.434   9.710 -0.0491  1.3850  0.5958
 2591TIP3    H231969   2.893   6.570   9.694  1.7129  0.7339  1.8634
 2592TIP3   OH231970   3.642   6.801   9.619 -0.3039  0.6638 -0.4136
 2592TIP3    H131971   3.713   6.790   9.681 -0.7686  0.1460  0.0414
 2592TIP3    H231972   3.593   6.719   9.624 -0.3420  0.6033 -1.4744
 2593TIP3   OH231973   7.395   5.767   8.577  0.1539  0.3192  0.7276
 2593TIP3    H131974   7.407   5.815   8.659  0.3381  1.2914  0.1368
 2593TIP3    H231975   7.481   5.770   8.535  0.0981 -0.3089  0.5603
 2594TIP3   OH231976   5.565   5.093   7.226 -0.1872 -0.4363  0.0722
 2594TIP3    H131977   5.654   5.117   7.200 -0.5425 -0.4352 -1.1901
 2594TIP3    H231978   5.529   5.173   7.263 -0.4985  0.3081 -1.7490
 2595TIP3   OH231979   0.684   1.586   7.271 -0.3453 -0.0214 -0.2268
 2595TIP3    H131980   0.637   1.533   7.206 -0.7089  2.3412 -1.9951
 2595TIP3    H231981   0.620   1.602   7.340 -0.4711 -1.1692 -0.0596
 2596TIP3   OH231982   4.078   4.694   8.099  1.0981 -0.5418 -0.5981
 2596TIP3    H131983   3.993   4.739   8.092  1.1068 -0.2175  1.0387
 2596TIP3    H231984   4.099   4.669   8.009 -0.6547 -0.4865 -1.0576
 2597TIP3   OH231985   1.439   1.312   6.845  0.3240 -0.2490  0.3822
 2597TIP3    H131986   1.505   1.325   6.777 -1.2337  0.3012 -1.1026
 2597TIP3    H231987   1.377   1.384   6.832  0.5072  0.4668  3.0770
 2598TIP3   OH231988   1.389   4.915   8.344 -0.1398  0.2562  0.5309
 2598TIP3    H131989   1.448   4.843   8.364 -1.6426 -1.0013  0.6531
 2598TIP3    H231990   1.444   4.980   8.299  0.7454 -2.1249 -2.1156
 2599TIP3   OH231991   3.293   2.036   9.543  0.0988 -0.0044 -0.5433
 2599TIP3    H131992   3.218   1.983   9.517  0.4403 -1.1098  0.6278
 2599TIP3    H231993   3.370   1.983   9.519  0.5499  1.2793 -2.0892
 2600TIP3   OH231994   4.321   6.156   8.742  0.0206  0.0171  0.0823
 2600TIP3    H131995   4.290   6.074   8.703 -0.8110  0.5553 -0.4125
 2600TIP3    H231996   4.369   6.129   8.820  0.1338 -0.9674 -0.3161
 2601TIP3   OH231997   2.098   0.164   9.148  0.1983  0.0975 -0.3959
 2601TIP3    H131998   2.155   0.238   9.127  0.2806 -0.1202 -0.9534
 2601TIP3    H231999   2.133   0.129   9.230  1.9967 -1.1252 -1.6149
 2602TIP3   OH232000   4.517   4.468   9.482  0.1124 -0.0575  0.0879
 2602TIP3    H132001   4.440   4.498   9.433 -1.0941 -1.0314  1.3182
 2602TIP3    H232002   4.510   4.373   9.482  1.0281 -0.1333  0.6855
 2603TIP3   OH232003   6.053   0.180   7.876 -0.8143 -0.0010 -0.2862
 2603TIP3    H132004   5.980   0.121   7.860 -1.6107  1.2121 -1.3686
 2603TIP3    H232005   6.014   0.257   7.918  0.1180 -0.0095  0.6613
 2604TIP3   OH232006   2.614   2.295   8.745  0.5313 -0.6287  0.1584
 2604TIP3    H132007   2.556   2.274   8.672 -1.0382 -1.2290  1.5112
 2604TIP3    H232008   2.658   2.376   8.719 -1.2594  0.1028 -0.7332
 2605TIP3   OH232009   1.794   1.509   8.460  0.0508  0.5699 -0.2932
 2605TIP3    H132010   1.860   1.527   8.526  1.3444 -0.0795 -1.3547
 2605TIP3    H232011   1.842   1.512   8.377 -1.2605  0.1246 -1.1016
 2606TIP3   OH232012   0.759   5.802   6.999  0.0639  0.0071 -0.2210
 2606TIP3    H132013   0.839   5.852   7.017 -0.2305  1.2935 -2.1351
 2606TIP3    H232014   0.688   5.866   7.006 -0.7522 -0.9576  0.7238
 2607TIP3   OH232015   4.135   3.929   8.965 -0.0950  0.0742 -0.2031
 2607TIP3    H132016   4.071   3.890   9.025 -0.6004  1.0841 -0.0663
 2607TIP3    H232017   4.159   3.858   8.906 -0.1958 -0.7292  0.6902
 2608TIP3   OH232018   2.561   1.235   7.654 -0.4681 -0.1577 -0.0829
 2608TIP3    H132019   2.647   1.193   7.650  0.4257  1.6102 -0.1883
 2608TIP3    H232020   2.580   1.328   7.662 -2.3814  0.3887 -1.2931
 2609TIP3   OH232021   0.249   6.392   7.972  0.4184  0.1631  0.2465
 2609TIP3    H132022   0.267   6.409   7.879  0.5351 -0.6270  0.1248
 2609TIP3    H232023   0.308   6.451   8.019  1.5618 -0.6213 -0.1634
 2610TIP3   OH232024   1.145   4.021   9.091 -0.3610  0.8292  0.1470
 2610TIP3    H132025   1.191   4.052   9.013  0.6597 -0.2318  0.3032
 2610TIP3    H232026   1.160   4.088   9.157  1.0984  0.4551  0.2288
 2611TIP3   OH232027   6.027   0.649   7.163 -0.1561 -0.2414 -0.5830
 2611TIP3    H132028   6.013   0.575   7.222 -0.5775 -0.0867 -0.4837
 2611TIP3    H232029   6.121   0.661   7.160 -0.0725 -0.8985 -0.7371
 2612TIP3   OH232030   2.295   5.433   8.276  0.3622 -0.0095  0.4651
 2612TIP3    H132031   2.350   5.497   8.322 -0.2705 -0.5016  1.9903
 2612TIP3    H232032   2.337   5.349   8.293 -0.1321 -0.2450  0.5406
 2613TIP3   OH232033   3.315   1.487   8.915 -0.2097 -0.4577  0.4072
 2613TIP3    H132034   3.367   1.437   8.979  1.5841 -0.8372 -1.2298
 2613TIP3    H232035   3.232   1.440   8.910  0.2141 -1.3477  1.2805
 2614TIP3   OH232036   6.908   6.565   6.958 -0.6301 -0.2573  0.2441
 2614TIP3    H132037   6.924   6.616   6.879 -1.6450  0.7100  0.6340
 2614TIP3    H232038   6.955   6.483   6.944 -0.1342  0.2194 -1.0102
 2615TIP3   OH232039   4.413   1.670   9.167 -0.9738 -0.0170 -0.1781
 2615TIP3    H132040   4.397   1.641   9.078  0.0516 -0.4381 -0.2391
 2615TIP3    H232041   4.465   1.600   9.207 -0.9579  0.4055  0.5756
 2616TIP3   OH232042   0.971   4.092   8.792 -0.0164  0.1966  0.6304
 2616TIP3    H132043   1.064   4.103   8.813 -0.0384  1.5940  0.1437
 2616TIP3    H232044   0.928   4.164   8.838 -0.5204  1.0625 -1.1094
 2617TIP3   OH232045   4.632   0.107   9.279  0.4728 -0.2080 -0.7177
 2617TIP3    H132046   4.604   0.087   9.368  2.2019 -0.3503 -0.1730
 2617TIP3    H232047   4.580   0.049   9.223 -1.0633  0.3101  0.1101
 2618TIP3   OH232048   0.142   6.309   7.409 -0.6654 -0.1133 -0.4160
 2618TIP3    H132049   0.080   6.277   7.343  1.5847 -0.9797 -2.2646
 2618TIP3    H232050   0.166   6.397   7.379  2.1200 -1.3497 -2.2906
 2619TIP3   OH232051   1.583   1.694   8.917  0.0007  0.4358  0.5957
 2619TIP3    H132052   1.591   1.785   8.892 -1.9973  0.6036  0.4028
 2619TIP3    H232053   1.554   1.697   9.009 -0.1003  0.0039  0.5818
 2620TIP3   OH232054   7.102   7.185   7.652  0.4109  0.0923  0.3443
 2620TIP3    H132055   7.088   7.248   7.722 -2.1656 -0.1622  0.1708
 2620TIP3    H232056   7.125   7.104   7.698 -0.4010  0.1448  0.8814
 2621TIP3   OH232057   5.239   3.709   9.022 -0.4876  0.2422  0.1718
 2621TIP3    H132058   5.291   3.629   9.019 -0.1738  0.4658 -1.1625
 2621TIP3    H232059   5.302   3.779   9.037 -0.7551  0.2617  1.2817
 2622TIP3   OH232060   4.258   7.501   9.655  0.1826  0.1853 -0.3844
 2622TIP3    H132061   4.215   7.562   9.715 -0.0513 -1.1447  0.8427
 2622TIP3    H232062   4.217   7.416   9.673  0.7648 -0.4328 -1.7885
 2623TIP3   OH232063   1.951   5.669   7.439 -0.2491  0.2003 -0.0607
 2623TIP3    H132064   1.877   5.691   7.382 -0.9897 -0.5427  0.5734
 2623TIP3    H232065   1.937   5.723   7.517 -0.7085 -0.6774  0.4806
 2624TIP3   OH232066   3.444   6.581   9.639  0.1982 -0.4785  0.5038
 2624TIP3    H132067   3.425   6.521   9.567 -0.9699  1.2308 -0.6903
 2624TIP3    H232068   3.371   6.569   9.700 -0.0656 -0.2250  0.2385
 2625TIP3   OH232069   3.205   0.114   6.467  0.8456  0.1262 -0.1978
 2625TIP3    H132070   3.241   0.030   6.440  1.5384  0.9499 -2.0922
 2625TIP3    H232071   3.113   0.110   6.441  0.5932 -0.4273  0.7394
 2626TIP3   OH232072   5.258   6.207   8.110 -0.0783 -0.1109 -0.1190
 2626TIP3    H132073   5.250   6.284   8.167 -1.5080 -1.8390  2.1721
 2626TIP3    H232074   5.287   6.137   8.168  0.0120 -1.6093 -1.8924
 2627TIP3   OH232075   2.859   2.852   8.556 -0.0312  0.3550 -0.4068
 2627TIP3    H132076   2.861   2.948   8.561 -0.2520  0.3136  1.5416
 2627TIP3    H232077   2.786   2.832   8.497 -0.5258  1.3939 -0.1713
 2628TIP3   OH232078   5.597   6.839   8.641  0.4717 -0.1706  0.2861
 2628TIP3    H132079   5.559   6.754   8.623  0.7029 -0.3582  0.6671
 2628TIP3    H232080   5.691   6.822   8.651  0.3398 -0.1255  1.8536
 2629TIP3   OH232081   3.422   4.405   7.923 -0.4171  0.3618  0.2700
 2629TIP3    H132082   3.382   4.376   8.005  1.3473 -0.5533  0.8452
 2629TIP3    H232083   3.467   4.486   7.945  1.2272 -0.5997  0.5883
 2630TIP3   OH232084   3.091   6.637   9.496 -0.0402  0.0992  0.6464
 2630TIP3    H132085   3.127   6.575   9.433  1.4585  0.9511  0.6053
 2630TIP3    H232086   3.050   6.583   9.563 -0.2271 -0.8704 -0.2322
 2631TIP3   OH232087   3.485   1.220   7.801 -0.1307 -0.3768 -0.2041
 2631TIP3    H132088   3.464   1.303   7.845  0.9764 -0.5767  0.7595
 2631TIP3    H232089   3.409   1.164   7.819  0.1024 -0.3013  1.0939
 2632TIP3   OH232090   5.242   0.125   9.477 -0.4687  0.4995 -0.0654
 2632TIP3    H132091   5.186   0.074   9.535 -1.0268 -0.6933 -1.5745
 2632TIP3    H232092   5.206   0.214   9.480 -1.0098  0.2602  0.7321
 2633TIP3   OH232093   6.456   7.358   7.890  0.5119  0.2932  0.0342
 2633TIP3    H132094   6.525   7.425   7.899  1.2657 -0.4228 -0.2959
 2633TIP3    H232095   6.427   7.365   7.799  0.2387  0.4979  0.1348
 2634TIP3   OH232096   3.425   2.828   8.654 -0.0193 -0.3108  0.8552
 2634TIP3    H132097   3.369   2.777   8.713  0.9811 -0.1822  1.9709
 2634TIP3    H232098   3.497   2.768   8.632  1.1162  0.5304  2.0965
 2635TIP3   OH232099   5.835   2.810   7.760 -0.3563  0.3056 -0.1239
 2635TIP3    H132100   5.777   2.819   7.684  0.6756  0.3005 -0.9418
 2635TIP3    H232101   5.905   2.874   7.744  1.5382 -1.8083 -0.7642
 2636TIP3   OH232102   1.440   0.241   8.573 -0.1239  0.1976  0.2556
 2636TIP3    H132103   1.393   0.195   8.503  3.0601 -0.4381 -1.6811
 2636TIP3    H232104   1.455   0.329   8.538  0.4842  0.2379  0.5984
 2637TIP3   OH232105   7.249   7.420   8.261 -0.1904 -0.1223 -0.1676
 2637TIP3    H132106   7.194   7.389   8.333 -0.2935  0.7263  0.1381
 2637TIP3    H232107   7.186   7.454   8.197 -0.0703 -0.2740 -0.3640
 2638TIP3   OH232108   4.435   0.061   8.763  0.4274 -0.1822  0.0580
 2638TIP3    H132109   4.490  -0.008   8.727 -0.8186 -1.6478  0.8241
 2638TIP3    H232110   4.363   0.014   8.806 -1.3326  1.6163 -0.7510
 2639TIP3   OH232111   1.558   0.612   7.118  0.1105  0.0653  0.3450
 2639TIP3    H132112   1.608   0.531   7.109 -0.2960 -0.2024  0.4857
 2639TIP3    H232113   1.541   0.620   7.211 -0.5826 -0.1374  0.2421
 2640TIP3   OH232114   2.018   3.857   7.721 -0.3822  0.1714 -0.4899
 2640TIP3    H132115   1.960   3.798   7.672  0.4245 -1.1269  0.0566
 2640TIP3    H232116   2.074   3.798   7.772  0.0048  1.4486  0.6055
 2641TIP3   OH232117   0.474   4.119   7.637  0.1042  0.5739 -0.5932
 2641TIP3    H132118   0.386   4.083   7.624 -0.1101  1.5384 -2.1889
 2641TIP3    H232119   0.531   4.058   7.591  0.5608 -1.0135  1.8962
 2642TIP3   OH232120   5.854   5.925   7.534  0.3882 -0.0759  0.6546
 2642TIP3    H132121   5.901   5.876   7.601  0.9096 -0.9277 -0.2917
 2642TIP3    H232122   5.919   5.988   7.502  0.4357 -0.2805  0.3416
 2643TIP3   OH232123   7.409   1.583   7.760  0.0663 -0.4764  0.0997
 2643TIP3    H132124   7.464   1.511   7.729  0.8128 -0.0604  0.4303
 2643TIP3    H232125   7.329   1.541   7.792 -1.3789 -0.8748 -3.5395
 2644TIP3   OH232126   5.273   0.165   7.580 -0.0471  0.1669 -0.2034
 2644TIP3    H132127   5.338   0.107   7.619  0.1426  1.5130  1.5870
 2644TIP3    H232128   5.288   0.157   7.485  2.8098  0.5271  0.1265
 2645TIP3   OH232129   3.349   6.040   6.753  0.4294 -0.3118 -0.5115
 2645TIP3    H132130   3.419   6.097   6.723  0.8518 -1.2161 -1.3287
 2645TIP3    H232131   3.392   5.957   6.774 -0.3056 -0.6968 -0.4528
 2646TIP3   OH232132   1.001   6.165   7.512 -0.3223  0.6289 -0.0920
 2646TIP3    H132133   1.048   6.107   7.573  0.2096 -1.0211 -1.9657
 2646TIP3    H232134   0.961   6.105   7.449  0.9262  2.2907 -2.6236
 2647TIP3   OH232135   4.783   2.203   8.406  0.0917 -0.0001  0.3809
 2647TIP3    H132136   4.863   2.154   8.388 -0.1919  0.0856 -1.2678
 2647TIP3    H232137   4.716   2.160   8.353 -0.7148  0.6208  0.8673
 2648TIP3   OH232138   0.681   0.403   9.461 -0.1713  0.1855  0.3479
 2648TIP3    H132139   0.644   0.393   9.374 -0.8684 -0.5843  0.7217
 2648TIP3    H232140   0.687   0.314   9.496 -0.0379  0.4929  1.1416
 2649TIP3   OH232141   7.177   7.183   7.959  0.0476 -0.1858  0.2557
 2649TIP3    H132142   7.269   7.186   7.934  0.3257  3.7699  1.1118
 2649TIP3    H232143   7.139   7.262   7.921 -2.5853 -0.8037  1.3798
 2650TIP3   OH232144   1.464   4.777   7.993  0.8284  0.0485  0.0882
 2650TIP3    H132145   1.448   4.698   7.942 -0.2499 -0.5175  1.2260
 2650TIP3    H232146   1.552   4.767   8.028  0.1833 -1.4034  1.4160
 2651TIP3   OH232147   4.203   4.163   7.967  0.0479  0.1167  0.4328
 2651TIP3    H132148   4.218   4.256   7.982  0.8232  0.3187 -1.3860
 2651TIP3    H232149   4.139   4.138   8.034 -0.5621  2.0655  0.6380
 2652TIP3   OH232150   7.547   0.250   9.415  0.1169 -0.0230 -0.1110
 2652TIP3    H132151   7.596   0.181   9.458  1.2315  1.9368  1.9768
 2652TIP3    H232152   7.551   0.228   9.322  1.0426 -2.3227  0.4121
 2653TIP3   OH232153   0.714   7.073   8.203  0.1041 -0.3687  0.2052
 2653TIP3    H132154   0.768   7.072   8.282 -0.0290 -1.5242  0.3008
 2653TIP3    H232155   0.744   7.150   8.154  0.7715 -0.1291  0.9695
 2654TIP3   OH232156   5.355   3.144   7.679  0.1429 -0.5965  0.3989
 2654TIP3    H132157   5.280   3.129   7.737  0.8884  0.2540  1.6324
 2654TIP3    H232158   5.378   3.235   7.693 -2.0358  1.0079 -4.1748
 2655TIP3   OH232159   2.107   6.771   8.875 -0.3772  0.7542  0.1377
 2655TIP3    H132160   2.175   6.757   8.810 -2.1735 -0.2995 -1.6250
 2655TIP3    H232161   2.101   6.866   8.883  1.1306  0.8613  0.1653
 2656TIP3   OH232162   4.917   4.839   9.138 -0.8138 -0.0896 -0.4707
 2656TIP3    H132163   4.879   4.766   9.089 -1.2232 -0.7132  0.7493
 2656TIP3    H232164   5.009   4.840   9.111 -0.6827 -1.3732 -0.1423
 2657TIP3   OH232165   1.835   4.885   6.831  0.3025 -0.5429 -0.1923
 2657TIP3    H132166   1.873   4.803   6.800  0.2852 -1.1039  1.1708
 2657TIP3    H232167   1.899   4.952   6.807 -0.2510 -0.7401 -2.4244
 2658TIP3   OH232168   2.925   1.592   7.715  0.5526 -0.5529  0.5098
 2658TIP3    H132169   3.010   1.635   7.701  0.4301 -0.5885 -0.4522
 2658TIP3    H232170   2.897   1.621   7.801 -0.1072  2.3250 -0.5507
 2659TIP3   OH232171   7.387   1.788   7.567  0.2141 -0.2001  0.2869
 2659TIP3    H132172   7.391   1.732   7.644  1.1084 -2.1334 -1.0653
 2659TIP3    H232173   7.478   1.790   7.535 -0.0787  0.8507 -0.5203
 2660TIP3   OH232174   4.539   0.121   7.388  1.3645  0.0132  0.1608
 2660TIP3    H132175   4.558   0.193   7.447 -0.6727  1.0343 -0.3570
 2660TIP3    H232176   4.552   0.158   7.300  2.3706 -0.9021 -0.1077
 2661TIP3   OH232177   0.301   0.234   8.558 -0.2240  0.1983 -0.7292
 2661TIP3    H132178   0.304   0.307   8.497  0.5708  0.3576 -0.5170
 2661TIP3    H232179   0.391   0.226   8.589 -0.8671  1.1348  1.6100
 2662TIP3   OH232180   4.714   7.048   8.979 -0.3178  0.2093 -0.0087
 2662TIP3    H132181   4.656   6.973   8.995  0.3987 -0.4376 -0.3784
 2662TIP3    H232182   4.790   7.032   9.034  0.5800 -0.2167 -1.3129
 2663TIP3   OH232183   4.750   3.252   8.365  0.2149 -0.0639 -0.1777
 2663TIP3    H132184   4.818   3.234   8.431  0.5397  0.0521 -0.4769
 2663TIP3    H232185   4.738   3.169   8.320  0.9892  0.1864 -0.8853
 2664TIP3   OH232186   6.696   4.550   7.706 -1.1618  0.5514  0.3952
 2664TIP3    H132187   6.737   4.507   7.631 -0.4958  2.6313 -0.5371
 2664TIP3    H232188   6.769   4.568   7.766 -0.8724  2.6767 -0.4696
 2665TIP3   OH232189   7.270   3.346   8.127  0.4772  0.0016 -0.9045
 2665TIP3    H132190   7.230   3.369   8.211  0.7163 -0.3379 -0.6989
 2665TIP3    H232191   7.289   3.253   8.134  0.5430 -0.0183 -1.3196
 2666TIP3   OH232192   0.219   2.322   7.287  1.1923 -0.1623  0.1780
 2666TIP3    H132193   0.202   2.232   7.315  0.7468 -0.0932  0.1357
 2666TIP3    H232194   0.189   2.326   7.197  0.7186  0.1675  0.3443
 2667TIP3   OH232195   2.293   1.242   7.647 -0.5734 -0.1576 -0.3978
 2667TIP3    H132196   2.258   1.153   7.644  0.1268 -0.7774  3.9652
 2667TIP3    H232197   2.388   1.231   7.643 -0.4550  0.2813  0.8090
 2668TIP3   OH232198   1.260   6.069   9.229  0.0423 -0.1326  0.1599
 2668TIP3    H132199   1.168   6.078   9.204  0.2901  0.1885 -0.6758
 2668TIP3    H232200   1.292   6.159   9.234  0.5729 -0.2630 -0.6150
 2669TIP3   OH232201   4.521   2.889   9.441  0.0819 -0.3736  0.0073
 2669TIP3    H132202   4.562   2.974   9.426 -0.2925  0.1600  1.8374
 2669TIP3    H232203   4.498   2.859   9.353 -0.1552  1.5922 -0.6631
 2670TIP3   OH232204   2.892   2.397   7.715 -0.0335 -0.0188 -0.3207
 2670TIP3    H132205   2.937   2.464   7.764 -0.4534  0.4976 -0.6269
 2670TIP3    H232206   2.808   2.437   7.691 -0.3689 -0.7169 -0.3374
 2671TIP3   OH232207   4.844   2.248   8.078 -0.3028  0.0455  0.7155
 2671TIP3    H132208   4.841   2.152   8.076  1.3229 -0.0272 -0.6301
 2671TIP3    H232209   4.923   2.268   8.128 -0.3032  0.6691  0.4659
 2672TIP3   OH232210   5.642   1.408   7.139 -0.5652  0.0600  0.2521
 2672TIP3    H132211   5.619   1.353   7.064 -1.5243 -0.1235  0.6640
 2672TIP3    H232212   5.734   1.432   7.124 -0.7688  0.1083 -1.0142
 2673TIP3   OH232213   6.021   0.126   8.936  0.3174 -0.3271 -0.0639
 2673TIP3    H132214   6.094   0.066   8.917  0.9458  0.3203  0.2474
 2673TIP3    H232215   6.006   0.173   8.854  0.8305  0.1479  0.1117
 2674TIP3   OH232216   3.165   3.869   7.044  0.2260 -0.0925  0.3181
 2674TIP3    H132217   3.097   3.803   7.050  0.1871 -0.0305  0.5549
 2674TIP3    H232218   3.125   3.939   6.992  0.1125 -0.0595  0.4501
 2675TIP3   OH232219   7.472   1.536   8.188 -0.7089  0.2733  0.2124
 2675TIP3    H132220   7.392   1.486   8.177 -0.5316  0.2190 -0.9036
 2675TIP3    H232221   7.476   1.593   8.111  1.3193 -1.1191 -0.8006
 2676TIP3   OH232222   6.198   0.241   9.440  0.3243 -0.3227 -0.1262
 2676TIP3    H132223   6.227   0.259   9.351  1.0594 -1.2255 -0.0936
 2676TIP3    H232224   6.106   0.217   9.431  1.3351 -4.6777 -1.3323
 2677TIP3   OH232225   5.000   4.203   7.251  0.2108  0.4059 -0.3870
 2677TIP3    H132226   4.996   4.174   7.342 -2.9949  1.2802 -0.1223
 2677TIP3    H232227   4.981   4.124   7.200 -0.5614  0.4039 -0.1140
 2678TIP3   OH232228   4.720   6.130   6.996 -0.1286  0.2985  0.0426
 2678TIP3    H132229   4.636   6.134   6.950  0.1745 -2.4090 -0.9182
 2678TIP3    H232230   4.784   6.148   6.928  0.1536  0.8212  0.4408
 2679TIP3   OH232231   2.543   6.180   7.009  0.2497 -0.0127 -0.4673
 2679TIP3    H132232   2.569   6.239   6.939 -1.1361 -0.1520 -1.1074
 2679TIP3    H232233   2.456   6.209   7.036 -0.6406 -1.9468 -1.0491
 2680TIP3   OH232234   2.848   2.423   8.972  0.2834  0.9110  0.2762
 2680TIP3    H132235   2.930   2.473   8.976  0.5881  0.5097 -0.7693
 2680TIP3    H232236   2.841   2.395   8.881 -0.0766 -0.6385  0.7588
 2681TIP3   OH232237   1.420   7.366   9.170 -0.1912 -0.5483  0.4466
 2681TIP3    H132238   1.462   7.281   9.165 -0.4408 -0.6956  0.8032
 2681TIP3    H232239   1.480   7.425   9.125 -1.0146 -1.2764 -1.7130
 2682TIP3   OH232240   6.882   5.667   7.319  0.3444  0.1221  0.0606
 2682TIP3    H132241   6.932   5.586   7.325  0.5451  0.2795  0.5278
 2682TIP3    H232242   6.836   5.661   7.235 -0.3295 -0.8709  0.4806
 2683TIP3   OH232243   3.791   6.687   7.259  0.0469 -0.0247 -0.1831
 2683TIP3    H132244   3.848   6.627   7.211 -0.9289 -0.6213 -0.6278
 2683TIP3    H232245   3.798   6.660   7.350  0.4107 -0.1381 -0.2428
 2684TIP3   OH232246   7.202   2.641   8.859 -0.4473 -0.0550  0.2315
 2684TIP3    H132247   7.272   2.585   8.892 -0.9908 -0.9383 -0.0849
 2684TIP3    H232248   7.245   2.725   8.841  0.7692 -0.8749 -0.9164
 2685TIP3   OH232249   4.121   7.092   6.468  0.3700  0.1718 -0.2011
 2685TIP3    H132250   4.178   7.059   6.398 -0.2546 -0.8750 -0.2410
 2685TIP3    H232251   4.139   7.034   6.543  0.3681  0.7114  0.2223
 2686TIP3   OH232252   7.503   3.374   7.402  0.2770  0.6044 -0.4342
 2686TIP3    H132253   7.489   3.342   7.313 -0.3859  0.4404 -0.2755
 2686TIP3    H232254   7.470   3.304   7.459 -0.5353  1.2578 -0.0763
 2687TIP3   OH232255   0.108   6.163   7.888 -0.0865 -0.3313 -0.4255
 2687TIP3    H132256   0.164   6.229   7.928  0.5869 -1.5865  0.7992
 2687TIP3    H232257   0.029   6.161   7.942 -0.6557  0.3216 -1.2064
 2688TIP3   OH232258   1.474   1.217   7.153  0.5197 -0.2370 -0.3693
 2688TIP3    H132259   1.515   1.164   7.084  1.0128  0.2375 -0.4412
 2688TIP3    H232260   1.509   1.181   7.234 -2.0411 -2.5799 -0.1325
 2689TIP3   OH232261   4.281   0.252   9.080 -0.4073  0.2683 -0.4073
 2689TIP3    H132262   4.328   0.308   9.142  3.0413 -1.0508 -1.5832
 2689TIP3    H232263   4.238   0.185   9.135  0.8413  0.3251  0.6754
 2690TIP3   OH232264   2.104   2.464   8.000 -0.2490 -0.3883 -0.0276
 2690TIP3    H132265   2.048   2.399   8.042 -1.1198 -0.3725 -1.1512
 2690TIP3    H232266   2.057   2.491   7.921  0.9951  0.1706 -0.6111
 2691TIP3   OH232267   7.406   6.103   8.069  0.0448  0.3302  0.4518
 2691TIP3    H132268   7.414   6.075   8.160 -0.8870  3.3069  1.5762
 2691TIP3    H232269   7.313   6.091   8.048  0.2543 -0.3442 -0.1488
 2692TIP3   OH232270   2.198   2.114   8.488  0.3800  0.3267  0.3028
 2692TIP3    H132271   2.255   2.191   8.486  0.4755  0.3445  1.8448
 2692TIP3    H232272   2.151   2.122   8.572 -0.8064 -0.4517 -0.2562
 2693TIP3   OH232273   6.132   5.888   8.098 -0.3351  0.5003 -0.0270
 2693TIP3    H132274   6.169   5.845   8.021 -0.6447  1.7958 -0.9271
 2693TIP3    H232275   6.113   5.816   8.159 -2.3694 -0.8674 -2.1083
 2694TIP3   OH232276   4.233   0.416   9.762 -0.0771  0.1482 -0.7993
 2694TIP3    H132277   4.264   0.476   9.830 -0.1367 -0.9652  0.2235
 2694TIP3    H232278   4.250   0.463   9.680  1.2902  0.9282 -0.0985
 2695TIP3   OH232279   3.749   5.936   8.253 -0.5032  0.3973 -0.4344
 2695TIP3    H132280   3.828   5.969   8.208  0.6767 -2.4633 -0.6380
 2695TIP3    H232281   3.688   5.917   8.182 -0.1006 -0.4907 -0.5523
 2696TIP3   OH232282   2.056   3.512   8.825 -0.2247  0.0428  0.6128
 2696TIP3    H132283   1.987   3.520   8.890  1.3687  0.7659  2.3113
 2696TIP3    H232284   2.100   3.430   8.846 -0.4249 -0.3300 -0.3488
 2697TIP3   OH232285   3.064   3.285   7.134 -0.1278 -0.6538 -0.4657
 2697TIP3    H132286   3.028   3.286   7.223  0.3420  0.1683 -0.2726
 2697TIP3    H232287   3.127   3.214   7.134 -1.7018 -2.1210 -0.8061
 2698TIP3   OH232288   5.761   4.280   8.910 -0.0526 -0.1059  0.1495
 2698TIP3    H132289   5.805   4.199   8.935  0.5531 -0.0038 -0.5546
 2698TIP3    H232290   5.767   4.336   8.987 -1.6129 -1.1790  1.1131
 2699TIP3   OH232291   3.097   7.231   7.077 -0.2606 -0.2373  0.1896
 2699TIP3    H132292   3.140   7.177   7.144 -0.0664  1.8249  1.8539
 2699TIP3    H232293   3.061   7.305   7.126 -2.2517  0.1423 -1.7147
 2700TIP3   OH232294   6.264   3.986   7.725 -0.1857  0.7181  0.2054
 2700TIP3    H132295   6.307   4.065   7.756  3.3110 -0.4991 -1.0398
 2700TIP3    H232296   6.319   3.914   7.758 -1.4589 -1.0223 -1.2385
 2701TIP3   OH232297   3.227   5.519   9.115 -0.3783 -0.3188  0.4181
 2701TIP3    H132298   3.232   5.534   9.020 -0.8620 -0.0762  0.4277
 2701TIP3    H232299   3.313   5.546   9.148  0.8992 -3.1821 -0.3109
 2702TIP3   OH232300   3.935   0.109   9.229  0.4734  1.3902  0.7898
 2702TIP3    H132301   4.003   0.045   9.211  0.9393  1.8549  0.8643
 2702TIP3    H232302   3.894   0.079   9.310 -1.9687 -1.0003 -1.1393
 2703TIP3   OH232303   2.745   4.878   8.662  0.2260 -0.4090  0.3071
 2703TIP3    H132304   2.763   4.832   8.744 -0.7343 -0.7542  0.3381
 2703TIP3    H232305   2.682   4.946   8.686  2.0281  1.3327  0.3674
 2704TIP3   OH232306   4.479   4.789   8.339 -0.2375  0.2534 -0.2488
 2704TIP3    H132307   4.571   4.815   8.335  0.0737 -0.6309  0.9348
 2704TIP3    H232308   4.449   4.797   8.248  1.9925 -2.9493 -1.4425
 2705TIP3   OH232309   6.439   3.561   7.156 -0.7063 -0.1465  0.2750
 2705TIP3    H132310   6.387   3.502   7.103 -1.9190  1.0300  0.1013
 2705TIP3    H232311   6.391   3.570   7.238  1.5121 -2.5243  2.0084
 2706TIP3   OH232312   3.973   1.055   8.629 -0.3277 -0.8700  0.1848
 2706TIP3    H132313   3.979   0.970   8.585  1.2978 -0.8192  0.2199
 2706TIP3    H232314   3.940   1.035   8.716  1.2640 -1.6792  0.6415
 2707TIP3   OH232315   4.970   6.680   7.400  0.0799 -0.3357  0.0592
 2707TIP3    H132316   4.927   6.623   7.336  0.6718 -1.5167  0.6762
 2707TIP3    H232317   5.063   6.678   7.375 -0.0520  1.6151 -0.8299
 2708TIP3   OH232318   4.780   1.681   6.815  0.2970  0.2373 -0.2672
 2708TIP3    H132319   4.749   1.610   6.758  1.8709  0.3818 -1.3754
 2708TIP3    H232320   4.856   1.643   6.861  0.5517  0.8871 -0.1381
 2709TIP3   OH232321   3.158   7.470   9.237  0.2057 -0.0348 -0.1117
 2709TIP3    H132322   3.120   7.390   9.199 -1.4235  0.6102  0.0634
 2709TIP3    H232323   3.202   7.512   9.164  0.5238 -0.7670 -0.3554
 2710TIP3   OH232324   1.227   3.990   8.227  0.2052  0.4400  0.3944
 2710TIP3    H132325   1.219   3.995   8.132  2.3548  0.1016  0.1409
 2710TIP3    H232326   1.316   4.022   8.245 -0.1231  0.3992  2.2811
 2711TIP3   OH232327   4.090   1.436   9.912  0.3115  0.6664 -0.5119
 2711TIP3    H132328   4.169   1.488   9.924 -0.4944  1.5415  1.3639
 2711TIP3    H232329   4.103   1.393   9.827  1.7790  2.5562 -1.3394
 2712TIP3   OH232330   0.080   5.201   8.199  0.6585 -0.3434 -0.7161
 2712TIP3    H132331   0.102   5.251   8.278 -1.1531 -0.1096 -0.3210
 2712TIP3    H232332   0.153   5.140   8.188  0.5899 -0.9319  1.6135
 2713TIP3   OH232333   6.599   3.571   8.326  0.2052 -0.3776 -0.1777
 2713TIP3    H132334   6.636   3.486   8.351  2.8045  0.2979 -1.4340
 2713TIP3    H232335   6.656   3.602   8.255 -2.3423  1.1809 -1.6913
 2714TIP3   OH232336   4.570   3.962   8.730 -0.2579  0.0042  0.1263
 2714TIP3    H132337   4.479   3.973   8.701 -0.4647 -0.1205  0.7005
 2714TIP3    H232338   4.562   3.922   8.817  0.3741 -0.9537 -0.2512
 2715TIP3   OH232339   5.219   1.967   8.941 -0.4061 -0.3631  0.8819
 2715TIP3    H132340   5.269   1.999   9.017  1.3488 -3.4402  1.1907
 2715TIP3    H232341   5.129   1.960   8.973  0.0544 -0.2950  2.2663
 2716TIP3   OH232342   4.369   1.183   8.773  0.2501 -0.7608  0.4245
 2716TIP3    H132343   4.334   1.166   8.860 -0.2621 -1.5481  0.0710
 2716TIP3    H232344   4.327   1.119   8.716 -0.8523  0.9072 -0.7562
 2717TIP3   OH232345   1.066   6.972   7.644 -0.3192  0.1584 -0.1822
 2717TIP3    H132346   1.158   6.991   7.666  0.3931 -1.4433 -1.5433
 2717TIP3    H232347   1.037   6.912   7.713  0.3860 -1.0476 -0.8901
 2718TIP3   OH232348   3.005   4.890   7.861  0.4296 -0.2627  0.1463
 2718TIP3    H132349   2.933   4.857   7.914  0.8857 -0.3831  0.7032
 2718TIP3    H232350   3.058   4.813   7.840  0.2011 -0.2315 -0.5711
 2719TIP3   OH232351   2.251   5.575   8.052 -0.1947 -0.2157  0.2333
 2719TIP3    H132352   2.314   5.552   7.983 -0.4103  1.9782 -0.7714
 2719TIP3    H232353   2.285   5.531   8.130  1.2827 -0.9958 -0.7871
 2720TIP3   OH232354   4.727   6.180   8.441 -0.3787 -1.0909  0.2195
 2720TIP3    H132355   4.773   6.167   8.358 -0.0907 -0.2499  0.2380
 2720TIP3    H232356   4.792   6.160   8.508 -0.2027 -0.4619  0.2427
 2721TIP3   OH232357   2.702   2.201   6.789 -0.2029 -0.3445  0.3637
 2721TIP3    H132358   2.687   2.107   6.800  0.8513 -0.2779  3.3844
 2721TIP3    H232359   2.787   2.216   6.831  0.9627  1.5955 -2.4094
 2722TIP3   OH232360   3.360   7.373   8.828 -0.0826  0.3116  0.2546
 2722TIP3    H132361   3.429   7.436   8.848  0.7606 -0.9625  1.5307
 2722TIP3    H232362   3.286   7.400   8.883 -0.0274  0.6682  0.1570
 2723TIP3   OH232363   2.454   2.925   8.667  0.1159  0.1729  0.1374
 2723TIP3    H132364   2.485   2.978   8.593  0.2910  0.5013  0.4456
 2723TIP3    H232365   2.532   2.909   8.720 -0.0121 -0.0478  0.2616
 2724TIP3   OH232366   3.468   5.614   9.159  0.1170 -1.0123 -0.1157
 2724TIP3    H132367   3.500   5.696   9.122 -0.7060 -0.4342  0.4379
 2724TIP3    H232368   3.493   5.617   9.251 -0.2903 -1.1832  0.0036
 2725TIP3   OH232369   1.823   2.632   8.313 -0.2608 -0.3798 -0.3710
 2725TIP3    H132370   1.800   2.633   8.405  0.8012  1.1104 -0.0886
 2725TIP3    H232371   1.901   2.576   8.308  1.5676  1.9284  0.2052
 2726TIP3   OH232372   5.038   2.051   8.574  1.0649 -0.2721  0.0648
 2726TIP3    H132373   5.111   2.070   8.515 -0.6145  1.1276 -1.6922
 2726TIP3    H232374   5.055   1.962   8.606  3.2071 -0.2013 -0.7241
 2727TIP3   OH232375   4.336   2.077   9.565 -0.0997  0.0456  0.5049
 2727TIP3    H132376   4.418   2.036   9.592 -1.0995 -0.9063  2.2801
 2727TIP3    H232377   4.334   2.161   9.611 -1.0495 -0.8648  2.2289
 2728TIP3   OH232378   1.485   2.194   8.600  0.2640 -0.1363  0.6977
 2728TIP3    H132379   1.443   2.109   8.616  1.2229 -0.5376  1.2419
 2728TIP3    H232380   1.568   2.171   8.557 -0.1258  0.6353 -0.4930
 2729TIP3   OH232381   3.419   4.089   8.721 -0.4272  0.3001 -0.3808
 2729TIP3    H132382   3.357   4.080   8.793 -0.7737 -0.9938 -0.8052
 2729TIP3    H232383   3.419   4.182   8.700 -1.8164  0.4087 -0.0043
 2730TIP3   OH232384   4.874   3.329   7.472 -0.4710 -0.2293  0.0780
 2730TIP3    H132385   4.884   3.242   7.510 -0.7989 -0.4960 -0.4254
 2730TIP3    H232386   4.779   3.345   7.474 -0.3783  0.2798  0.5236
 2731TIP3   OH232387   7.447   1.435   8.450 -0.1140 -0.0437 -0.5351
 2731TIP3    H132388   7.377   1.490   8.485  1.3534  1.1679  0.6591
 2731TIP3    H232389   7.474   1.478   8.369  1.4524  1.4606  0.7118
 2732TIP3   OH232390   3.970   3.523   7.413  0.1834 -0.0699  0.4358
 2732TIP3    H132391   4.042   3.461   7.400  0.8102  1.0395 -1.8299
 2732TIP3    H232392   4.013   3.608   7.425 -0.6984  0.6515 -1.1944
 2733TIP3   OH232393   0.754   4.075   8.402  0.1397 -0.1568 -0.5622
 2733TIP3    H132394   0.843   4.110   8.403 -0.8677  2.7235  1.5876
 2733TIP3    H232395   0.763   3.985   8.434  2.2483  0.0811 -0.3832
 2734TIP3   OH232396   7.321   7.487   7.159  0.5534  0.1945  0.2143
 2734TIP3    H132397   7.313   7.561   7.219 -1.3296 -0.3540  0.7275
 2734TIP3    H232398   7.413   7.462   7.163  0.9325  1.6217  1.0914
 2735TIP3   OH232399   2.078   2.272   7.716  0.4493 -0.2921  0.4446
 2735TIP3    H132400   2.020   2.201   7.688  1.7203 -0.7406 -1.1972
 2735TIP3    H232401   2.157   2.228   7.749  0.8931  0.3345  0.2501
 2736TIP3   OH232402   3.093   0.345   7.949 -0.5267  0.1959 -0.5294
 2736TIP3    H132403   3.133   0.431   7.936  0.8162 -0.0809  1.3583
 2736TIP3    H232404   3.049   0.352   8.034 -0.5890 -0.9081 -0.4589
 2737TIP3   OH232405   2.374   5.867   7.196  0.2633 -0.3598  0.7361
 2737TIP3    H132406   2.292   5.821   7.213 -0.5593  1.0183  0.6588
 2737TIP3    H232407   2.412   5.882   7.283 -0.2140  0.1213  0.8653
 2738TIP3   OH232408   6.791   2.186   9.279  0.2787 -0.5536  0.3449
 2738TIP3    H132409   6.713   2.225   9.318  0.6490 -0.5758  1.1135
 2738TIP3    H232410   6.756   2.114   9.225 -0.3918  0.7429 -1.0128
 2739TIP3   OH232411   2.979   0.082   8.868  0.7286 -0.1778  0.0386
 2739TIP3    H132412   2.946   0.065   8.780  0.1784 -2.7974  0.6739
 2739TIP3    H232413   2.908   0.129   8.912 -0.4863 -1.9323  0.0700
 2740TIP3   OH232414   7.151   3.084   8.262  0.5555  0.6198 -0.0984
 2740TIP3    H132415   7.078   3.041   8.218  0.3119  0.2705  0.6394
 2740TIP3    H232416   7.211   3.014   8.283  0.9977  0.8769 -0.4785
 2741TIP3   OH232417   2.005   5.405   6.774  0.3268  0.3188  0.5845
 2741TIP3    H132418   1.962   5.326   6.744  1.0161 -0.6450  1.9969
 2741TIP3    H232419   1.935   5.468   6.788 -0.3795 -0.4842  0.7042
 2742TIP3   OH232420   1.074   5.173   8.368 -0.3068 -0.0598  0.2219
 2742TIP3    H132421   1.160   5.183   8.409  0.1918 -1.8587 -0.2902
 2742TIP3    H232422   1.019   5.237   8.412  1.4682  1.7262  0.0201
 2743TIP3   OH232423   0.422   5.548   8.658 -0.2089 -0.3834 -0.3180
 2743TIP3    H132424   0.506   5.585   8.632  0.7700 -2.3035 -0.0864
 2743TIP3    H232425   0.363   5.569   8.586  0.5265  0.7831 -0.5998
 2744TIP3   OH232426   2.592   5.671   9.030 -0.3355 -0.1869  0.0848
 2744TIP3    H132427   2.538   5.743   8.995 -0.4078  0.2818  1.1078
 2744TIP3    H232428   2.633   5.709   9.108  0.1121 -1.0818  0.2895
 2745TIP3   OH232429   1.016   7.040   7.376  0.0208 -0.5582 -0.5022
 2745TIP3    H132430   1.017   7.012   7.467 -0.6341  2.0513  0.3936
 2745TIP3    H232431   1.107   7.038   7.349  0.2138 -1.4195  0.1719
 2746TIP3   OH232432   5.545   4.424   8.810  0.0655 -0.1199  0.0687
 2746TIP3    H132433   5.506   4.373   8.740 -1.0113 -0.7331  1.0679
 2746TIP3    H232434   5.633   4.387   8.821  0.4989  0.4259 -1.3625
 2747TIP3   OH232435   1.898   1.650   9.137 -0.7618 -0.3932 -0.3277
 2747TIP3    H132436   1.825   1.648   9.198 -0.8759 -1.3152 -0.4727
 2747TIP3    H232437   1.869   1.706   9.065 -1.0359 -0.1648 -0.0392
 2748TIP3   OH232438   6.613   1.270   7.060 -0.1425 -0.2480  0.7504
 2748TIP3    H132439   6.605   1.307   7.148 -0.4942  1.4406  0.0503
 2748TIP3    H232440   6.582   1.339   7.002  1.0189 -0.9480 -0.7836
 2749TIP3   OH232441   4.739   3.522   8.009 -0.4500  0.3368  0.2440
 2749TIP3    H132442   4.647   3.542   8.027 -0.0550  1.1392  1.5128
 2749TIP3    H232443   4.737   3.473   7.927 -1.8362  2.3377 -1.0260
 2750TIP3   OH232444   5.302   3.412   7.770  0.1054 -0.1210 -0.6654
 2750TIP3    H132445   5.289   3.492   7.820  1.5402 -0.2639 -0.0082
 2750TIP3    H232446   5.218   3.395   7.727 -0.1315  1.8956 -1.0626
 2751TIP3   OH232447   7.375   2.322   8.816 -0.2070 -0.1692  0.1295
 2751TIP3    H132448   7.438   2.255   8.789  0.7368  0.2941  1.1385
 2751TIP3    H232449   7.371   2.382   8.742  0.1719 -0.4602 -0.1336
 2752TIP3   OH232450   4.857   3.545   8.375  0.1583 -0.1228 -0.3806
 2752TIP3    H132451   4.768   3.510   8.377 -1.3006  3.1447 -0.4856
 2752TIP3    H232452   4.891   3.520   8.289 -1.2251 -0.2585 -0.9146
 2753TIP3   OH232453   3.267   3.992   9.508 -0.9037  0.5771 -0.0862
 2753TIP3    H132454   3.285   3.990   9.414  0.2694  1.9090  0.0744
 2753TIP3    H232455   3.309   3.913   9.542  2.2547  2.0716 -0.1744
 2754TIP3   OH232456   0.936   2.853   6.430  0.2716 -0.5223 -0.1468
 2754TIP3    H132457   0.925   2.883   6.340  1.5977  1.6995  0.3671
 2754TIP3    H232458   0.869   2.900   6.480  2.2539  1.6458  0.6438
 2755TIP3   OH232459   4.585   0.915   7.179  0.7251  0.3255 -0.2961
 2755TIP3    H132460   4.625   0.925   7.266  1.3621 -1.1841 -0.3672
 2755TIP3    H232461   4.627   0.982   7.125 -0.3130  1.8725  0.7274
 2756TIP3   OH232462   0.266   6.835   7.926 -0.2265 -0.2863 -0.1045
 2756TIP3    H132463   0.283   6.930   7.921  0.7655 -0.4391  0.1643
 2756TIP3    H232464   0.244   6.820   8.018 -0.6676 -0.2789 -0.2066
 2757TIP3   OH232465   6.403   7.419   9.599 -0.5257  0.3714  0.2410
 2757TIP3    H132466   6.339   7.490   9.586 -0.7546  0.2630  0.7560
 2757TIP3    H232467   6.391   7.362   9.522 -0.1665  1.0170 -0.2991
 2758TIP3   OH232468   1.861   4.113   7.575 -0.7256 -0.7819 -0.3152
 2758TIP3    H132469   1.785   4.055   7.579 -1.3384 -0.1042 -1.6694
 2758TIP3    H232470   1.860   4.149   7.487  0.8521 -0.3069 -0.1794
 2759TIP3   OH232471   2.865   2.270   9.737 -0.3763  0.0954  0.6009
 2759TIP3    H132472   2.901   2.320   9.664 -1.5890 -0.3649 -0.3510
 2759TIP3    H232473   2.790   2.322   9.767  1.0623  1.1299  2.6637
 2760TIP3   OH232474   4.770   5.296   8.665 -0.1026 -0.3699  0.2877
 2760TIP3    H132475   4.723   5.234   8.609  0.7059 -2.1867  1.5216
 2760TIP3    H232476   4.860   5.266   8.664  0.4411  1.1670  0.4925
 2761TIP3   OH232477   6.755   1.270   9.146 -0.4099  0.9744  0.3495
 2761TIP3    H132478   6.665   1.240   9.132 -0.7919  0.9422  2.6220
 2761TIP3    H232479   6.750   1.365   9.136 -0.7733  1.0075  0.8065
 2762TIP3   OH232480   6.892   1.208   7.300  0.5875  0.0329 -0.4545
 2762TIP3    H132481   6.830   1.277   7.278  2.5191  1.7858 -0.6648
 2762TIP3    H232482   6.841   1.127   7.293 -1.7974  1.4163 -0.0192
 2763TIP3   OH232483   3.421   6.395   9.201 -0.3049  0.3528  0.3584
 2763TIP3    H132484   3.462   6.335   9.263  0.9145 -1.0733 -1.7046
 2763TIP3    H232485   3.409   6.343   9.121 -0.3746  2.5136 -1.1225
 2764TIP3   OH232486   7.197   6.954   7.778 -0.0381 -0.1909 -0.1666
 2764TIP3    H132487   7.249   6.881   7.813 -1.6652 -1.1391  0.3669
 2764TIP3    H232488   7.146   6.984   7.853  1.2427  2.1454 -0.1311
 2765TIP3   OH232489   2.341   1.590   7.999  0.3436  0.3675  0.0424
 2765TIP3    H132490   2.429   1.625   8.015  1.1195 -0.4798 -2.1090
 2765TIP3    H232491   2.329   1.595   7.904 -1.1855 -1.2780  0.0935
 2766TIP3   OH232492   3.777   2.564   7.926  0.4327 -0.4982  0.0105
 2766TIP3    H132493   3.811   2.588   8.012 -0.2437 -0.5776  0.3053
 2766TIP3    H232494   3.808   2.633   7.867 -0.3515  0.3679  0.5932
 2767TIP3   OH232495   1.676   4.619   9.131  0.1403  0.2589 -0.4808
 2767TIP3    H132496   1.655   4.711   9.118 -0.5228  0.3638  1.1006
 2767TIP3    H232497   1.771   4.616   9.138  0.1677  0.8192 -0.6175
 2768TIP3   OH232498   3.733   5.580   9.332 -0.5941  0.2105 -0.2832
 2768TIP3    H132499   3.804   5.644   9.338 -1.3575  1.1901 -1.1714
 2768TIP3    H232500   3.662   5.618   9.383 -0.9978 -0.0114 -0.6752
 2769TIP3   OH232501   5.348   3.102   7.397 -0.3792  0.2921  0.1884
 2769TIP3    H132502   5.262   3.076   7.364 -0.0943 -0.8846  0.3168
 2769TIP3    H232503   5.348   3.073   7.488  0.2075  0.1261  0.1403
 2770TIP3   OH232504   0.389   4.058   9.449 -0.3025  0.0226  0.1467
 2770TIP3    H132505   0.356   4.148   9.437  0.2231  0.0655 -1.2181
 2770TIP3    H232506   0.483   4.066   9.437 -0.3192 -0.7972 -0.6530
 2771TIP3   OH232507   3.767   4.339   8.565  0.4715 -0.0149  0.2472
 2771TIP3    H132508   3.699   4.356   8.630 -0.1571  0.9207 -0.6152
 2771TIP3    H232509   3.825   4.415   8.570  0.0124  0.4177 -0.7576
 2772TIP3   OH232510   0.693   5.733   8.292  0.3671 -0.1942 -0.3393
 2772TIP3    H132511   0.728   5.644   8.292 -0.6223 -0.5971 -0.7045
 2772TIP3    H232512   0.708   5.764   8.202  1.6304  0.3919  0.0595
 2773TIP3   OH232513   4.688   4.421   8.167  0.5833  0.2363  0.0958
 2773TIP3    H132514   4.686   4.491   8.232 -0.1773  1.2214 -0.9321
 2773TIP3    H232515   4.775   4.428   8.128  0.2714  1.1317 -0.4964
 2774TIP3   OH232516   5.055   2.896   8.710 -0.0955  0.1548  0.0894
 2774TIP3    H132517   5.018   2.821   8.664 -0.2342 -0.4312  1.1329
 2774TIP3    H232518   5.115   2.936   8.647  0.5756 -1.2922 -0.2238
 2775TIP3   OH232519   4.078   5.625   7.999 -0.2700  0.7907  0.1029
 2775TIP3    H132520   4.037   5.706   7.968 -0.6379  0.8530  0.7447
 2775TIP3    H232521   4.168   5.630   7.966 -0.6264  0.8794 -0.9120
 2776TIP3   OH232522   4.344   7.537   8.407 -0.5092 -0.2477  0.1329
 2776TIP3    H132523   4.335   7.597   8.481  0.5472 -2.3042  2.0725
 2776TIP3    H232524   4.437   7.542   8.383 -0.3071 -1.3239  0.5960
 2777TIP3   OH232525   4.077   6.401   7.893 -0.1976 -0.0563 -0.3746
 2777TIP3    H132526   4.022   6.352   7.955 -2.2213  0.7368 -1.4421
 2777TIP3    H232527   4.134   6.335   7.854 -0.5386 -0.9749  0.6149
 2778TIP3   OH232528   1.421   2.329   7.544  0.3481 -0.1378  0.0940
 2778TIP3    H132529   1.368   2.383   7.484  0.4055  0.4064  0.5253
 2778TIP3    H232530   1.390   2.240   7.529 -0.3497  0.1130 -0.0185
 2779TIP3   OH232531   0.899   6.569   7.853  0.6778  0.0473  0.3371
 2779TIP3    H132532   0.865   6.532   7.772 -0.4298  0.0422  0.7807
 2779TIP3    H232533   0.991   6.587   7.835 -0.3856  4.2232 -2.4687
 2780TIP3   OH232534   2.316   6.523   8.759 -0.2686  0.5325 -0.1078
 2780TIP3    H132535   2.343   6.615   8.764 -1.5008  0.8571  1.2049
 2780TIP3    H232536   2.330   6.489   8.847 -1.1665 -0.1352 -0.2127
 2781TIP3   OH232537   6.824   7.508   7.625  0.4805  0.1534  0.1620
 2781TIP3    H132538   6.808   7.582   7.683  1.0916  0.5748 -0.1981
 2781TIP3    H232539   6.738   7.470   7.611  0.2446  0.4075  0.8589
 2782TIP3   OH232540   2.420   6.650   8.293 -0.3148 -0.0758  0.0510
 2782TIP3    H132541   2.514   6.656   8.279 -0.5542  4.2940 -1.0327
 2782TIP3    H232542   2.395   6.567   8.251  2.8860 -1.0531 -0.2002
 2783TIP3   OH232543   7.296   2.303   9.090 -0.0945  0.0964  0.0801
 2783TIP3    H132544   7.207   2.336   9.079 -0.5171 -1.5302 -2.1002
 2783TIP3    H232545   7.340   2.328   9.009  1.5157  0.9779  1.1759
 2784TIP3   OH232546   2.166   1.169   9.377 -0.1365 -0.5753  0.5056
 2784TIP3    H132547   2.147   1.123   9.295 -0.1111 -0.6838  0.5608
 2784TIP3    H232548   2.085   1.161   9.427 -0.4171  0.1342  0.1918
 2785TIP3   OH232549   6.357   5.713   7.644  0.0882  0.2139 -0.2374
 2785TIP3    H132550   6.440   5.717   7.597 -0.1691 -1.5064 -0.9054
 2785TIP3    H232551   6.308   5.643   7.601 -1.1032  0.1784  1.0982
 2786TIP3   OH232552   3.773   5.710   7.102 -0.4188 -0.1765  0.4384
 2786TIP3    H132553   3.738   5.700   7.191 -0.6194  0.1171  0.3953
 2786TIP3    H232554   3.706   5.671   7.046  0.1761 -1.2881  0.4859
 2787TIP3   OH232555   7.107   2.258   9.586 -0.1067 -0.4429 -0.0839
 2787TIP3    H132556   7.107   2.312   9.507 -1.2900  2.7342  1.8978
 2787TIP3    H232557   7.019   2.221   9.591 -0.0280 -0.6533 -0.2549
 2788TIP3   OH232558   2.214   3.871   9.410 -0.1930 -0.4402  0.3173
 2788TIP3    H132559   2.218   3.789   9.361  0.5103 -0.7650  0.9030
 2788TIP3    H232560   2.264   3.933   9.357  0.8868 -0.8863  0.7903
 2789TIP3   OH232561   5.559   0.865   9.087  0.3966  0.4197 -0.5614
 2789TIP3    H132562   5.585   0.799   9.151  1.7416 -0.8767 -2.3483
 2789TIP3    H232563   5.548   0.945   9.139  1.6377 -0.5096  1.2543
 2790TIP3   OH232564   4.845   5.963   8.014 -0.3114  0.1347 -0.3492
 2790TIP3    H132565   4.794   5.924   7.943  0.7871 -1.4367 -0.3145
 2790TIP3    H232566   4.936   5.951   7.988  0.1418 -0.9701  1.5329
 2791TIP3   OH232567   2.665   0.189   8.148 -0.2611 -0.3146  1.0124
 2791TIP3    H132568   2.727   0.122   8.118 -1.0346 -0.2652 -0.7930
 2791TIP3    H232569   2.579   0.155   8.123 -0.7472  0.8617  1.0422
 2792TIP3   OH232570   6.329   7.236   9.400  0.1931  0.2407  0.4359
 2792TIP3    H132571   6.276   7.294   9.345 -0.5929 -1.8905 -1.2039
 2792TIP3    H232572   6.270   7.164   9.423  1.7548 -1.1034  0.4192
 2793TIP3   OH232573   0.542   6.060   8.882 -0.0921 -0.5484 -0.0572
 2793TIP3    H132574   0.510   6.059   8.792 -0.1779 -0.4780 -0.0276
 2793TIP3    H232575   0.609   6.128   8.882 -0.9791  0.3361  0.2368
 2794TIP3   OH232576   3.868   5.118   7.482  0.6001  0.3832 -0.4485
 2794TIP3    H132577   3.844   5.077   7.566 -1.0986 -1.3717 -1.7033
 2794TIP3    H232578   3.833   5.059   7.416  0.7468  2.3891 -2.4290
 2795TIP3   OH232579   1.768   3.389   8.699  0.2990  0.4053  0.0571
 2795TIP3    H132580   1.846   3.436   8.727 -0.4480  1.4959  0.3700
 2795TIP3    H232581   1.715   3.455   8.654 -0.7472 -0.1429  0.4469
 2796TIP3   OH232582   2.496   2.400   9.514  0.0762  0.2907 -0.3215
 2796TIP3    H132583   2.549   2.396   9.435  0.8799 -1.3248  0.2365
 2796TIP3    H232584   2.444   2.320   9.511 -0.7569  0.8060  0.2011
 2797TIP3   OH232585   6.637   4.101   7.963 -0.1517 -0.3970  0.0406
 2797TIP3    H132586   6.628   4.143   7.877  1.8600 -0.0985 -0.0806
 2797TIP3    H232587   6.552   4.061   7.979 -0.5539 -0.5568 -2.1474
 2798TIP3   OH232588   0.317   2.110   9.325 -0.5328 -0.0639  0.0114
 2798TIP3    H132589   0.364   2.129   9.244 -1.8590 -1.4448 -1.1504
 2798TIP3    H232590   0.251   2.179   9.331 -1.3005 -0.7040 -0.8369
 2799TIP3   OH232591   4.524   0.880   7.787  0.3450 -0.4769 -0.3045
 2799TIP3    H132592   4.611   0.878   7.827 -0.1906  0.2146  0.9622
 2799TIP3    H232593   4.479   0.952   7.831 -1.1835 -1.4128 -0.2656
 2800TIP3   OH232594   1.477   7.426   8.600  0.3359  0.3990  0.0773
 2800TIP3    H132595   1.551   7.387   8.646  1.1588  2.3398  0.5067
 2800TIP3    H232596   1.430   7.475   8.668 -0.8027 -0.0172 -0.3887
 2801TIP3   OH232597   5.532   6.012   8.809 -0.6277 -0.7045 -0.3762
 2801TIP3    H132598   5.437   6.013   8.797 -0.8275  1.1848  0.9658
 2801TIP3    H232599   5.565   6.075   8.744 -0.3138 -1.0956 -0.6025
 2802TIP3   OH232600   0.170   6.834   6.950 -0.1150  0.2559  0.1327
 2802TIP3    H132601   0.086   6.796   6.975 -0.5311  2.1999  1.9162
 2802TIP3    H232602   0.221   6.759   6.919 -1.7808 -1.3057  0.9764
 2803TIP3   OH232603   4.284   0.713   8.056 -0.5828 -0.2962 -0.6570
 2803TIP3    H132604   4.262   0.775   8.125  0.0559  0.5033 -1.1468
 2803TIP3    H232605   4.295   0.629   8.101  2.3329  0.6772  0.6774
 2804TIP3   OH232606   6.986   5.528   7.932  0.3573  0.6998  0.4914
 2804TIP3    H132607   6.900   5.487   7.931  0.0832  1.2669 -0.1378
 2804TIP3    H232608   7.044   5.462   7.968 -0.6268  0.9005  2.5489
 2805TIP3   OH232609   0.860   0.802   7.915  0.3217  0.0358  0.3753
 2805TIP3    H132610   0.920   0.772   7.983  1.5625  2.4609  0.4742
 2805TIP3    H232611   0.903   0.879   7.878 -1.5314  0.2950 -1.4013
 2806TIP3   OH232612   1.667   5.609   8.947 -0.2632 -0.4928  0.2281
 2806TIP3    H132613   1.733   5.571   8.889 -0.1827 -3.5087  2.1103
 2806TIP3    H232614   1.687   5.703   8.947  3.0204 -1.0547 -0.4764
 2807TIP3   OH232615   4.319   7.479   7.778 -0.5419  0.1410 -0.2437
 2807TIP3    H132616   4.407   7.471   7.740 -0.7882  1.2921 -1.1381
 2807TIP3    H232617   4.309   7.402   7.833  0.7652 -0.3692 -0.6812
 2808TIP3   OH232618   3.695   5.979   7.189  0.1571  0.5216  0.5942
 2808TIP3    H132619   3.756   5.937   7.129  0.2472 -0.3417  1.2785
 2808TIP3    H232620   3.675   5.912   7.254 -2.7339  0.2015 -0.4518
 2809TIP3   OH232621   0.681   6.555   8.974  0.1504  0.4382  0.4942
 2809TIP3    H132622   0.607   6.516   9.020 -0.7570  2.0524  0.5040
 2809TIP3    H232623   0.752   6.492   8.984 -0.1662  0.3828  3.6127
 2810TIP3   OH232624   1.350   5.869   7.878  0.0346 -0.1280  0.0227
 2810TIP3    H132625   1.395   5.785   7.883 -1.0252 -0.9945 -2.8202
 2810TIP3    H232626   1.259   5.847   7.856 -0.5499  1.7289  0.3737
 2811TIP3   OH232627   6.444   2.179   8.488  0.0906 -0.1617 -0.5101
 2811TIP3    H132628   6.459   2.128   8.568  0.6236 -0.4037 -0.7581
 2811TIP3    H232629   6.378   2.244   8.513  0.7026  0.1600  0.2993
 2812TIP3   OH232630   3.743   3.806   7.977  0.3914  0.2225  0.1244
 2812TIP3    H132631   3.751   3.773   8.067  0.5231  1.2444  0.4965
 2812TIP3    H232632   3.653   3.837   7.971  0.1354 -0.5948 -0.3665
 2813TIP3   OH232633   3.774   5.955   8.519 -0.6682  0.2349 -0.1008
 2813TIP3    H132634   3.757   5.937   8.427 -0.4992 -0.3944 -0.0122
 2813TIP3    H232635   3.779   5.869   8.560 -6.8193  0.2433  1.6629
 2814TIP3   OH232636   4.379   6.145   9.313  0.0118 -0.3994 -0.8296
 2814TIP3    H132637   4.367   6.057   9.277  2.9606 -1.0929 -0.3405
 2814TIP3    H232638   4.421   6.131   9.398  1.7254  1.4702 -1.2900
 2815TIP3   OH232639   1.374   5.419   7.328 -0.5191 -0.1929  0.2278
 2815TIP3    H132640   1.411   5.410   7.240  2.1376  0.5678  1.1928
 2815TIP3    H232641   1.364   5.513   7.341 -1.1284 -0.3076  0.6832
 2816TIP3   OH232642   0.849   7.055   8.447  0.2334  0.0663 -0.4633
 2816TIP3    H132643   0.888   7.112   8.512  0.0925 -0.2433 -0.1037
 2816TIP3    H232644   0.793   6.995   8.497 -0.9825  0.7191 -0.9893
 2817TIP3   OH232645   5.677   0.540   7.062  0.4652 -0.3712  0.1050
 2817TIP3    H132646   5.754   0.582   7.099  0.2075 -0.3393  0.6193
 2817TIP3    H232647   5.672   0.573   6.972 -1.5888  3.3296  1.3847
 2818TIP3   OH232648   6.145   3.087   9.019  0.5282  0.6123  0.4545
 2818TIP3    H132649   6.172   3.019   9.081 -1.4329  0.1061  0.8282
 2818TIP3    H232650   6.149   3.044   8.933 -2.2324 -0.5971  0.8277
 2819TIP3   OH232651   0.941   7.291   9.056 -0.1819 -0.1940  0.0566
 2819TIP3    H132652   1.012   7.245   9.012 -0.5782 -1.0074  0.2509
 2819TIP3    H232653   0.864   7.274   9.001 -0.6197 -0.9663  0.8789
 2820TIP3   OH232654   4.705   2.988   8.228 -0.1009 -0.0910 -0.3736
 2820TIP3    H132655   4.668   2.904   8.253  0.9425 -0.2854  0.6122
 2820TIP3    H232656   4.799   2.980   8.248  0.1623  1.0160 -1.0377
 2821TIP3   OH232657   3.146   4.626   8.535 -0.1259  0.4202 -0.1215
 2821TIP3    H132658   3.153   4.614   8.630  0.1989  0.0745 -0.1860
 2821TIP3    H232659   3.074   4.689   8.524 -0.8404 -0.2932  0.3103
 2822TIP3   OH232660   4.339   1.783   7.813 -0.2522  0.0817  0.1776
 2822TIP3    H132661   4.392   1.857   7.842  0.3402  0.1011 -0.9015
 2822TIP3    H232662   4.401   1.724   7.770 -1.1183  0.2696 -1.4326
 2823TIP3   OH232663   5.499   4.640   9.347  0.1135  0.4152  0.0997
 2823TIP3    H132664   5.548   4.714   9.384  2.5153 -0.2428 -1.5543
 2823TIP3    H232665   5.561   4.597   9.289 -1.7433 -1.9569 -0.2639
 2824TIP3   OH232666   2.620   0.321   7.893 -0.0092  0.2341 -0.2559
 2824TIP3    H132667   2.622   0.258   7.965  0.1937 -0.7345 -1.0877
 2824TIP3    H232668   2.542   0.374   7.910 -0.8598 -1.0022 -0.1578
 2825TIP3   OH232669   1.562   4.130   7.285  0.7892 -0.7040 -0.1170
 2825TIP3    H132670   1.652   4.101   7.300  0.2590 -1.7222  1.2846
 2825TIP3    H232671   1.508   4.056   7.312 -0.4746 -0.2036 -1.1789
 2826TIP3   OH232672   6.542   6.862   8.924 -0.4801 -0.5227 -0.1467
 2826TIP3    H132673   6.485   6.904   8.989  1.0281  0.7352  0.4307
 2826TIP3    H232674   6.483   6.807   8.873 -1.8562 -0.9246  1.7583
 2827TIP3   OH232675   5.481   1.317   8.853  0.1672 -0.1911 -0.2658
 2827TIP3    H132676   5.559   1.371   8.858 -0.5853  0.9013  0.1769
 2827TIP3    H232677   5.410   1.374   8.884 -0.6781 -1.4014  0.1328
 2828TIP3   OH232678   0.616   4.728   8.084 -0.8794 -0.6458  0.3884
 2828TIP3    H132679   0.534   4.708   8.039 -1.2936 -1.8465  1.5908
 2828TIP3    H232680   0.626   4.656   8.147  1.1037 -0.5269  0.2555
 2829TIP3   OH232681   6.649   4.149   8.634 -0.4137 -0.1019  0.1261
 2829TIP3    H132682   6.716   4.189   8.578  0.5150 -1.4464  0.2268
 2829TIP3    H232683   6.699   4.107   8.705 -1.4166 -0.4767  0.6295
 2830TIP3   OH232684   3.055   4.378   8.427 -0.5961  0.4237 -0.4529
 2830TIP3    H132685   3.069   4.464   8.467 -1.1084  1.4344 -2.3324
 2830TIP3    H232686   2.975   4.389   8.376  0.1407 -0.7251 -1.9087
 2831TIP3   OH232687   6.355   0.370   8.376  0.0235  0.3543 -0.7732
 2831TIP3    H132688   6.406   0.358   8.296  1.3726 -0.7703  0.2142
 2831TIP3    H232689   6.283   0.307   8.368  0.5485 -0.2477 -0.7937
 2832TIP3   OH232690   2.517   3.280   9.233 -0.2239 -0.2119  0.6615
 2832TIP3    H132691   2.487   3.331   9.308  0.3663  0.6644  0.3203
 2832TIP3    H232692   2.586   3.333   9.194  0.3872 -1.2604  0.2668
 2833TIP3   OH232693   4.495   1.612   8.034  0.0330  0.0992 -0.5206
 2833TIP3    H132694   4.441   1.559   8.092 -1.6070  2.2426  0.0397
 2833TIP3    H232695   4.501   1.561   7.953  0.0991 -1.7166  0.5702
 2834TIP3   OH232696   4.214   3.731   8.800 -0.4226  0.9228 -0.9045
 2834TIP3    H132697   4.285   3.705   8.859  0.3061  0.9017 -1.7593
 2834TIP3    H232698   4.238   3.693   8.715 -1.9920  0.0527 -0.9855
 2835TIP3   OH232699   2.745   6.971   9.458 -0.6667 -0.2936 -0.4312
 2835TIP3    H132700   2.773   7.014   9.538 -0.0628 -1.5489  0.0562
 2835TIP3    H232701   2.695   7.038   9.411 -0.0357  0.8221  0.4380
 2836TIP3   OH232702   6.486   2.614   8.130 -0.0446  0.0868  0.6955
 2836TIP3    H132703   6.537   2.648   8.203 -0.7130  0.9316  0.7880
 2836TIP3    H232704   6.407   2.578   8.170 -0.4842  0.6893  0.3944
 2837TIP3   OH232705   7.026   6.300   7.873 -0.0382 -0.0864 -0.3889
 2837TIP3    H132706   6.997   6.343   7.954  0.6216  0.6717 -0.5447
 2837TIP3    H232707   7.043   6.209   7.899  1.0264  0.3549  0.5375
 2838TIP3   OH232708   7.068   1.782   9.640 -0.0228  0.0024 -0.1273
 2838TIP3    H132709   7.024   1.867   9.637 -1.6089 -0.7412  1.2105
 2838TIP3    H232710   7.124   1.782   9.562 -0.1695  2.1593 -0.2864
 2839TIP3   OH232711   4.008   1.926   8.216 -0.1151 -0.0982 -0.0287
 2839TIP3    H132712   4.094   1.892   8.242  0.8963  1.8324 -0.6256
 2839TIP3    H232713   4.011   2.019   8.239 -2.1271 -0.0089  0.0618
 2840TIP3   OH232714   1.358   6.707   9.308 -0.0523  0.1026  0.2509
 2840TIP3    H132715   1.315   6.776   9.358 -2.2067  0.4797 -1.9170
 2840TIP3    H232716   1.369   6.745   9.221  0.1637 -1.7363 -0.5549
 2841TIP3   OH232717   6.586   0.237   9.227 -0.4530 -0.0148  0.2478
 2841TIP3    H132718   6.674   0.212   9.253 -0.5600 -0.2004  0.4342
 2841TIP3    H232719   6.542   0.260   9.309 -0.6020  0.0057  0.1633
 2842TIP3   OH232720   4.883   4.433   9.071 -0.3380 -0.3958 -0.7593
 2842TIP3    H132721   4.970   4.428   9.111 -1.6857  0.9830  2.7914
 2842TIP3    H232722   4.890   4.500   9.004  1.8479 -2.0985 -2.3604
 2843TIP3   OH232723   1.470   3.210   8.777 -0.7726 -0.8478  0.5272
 2843TIP3    H132724   1.440   3.294   8.811 -2.1723 -1.5745  1.1620
 2843TIP3    H232725   1.478   3.223   8.682 -1.3353 -0.1059  0.5762
 2844TIP3   OH232726   3.717   0.021   6.650 -0.3080  0.2487  0.0849
 2844TIP3    H132727   3.651  -0.040   6.616  0.5853 -0.1796 -0.9480
 2844TIP3    H232728   3.779  -0.035   6.697 -1.4922  0.8269  2.4858
 2845TIP3   OH232729   3.175   6.142   9.320 -0.4939 -0.1220  0.1949
 2845TIP3    H132730   3.168   6.070   9.382 -1.1395 -0.9821 -0.8421
 2845TIP3    H232731   3.110   6.123   9.253 -0.9372  1.6252  0.0737
 2846TIP3   OH232732   6.784   2.696   8.057 -0.2517  0.2141  0.0567
 2846TIP3    H132733   6.817   2.619   8.012 -0.1625  0.7957 -0.8813
 2846TIP3    H232734   6.708   2.664   8.107 -0.5609 -0.3643 -0.7766
 2847TIP3   OH232735   4.844   0.331   7.892 -0.6380 -0.4488  0.3849
 2847TIP3    H132736   4.828   0.236   7.890 -2.9109 -0.1316  0.1918
 2847TIP3    H232737   4.905   0.347   7.821 -3.0056 -1.3916 -2.0354
 2848TIP3   OH232738   7.248   3.305   7.185  0.5045  0.4534 -0.1233
 2848TIP3    H132739   7.202   3.273   7.263 -0.2610 -0.4470 -0.9202
 2848TIP3    H232740   7.188   3.368   7.146  0.6330  0.4624 -0.3074
 2849TIP3   OH232741   0.994   5.449   7.800  0.2832 -0.3293  0.2735
 2849TIP3    H132742   1.064   5.443   7.736 -0.5515  1.5527 -0.8953
 2849TIP3    H232743   1.036   5.428   7.884  1.7532 -1.2403 -0.6498
 2850TIP3   OH232744   2.861   6.747   8.824 -0.0319  0.1591 -0.0952
 2850TIP3    H132745   2.874   6.827   8.772 -1.2071  0.0699 -0.5575
 2850TIP3    H232746   2.784   6.706   8.785  0.3285 -1.0064  0.3944
 2851TIP3   OH232747   3.371   4.304   8.540  0.0445  0.0123 -0.4086
 2851TIP3    H132748   3.379   4.244   8.466  0.0292 -0.2505 -0.1996
 2851TIP3    H232749   3.371   4.391   8.501  3.9563  0.1386 -0.4885
 2852TIP3   OH232750   0.840   2.078   9.006  0.1470 -0.2557 -0.7397
 2852TIP3    H132751   0.784   2.010   9.043 -0.1369 -0.4898 -1.5779
 2852TIP3    H232752   0.781   2.130   8.951  0.4768  0.3249 -0.5528
 2853TIP3   OH232753   6.361   1.270   8.377 -0.3401 -0.1931  0.2695
 2853TIP3    H132754   6.341   1.297   8.467  0.4502  0.9675  0.1263
 2853TIP3    H232755   6.442   1.220   8.385 -0.6961 -0.7690  0.2923
 2854TIP3   OH232756   7.498   7.287   8.204  0.1810  0.1919 -0.1813
 2854TIP3    H132757   7.422   7.336   8.235  0.8696  0.5004  1.1030
 2854TIP3    H232758   7.528   7.334   8.127 -0.0559  0.9253  0.1698
 2855TIP3   OH232759   4.483   3.775   7.933 -0.0485 -0.2272  0.6472
 2855TIP3    H132760   4.467   3.807   8.022  2.9410  2.8850  0.2672
 2855TIP3    H232761   4.451   3.845   7.876 -0.0019 -1.2462 -0.6875
 2856TIP3   OH232762   4.885   3.969   8.974  0.0401  0.5480  0.0741
 2856TIP3    H132763   4.902   4.057   8.939  1.3734  0.8363  1.3634
 2856TIP3    H232764   4.925   3.969   9.061 -2.5554 -0.3615  1.3803
 2857TIP3   OH232765   0.229   4.011   7.603 -0.0633 -0.0081 -0.1480
 2857TIP3    H132766   0.163   4.069   7.640 -0.5485 -1.2290  1.0069
 2857TIP3    H232767   0.227   3.934   7.660  2.0879 -0.2425 -0.3082
 2858TIP3   OH232768   4.506   3.183   9.050 -0.2604 -0.4102  0.3240
 2858TIP3    H132769   4.498   3.227   9.135 -0.3678 -0.0116  0.1059
 2858TIP3    H232770   4.454   3.103   9.060 -2.1128  0.6881 -0.0848
 2859TIP3   OH232771   7.383   6.233   7.473  0.7315  0.7879  0.0707
 2859TIP3    H132772   7.330   6.153   7.475  1.6260  0.1887  0.7517
 2859TIP3    H232773   7.367   6.274   7.557  0.6177  1.1067 -0.1050
 2860TIP3   OH232774   2.925   0.887   9.014 -0.4059 -0.8812 -0.1534
 2860TIP3    H132775   2.927   0.965   9.069 -0.6864 -0.5205 -0.6440
 2860TIP3    H232776   2.957   0.816   9.070  0.2211 -0.3382  0.1773
 2861TIP3   OH232777   5.801   7.090   9.441 -0.6075  0.3200 -0.3463
 2861TIP3    H132778   5.881   7.070   9.393 -0.7768  0.4070 -0.6661
 2861TIP3    H232779   5.825   7.163   9.499 -0.2328 -0.2014  0.1670
 2862TIP3   OH232780   3.111   5.948   8.187  0.0355 -0.0588 -0.2185
 2862TIP3    H132781   3.183   5.901   8.229  1.2622  2.0601  0.2107
 2862TIP3    H232782   3.084   6.013   8.253 -0.8105  0.5832 -1.1722
 2863TIP3   OH232783   7.355   2.905   8.312  0.1037 -0.5485 -0.0920
 2863TIP3    H132784   7.429   2.954   8.276 -0.6777 -0.4562 -1.6256
 2863TIP3    H232785   7.396   2.832   8.358  1.2674  1.1039  1.6838
 2864TIP3   OH232786   4.333   0.325   7.531 -0.2708  0.2821 -0.2218
 2864TIP3    H132787   4.329   0.250   7.590  2.7221 -0.5610 -0.9392
 2864TIP3    H232788   4.332   0.401   7.588  0.2520 -0.4303  0.7471
 2865TIP3   OH232789   1.684   4.642   7.725 -0.1252 -0.0325  0.3911
 2865TIP3    H132790   1.598   4.617   7.759 -0.5863 -0.5211 -1.0665
 2865TIP3    H232791   1.727   4.559   7.706  0.7399  0.2075  1.2240
 2866TIP3   OH232792   3.418   5.931   7.075 -0.2981  0.2885 -0.1384
 2866TIP3    H132793   3.426   5.930   6.980 -1.4535 -0.2874 -0.2529
 2866TIP3    H232794   3.507   5.943   7.107 -0.0468  1.9216 -1.3120
 2867TIP3   OH232795   1.215   4.084   7.312 -0.1081 -0.5450 -0.0296
 2867TIP3    H132796   1.289   4.024   7.321  1.5763  1.4277 -0.0410
 2867TIP3    H232797   1.253   4.171   7.324 -2.6538  0.4949  1.2370
 2868TIP3   OH232798   1.083   2.889   7.606  0.1315  0.1193 -0.3575
 2868TIP3    H132799   1.094   2.917   7.697 -0.1609  1.0603 -0.5986
 2868TIP3    H232800   1.162   2.840   7.586  0.2127 -0.0730  0.3916
 2869TIP3   OH232801   1.113   4.331   6.421 -0.3184  0.0428 -0.3083
 2869TIP3    H132802   1.027   4.368   6.406  0.2890  0.7582 -2.3953
 2869TIP3    H232803   1.119   4.258   6.359  0.6375  0.1487 -0.3586
 2870TIP3   OH232804   5.709   0.877   8.142  0.2829 -0.6464  0.1279
 2870TIP3    H132805   5.662   0.826   8.208  0.2228  1.5158  1.8906
 2870TIP3    H232806   5.640   0.914   8.087  0.0631  0.1260  0.8875
 2871TIP3   OH232807   3.957   5.779   9.364 -0.0259  0.6579 -0.0769
 2871TIP3    H132808   4.018   5.718   9.323  0.3478  1.1909 -0.3210
 2871TIP3    H232809   4.007   5.861   9.373 -0.4939  0.9063  0.3200
 2872TIP3   OH232810   0.890   0.862   8.464  0.3514 -0.3285 -0.3787
 2872TIP3    H132811   0.812   0.806   8.467  0.4544 -0.4518 -0.0152
 2872TIP3    H232812   0.885   0.914   8.544  1.0291 -0.8473 -0.0016
 2873TIP3   OH232813   4.631   0.582   8.383 -0.1311  0.2158 -0.0111
 2873TIP3    H132814   4.718   0.551   8.408 -0.6167 -0.1827  1.2929
 2873TIP3    H232815   4.646   0.639   8.308  1.2394  0.0727  0.1310
 2874TIP3   OH232816   3.588   2.404   9.498  0.0915  0.2570 -0.4035
 2874TIP3    H132817   3.534   2.366   9.567  0.0828  1.9242  0.5827
 2874TIP3    H232818   3.609   2.331   9.440 -1.5416 -0.8164  0.2867
 2875TIP3   OH232819   6.280   5.998   7.716  0.6110  0.3202  0.1419
 2875TIP3    H132820   6.340   6.009   7.790  0.4006 -0.0323  0.3691
 2875TIP3    H232821   6.292   5.907   7.689 -0.1693  0.0986  0.5021
 2876TIP3   OH232822   1.784   2.641   6.441 -0.5457 -0.0656 -0.4405
 2876TIP3    H132823   1.746   2.606   6.360  1.9519 -1.5928 -1.0461
 2876TIP3    H232824   1.824   2.565   6.484  1.6052  1.3562  0.2180
 2877TIP3   OH232825   5.853   6.032   8.986 -0.1185 -0.5301 -0.6788
 2877TIP3    H132826   5.851   5.937   8.974  1.3617 -0.4633 -1.5885
 2877TIP3    H232827   5.912   6.065   8.919 -2.4027  1.3101 -1.9754
 2878TIP3   OH232828   6.214   0.312   6.976  0.0370 -0.1634  0.5427
 2878TIP3    H132829   6.208   0.405   6.952 -1.3291 -0.6794 -1.3643
 2878TIP3    H232830   6.295   0.282   6.933 -0.7894 -0.3694 -0.9293
 2879TIP3   OH232831   5.725   7.182   9.053 -0.4128  0.1152 -0.0728
 2879TIP3    H132832   5.691   7.117   8.991 -1.6832  1.2418 -0.6150
 2879TIP3    H232833   5.683   7.159   9.136 -0.2614 -0.2029 -0.0811
 2880TIP3   OH232834   0.381   0.968   8.846 -0.2268 -0.0306 -0.0890
 2880TIP3    H132835   0.322   1.030   8.803 -0.5684  0.1332  0.5918
 2880TIP3    H232836   0.469   1.001   8.828 -0.4241  1.3695  1.2741
 2881TIP3   OH232837   3.722   1.886   9.772  0.9526  0.4552  0.1718
 2881TIP3    H132838   3.741   1.800   9.733 -1.3606  0.7119 -1.7262
 2881TIP3    H232839   3.790   1.897   9.838  1.9475 -2.3779 -0.2222
 2882TIP3   OH232840   4.039   1.012   9.419 -0.0138 -0.0281 -0.1195
 2882TIP3    H132841   3.976   0.991   9.489 -0.9989  0.0715 -0.9470
 2882TIP3    H232842   4.122   1.023   9.464 -0.3786 -1.1944  0.8960
 2883TIP3   OH232843   5.382   3.997   9.419  0.2029  0.0408 -0.1997
 2883TIP3    H132844   5.389   3.983   9.324  0.3512 -0.0588 -0.1740
 2883TIP3    H232845   5.471   3.984   9.452  0.1566  0.1027 -0.0497
 2884TIP3   OH232846   4.955   6.041   6.822  0.0122  0.0476 -0.0008
 2884TIP3    H132847   4.944   5.974   6.755  1.7252 -0.2658  0.0065
 2884TIP3    H232848   4.924   6.121   6.781 -1.7855 -0.6511 -0.1155
 2885TIP3   OH232849   1.430   6.155   7.682  0.1394  0.1747 -0.4362
 2885TIP3    H132850   1.346   6.161   7.727 -0.2173 -0.6829 -0.9638
 2885TIP3    H232851   1.485   6.221   7.725 -1.1657  1.6191 -0.8685
 2886TIP3   OH232852   5.090   6.619   9.494  0.0954 -0.4118  0.1385
 2886TIP3    H132853   5.139   6.565   9.432 -1.9485 -0.9535 -1.0931
 2886TIP3    H232854   5.020   6.658   9.442 -1.4782 -0.5751  2.0175
 2887TIP3   OH232855   4.486   3.936   9.582  0.1966 -0.7733 -0.2146
 2887TIP3    H132856   4.427   3.862   9.598  0.4177 -0.6751  1.2237
 2887TIP3    H232857   4.441   4.011   9.621 -0.0075 -0.1307 -1.6353
 2888TIP3   OH232858   6.576   7.361   7.609  0.1004  0.0951  0.1415
 2888TIP3    H132859   6.534   7.278   7.586 -2.5089  0.9394  1.4118
 2888TIP3    H232860   6.536   7.426   7.551  0.3745  0.8032  0.7246
 2889TIP3   OH232861   4.425   4.790   9.476  0.3620 -0.0395 -0.2518
 2889TIP3    H132862   4.498   4.740   9.512 -0.1359 -0.2190  0.5430
 2889TIP3    H232863   4.412   4.754   9.388  1.1266 -0.1014 -0.3509
 2890TIP3   OH232864   6.843   5.015   8.134 -0.5187  0.2796 -0.1936
 2890TIP3    H132865   6.747   5.018   8.127 -0.6941 -2.8701 -0.4409
 2890TIP3    H232866   6.861   4.938   8.187  1.9302  0.6602 -0.3674
 2891TIP3   OH232867   1.732   6.031   7.931  0.4275  0.2098 -0.1934
 2891TIP3    H132868   1.750   6.084   8.009 -1.2237  1.3993 -0.5812
 2891TIP3    H232869   1.754   5.942   7.959 -0.2036  0.5822  1.6898
 2892TIP3   OH232870   4.094   7.498   7.958  0.4002 -0.1578 -0.1445
 2892TIP3    H132871   4.139   7.450   8.027  0.3914 -0.1282 -0.1179
 2892TIP3    H232872   4.165   7.533   7.904  0.4008 -0.3422 -0.2601
 2893TIP3   OH232873   2.048   4.609   6.988 -0.5096  0.2073  0.3429
 2893TIP3    H132874   2.047   4.641   6.898 -2.9285 -0.0417  0.1963
 2893TIP3    H232875   2.039   4.687   7.041 -0.0597  0.2805  0.3094
 2894TIP3   OH232876   3.637   6.633   8.624 -0.4328  0.0412 -0.1297
 2894TIP3    H132877   3.557   6.588   8.595 -0.1927  0.3408 -1.3132
 2894TIP3    H232878   3.698   6.563   8.645 -0.3899 -0.2091 -1.0312
 2895TIP3   OH232879   0.072   6.211   9.104 -0.6514  0.3938  0.1931
 2895TIP3    H132880   0.157   6.186   9.066 -0.3926  0.6823  0.5706
 2895TIP3    H232881   0.033   6.129   9.134 -0.1255  0.3574  0.7913
 2896TIP3   OH232882   2.483   2.962   8.957 -0.4685  0.3629  0.3140
 2896TIP3    H132883   2.395   2.971   8.921 -0.0151  3.8505 -0.3332
 2896TIP3    H232884   2.470   2.961   9.052 -1.2267  0.9454  0.2279
 2897TIP3   OH232885   5.375   5.226   9.449  0.1262 -0.3970  0.0194
 2897TIP3    H132886   5.383   5.264   9.361  0.3752 -0.0467  0.1932
 2897TIP3    H232887   5.461   5.238   9.488 -0.2912  0.4409  0.7152
 2898TIP3   OH232888   4.656   0.250   8.226  0.5251 -0.0635  0.2352
 2898TIP3    H132889   4.736   0.218   8.268 -1.2834 -3.7799  1.2596
 2898TIP3    H232890   4.590   0.246   8.295 -1.2637 -0.4970 -1.4324
 2899TIP3   OH232891   4.916   6.815   7.624 -0.1302  0.5349 -0.3266
 2899TIP3    H132892   4.921   6.726   7.589  1.2662 -0.6987  2.6325
 2899TIP3    H232893   4.966   6.868   7.562  0.1809 -1.0129 -1.4637
 2900TIP3   OH232894   3.433   2.195   8.037  0.4444  0.1616 -0.1926
 2900TIP3    H132895   3.426   2.184   7.942  1.3031  0.0533 -0.2469
 2900TIP3    H232896   3.524   2.174   8.058  0.8608  2.2246  0.3639
 2901TIP3   OH232897   5.611   2.199   8.841 -0.7868  0.1317  0.0219
 2901TIP3    H132898   5.579   2.115   8.809 -1.1923 -0.8144  2.6725
 2901TIP3    H232899   5.643   2.243   8.762 -0.6553 -2.4189 -1.4862
 2902TIP3   OH232900   5.163   3.570   7.933 -0.0648  0.2804  0.3562
 2902TIP3    H132901   5.101   3.530   7.995 -1.5434  1.7093 -0.1067
 2902TIP3    H232902   5.108   3.596   7.859  1.5201 -0.5231 -1.1567
 2903TIP3   OH232903   5.372   0.865   6.623 -0.4345  0.1563 -0.3537
 2903TIP3    H132904   5.337   0.938   6.674 -0.0828 -0.2063  0.4205
 2903TIP3    H232905   5.460   0.893   6.598 -0.3249  0.0201 -0.1162
 2904TIP3   OH232906   3.211   3.602   8.286  0.1955 -0.7168  0.1372
 2904TIP3    H132907   3.201   3.658   8.209  0.9315  1.2734  1.3967
 2904TIP3    H232908   3.141   3.537   8.278  0.6430 -1.0063 -2.5079
 2905TIP3   OH232909   6.192   6.569   7.191 -0.6529  0.1374  0.0671
 2905TIP3    H132910   6.191   6.665   7.188 -1.7741  0.1914  1.2630
 2905TIP3    H232911   6.221   6.549   7.281  1.7965 -0.7033 -0.8254
 2906TIP3   OH232912   0.294   0.658   8.763  0.0276 -0.1585  0.0971
 2906TIP3    H132913   0.332   0.626   8.681  0.6090  0.5769  0.0767
 2906TIP3    H232914   0.331   0.745   8.775  0.5531 -0.5494  1.5436
 2907TIP3   OH232915   0.568   4.508   8.960 -0.7128 -0.6619 -0.2451
 2907TIP3    H132916   0.621   4.526   8.882 -1.8705 -1.4914 -1.2454
 2907TIP3    H232917   0.578   4.414   8.974 -0.0855 -0.4409  0.9605
 2908TIP3   OH232918   0.856   4.356   7.517 -0.2059  0.3679  0.3990
 2908TIP3    H132919   0.849   4.442   7.559 -0.5837  0.6208 -0.1671
 2908TIP3    H232920   0.932   4.364   7.459 -1.9805  1.3586 -1.9551
 2909TIP3   OH232921   7.395   3.763   9.206 -0.3558 -0.3284  0.3883
 2909TIP3    H132922   7.313   3.716   9.187 -0.6928  0.4301 -0.0971
 2909TIP3    H232923   7.386   3.846   9.159  0.3498  0.1036  0.9985
 2910TIP3   OH232924   3.632   5.328   9.482  0.2455 -0.0656 -0.2147
 2910TIP3    H132925   3.597   5.406   9.525  0.6466 -0.6222  1.1608
 2910TIP3    H232926   3.711   5.358   9.437 -1.4039  1.0240 -2.6308
 2911TIP3   OH232927   1.490   1.987   7.839  0.5154  0.2450 -0.3431
 2911TIP3    H132928   1.421   2.052   7.830  0.1149  0.1497  1.5911
 2911TIP3    H232929   1.556   2.028   7.895  0.1292 -1.0372  1.1462
 2912TIP3   OH232930   2.900   6.992   7.024  0.3017 -0.1088 -0.0027
 2912TIP3    H132931   2.935   7.017   6.939 -0.6878 -1.1938 -0.7680
 2912TIP3    H232932   2.813   7.031   7.027 -0.3084 -1.3747 -0.2121
 2913TIP3   OH232933   7.551   4.255   7.444  0.0955 -0.6308 -0.1161
 2913TIP3    H132934   7.465   4.218   7.463  0.7048 -1.0285  2.2414
 2913TIP3    H232935   7.547   4.344   7.480  0.5160 -0.4903 -0.4139
 2914TIP3   OH232936   0.921   0.437   7.180 -0.7114  0.7519  0.0770
 2914TIP3    H132937   0.934   0.505   7.246  2.1171 -0.9109  1.3764
 2914TIP3    H232938   0.879   0.365   7.227 -1.6061  0.7079 -0.7537
 2915TIP3   OH232939   7.364   0.843   9.430 -0.3737  0.6098 -0.6840
 2915TIP3    H132940   7.411   0.841   9.347  1.8696 -2.5901  0.4476
 2915TIP3    H232941   7.408   0.911   9.481  3.5662 -2.2828  0.3545
 2916TIP3   OH232942   4.021   6.059   8.575  0.0293  0.0330  0.6264
 2916TIP3    H132943   3.940   6.013   8.550  0.8371  0.0344 -2.2948
 2916TIP3    H232944   4.005   6.087   8.665 -2.8968 -0.7040  0.4450
 2917TIP3   OH232945   3.857   1.025   8.880 -0.3029  0.0928  0.1111
 2917TIP3    H132946   3.762   1.021   8.884 -0.2372 -1.4318  1.0982
 2917TIP3    H232947   3.880   1.106   8.926 -1.1397  1.4294 -1.6812
 2918TIP3   OH232948   2.598   4.282   7.745 -0.3728 -0.2692  0.7362
 2918TIP3    H132949   2.636   4.364   7.712 -0.4738 -0.6088 -0.2530
 2918TIP3    H232950   2.515   4.308   7.784 -0.2656  0.1425  0.6908
 2919TIP3   OH232951   1.657   4.653   6.957  0.4467 -0.3636 -0.3060
 2919TIP3    H132952   1.693   4.686   7.039  1.7742  0.1891 -1.0736
 2919TIP3    H232953   1.612   4.728   6.918 -0.4111 -0.6961  0.0275
 2920TIP3   OH232954   3.428   6.582   8.036  0.5482  0.3110  0.0017
 2920TIP3    H132955   3.364   6.608   8.102  0.4217  2.3046 -0.8228
 2920TIP3    H232956   3.401   6.627   7.956  1.8319 -0.4203 -0.8972
 2921TIP3   OH232957   5.606   2.225   7.682 -0.1833  0.1960 -0.2309
 2921TIP3    H132958   5.585   2.144   7.730 -0.9297 -0.6786 -1.9474
 2921TIP3    H232959   5.693   2.209   7.646 -0.7713 -0.3511 -1.4910
 2922TIP3   OH232960   2.528   5.671   7.891  0.4564 -0.3732 -0.1194
 2922TIP3    H132961   2.586   5.627   7.953  2.4260 -0.7037 -2.1120
 2922TIP3    H232962   2.530   5.617   7.813 -2.4112 -0.2558 -0.3718
 2923TIP3   OH232963   7.025   1.552   9.778  0.2478 -0.3283  1.0038
 2923TIP3    H132964   7.085   1.580   9.847  1.3066 -0.5072  0.1879
 2923TIP3    H232965   7.020   1.626   9.718 -2.8735  0.9386  2.5984
 2924TIP3   OH232966   4.085   1.428   9.034 -0.1225 -0.0082 -0.1032
 2924TIP3    H132967   4.086   1.523   9.022 -0.6400  0.1179  0.7849
 2924TIP3    H232968   4.174   1.406   9.061 -0.0702  0.2655 -0.0491
 2925TIP3   OH232969   4.643   2.653   7.527 -0.0880  0.3243 -0.2517
 2925TIP3    H132970   4.687   2.642   7.443  1.0081 -1.1304  0.4815
 2925TIP3    H232971   4.668   2.741   7.556  2.5300 -0.5079  0.2122
 2926TIP3   OH232972   5.136   0.428   7.828  0.5492 -0.1315  0.1488
 2926TIP3    H132973   5.173   0.447   7.914  0.7180 -0.2112  0.0932
 2926TIP3    H232974   5.128   0.332   7.827  1.1581 -0.1819 -0.1782
 2927TIP3   OH232975   2.994   5.019   7.595 -0.4683  0.4464  0.2728
 2927TIP3    H132976   3.062   5.005   7.661  0.7809 -1.2664 -1.2864
 2927TIP3    H232977   2.929   4.951   7.613 -1.7902  1.9832  1.6636
 2928TIP3   OH232978   6.340   1.409   7.649 -0.3110 -0.3948  0.6153
 2928TIP3    H132979   6.345   1.331   7.594  0.9692 -0.6111  1.0036
 2928TIP3    H232980   6.247   1.420   7.667 -0.5634 -1.4582  0.0287
 2929TIP3   OH232981   5.559   5.072   8.623  0.9615  0.1910  0.4478
 2929TIP3    H132982   5.467   5.094   8.640  0.2781 -0.3566 -2.1012
 2929TIP3    H232983   5.564   4.978   8.639  0.7665  0.0068 -0.5341
 2930TIP3   OH232984   4.314   7.458   6.833  0.0116  0.2210 -0.6799
 2930TIP3    H132985   4.261   7.509   6.773  0.2620  1.4685  0.1292
 2930TIP3    H232986   4.379   7.519   6.867 -0.4401 -0.2772  1.2586
 2931TIP3   OH232987   0.324   4.300   8.166  0.0118 -0.2342 -0.1857
 2931TIP3    H132988   0.381   4.243   8.217  0.9367 -0.0435 -0.9945
 2931TIP3    H232989   0.345   4.281   8.075 -0.2553  0.7975 -0.4772
 2932TIP3   OH232990   3.567   1.039   8.818  0.1926 -0.8593  0.2388
 2932TIP3    H132991   3.521   0.967   8.861 -1.2224 -0.6850 -0.9069
 2932TIP3    H232992   3.502   1.109   8.813  0.3921 -0.7489 -1.7937
 2933TIP3   OH232993   1.906   4.813   7.835  0.0122  0.4007 -0.0396
 2933TIP3    H132994   1.998   4.794   7.816 -0.0692  1.9029 -2.3827
 2933TIP3    H232995   1.865   4.727   7.842  1.4713 -0.2961  0.4033
 2934TIP3   OH232996   7.521   1.905   9.188 -0.0693  0.1167 -0.2902
 2934TIP3    H132997   7.498   1.988   9.228 -0.5282  0.3044 -0.9218
 2934TIP3    H232998   7.592   1.870   9.242 -0.8126  0.2538  0.8071
 2935TIP3   OH232999   0.649   5.580   9.368 -0.5613 -0.0892 -0.9095
 2935TIP3    H133000   0.695   5.504   9.402 -1.5422 -0.4587 -0.3859
 2935TIP3    H233001   0.705   5.655   9.392 -0.6008 -0.4559  0.3861
 2936TIP3   OH233002   3.656   7.411   9.541 -0.1085  0.0094  0.0241
 2936TIP3    H133003   3.575   7.429   9.493  1.2749  2.0797 -1.6989
 2936TIP3    H233004   3.709   7.360   9.480 -0.0487 -1.3796  1.1599
 2937TIP3   OH233005   5.560   0.297   8.877 -0.6994 -0.2125  0.2662
 2937TIP3    H133006   5.619   0.231   8.913  1.8201  2.3099  1.1966
 2937TIP3    H233007   5.616   0.373   8.862 -3.2744  1.5258 -1.3841
 2938TIP3   OH233008   4.268   2.513   7.885  0.2649  0.1398  0.1348
 2938TIP3    H133009   4.232   2.571   7.817  0.1382  0.1408  0.2019
 2938TIP3    H233010   4.203   2.443   7.893 -0.9835  1.4033  1.9923
 2939TIP3   OH233011   5.215   0.872   8.755 -0.1490  0.5848  0.4652
 2939TIP3    H133012   5.235   0.948   8.809 -0.8344  0.8456  0.3589
 2939TIP3    H233013   5.301   0.836   8.732  0.1787  1.2347  0.6442
 2940TIP3   OH233014   4.493   0.862   8.469 -0.3691 -0.8047 -0.1990
 2940TIP3    H133015   4.539   0.781   8.491  0.3744 -1.0814 -2.5799
 2940TIP3    H233016   4.551   0.908   8.409 -2.2988 -0.2094 -1.7119
 2941TIP3   OH233017   2.515   0.351   7.600  0.0118  0.3770  0.0208
 2941TIP3    H133018   2.569   0.350   7.680  0.2037  0.7846 -0.0973
 2941TIP3    H233019   2.571   0.392   7.534 -0.3475  0.5574 -0.1761
 2942TIP3   OH233020   3.063   5.775   7.749  0.3292  0.1470 -0.2611
 2942TIP3    H133021   3.048   5.814   7.662  0.7064 -1.0225 -0.8684
 2942TIP3    H233022   2.996   5.814   7.804  1.8756  3.1860 -0.3263
 2943TIP3   OH233023   4.412   2.087   7.314  0.1462  0.2003 -0.4386
 2943TIP3    H133024   4.412   2.183   7.310  1.4750  0.1904 -1.5722
 2943TIP3    H233025   4.321   2.064   7.330 -0.1416  1.6600  0.2292
 2944TIP3   OH233026   2.584   1.657   9.188 -0.3795  0.6359 -0.3611
 2944TIP3    H133027   2.556   1.576   9.231 -2.0100  1.2951 -0.1103
 2944TIP3    H233028   2.648   1.695   9.247  1.3565 -1.0477 -1.0619
 2945TIP3   OH233029   1.398   0.904   7.263  0.6089 -0.4646 -0.1433
 2945TIP3    H133030   1.428   0.983   7.308  1.3706 -1.5060  1.2504
 2945TIP3    H233031   1.302   0.909   7.266  0.6513 -0.1334  0.9330
 2946TIP3   OH233032   6.613   4.590   6.814 -0.3480  0.2789  0.4205
 2946TIP3    H133033   6.653   4.609   6.729 -1.0735  0.4430  0.1104
 2946TIP3    H233034   6.578   4.673   6.844  1.1452  0.5330  1.5671
 2947TIP3   OH233035   4.414   7.080   6.922  0.0184  0.3825  0.5126
 2947TIP3    H133036   4.328   7.122   6.917  0.5693  1.4964  0.2854
 2947TIP3    H233037   4.397   6.989   6.897 -1.4413  0.0795  2.3951
 2948TIP3   OH233038   6.718   6.567   9.428  0.4146  1.0107 -0.1410
 2948TIP3    H133039   6.812   6.552   9.439 -0.2399 -3.8938  0.9446
 2948TIP3    H233040   6.690   6.607   9.511  1.1597 -0.0660  0.6481
 2949TIP3   OH233041   1.647   2.469   7.640  0.1160  0.0021  0.5797
 2949TIP3    H133042   1.565   2.430   7.610  1.1666 -1.5812 -0.3922
 2949TIP3    H233043   1.623   2.520   7.717 -1.6189 -1.2446  0.9178
 2950TIP3   OH233044   4.313   6.596   7.990  0.0579 -0.1529  0.2628
 2950TIP3    H133045   4.247   6.529   8.006 -0.4696  0.6019  1.4638
 2950TIP3    H233046   4.389   6.568   8.041 -0.0062 -0.0714  0.4050
 2951TIP3   OH233047   0.343   1.641   9.440 -0.3912 -0.0497  0.5294
 2951TIP3    H133048   0.415   1.688   9.398 -0.0768 -0.5143  0.5418
 2951TIP3    H233049   0.384   1.564   9.479 -0.9399 -0.4544  0.3153
 2952TIP3   OH233050   6.735   5.831   7.911  0.3982 -0.5028 -0.4236
 2952TIP3    H133051   6.824   5.817   7.944 -0.1505  0.7628  1.7774
 2952TIP3    H233052   6.738   5.917   7.870  0.1678 -0.4138 -0.2541
 2953TIP3   OH233053   4.456   1.382   7.865 -0.6424  0.0979  0.0491
 2953TIP3    H133054   4.511   1.321   7.817  0.0215 -0.7223  1.7679
 2953TIP3    H233055   4.366   1.357   7.842 -0.3874 -1.6007  0.7330
 2954TIP3   OH233056   4.989   1.823   7.543  0.0121 -0.1012  0.0482
 2954TIP3    H133057   4.931   1.760   7.587  0.3510 -0.8924 -0.6160
 2954TIP3    H233058   4.937   1.904   7.539 -0.9636 -0.7295 -0.3184
 2955TIP3   OH233059   0.221   0.863   9.040 -0.3061  0.0968 -0.1313
 2955TIP3    H133060   0.289   0.888   8.978 -0.4066  1.0177  0.1095
 2955TIP3    H233061   0.254   0.893   9.125  1.0231 -3.3723  0.7591
 2956TIP3   OH233062   3.359   4.588   8.356  0.0557  0.2743 -0.0502
 2956TIP3    H133063   3.276   4.567   8.400  0.7307 -0.2985  0.9893
 2956TIP3    H233064   3.401   4.651   8.414  0.2839  0.6731 -0.6478
 2957TIP3   OH233065   2.969   5.220   9.585 -0.4315 -0.3327  0.5163
 2957TIP3    H133066   3.017   5.139   9.570  0.1536 -0.0303  0.6947
 2957TIP3    H233067   2.994   5.277   9.511 -0.3487 -0.1016  0.7189
 2958TIP3   OH233068   1.433   2.317   6.831 -0.9990  0.4915  0.4692
 2958TIP3    H133069   1.457   2.407   6.855 -1.9576  0.6807  0.7450
 2958TIP3    H233070   1.339   2.321   6.813 -0.6668 -0.0062 -1.6924
 2959TIP3   OH233071   0.929   6.427   8.866 -0.2316 -0.5003  0.5593
 2959TIP3    H133072   0.922   6.350   8.809  0.3576 -0.5386  0.5350
 2959TIP3    H233073   0.883   6.496   8.818 -0.6178 -0.7936  0.5046
 2960TIP3   OH233074   4.290   2.880   7.371  0.3530 -0.0139 -0.5812
 2960TIP3    H133075   4.282   2.916   7.459  0.1769 -0.6557 -0.3310
 2960TIP3    H233076   4.287   2.957   7.314 -0.4599  0.3411 -0.0875
 2961TIP3   OH233077   6.141   1.226   6.972  0.2637  0.0104  0.1490
 2961TIP3    H133078   6.152   1.273   6.889  0.1670  1.4609  0.9085
 2961TIP3    H233079   6.047   1.213   6.980  0.2948 -0.3745 -0.0886
 2962TIP3   OH233080   7.482   1.775   8.009 -0.6444 -0.5229 -0.0453
 2962TIP3    H133081   7.448   1.810   7.926 -2.0039  1.1427  1.1266
 2962TIP3    H233082   7.530   1.849   8.047  1.2638 -1.7427  0.0078
 2963TIP3   OH233083   4.481   1.997   7.921 -0.1507 -0.0061  0.2149
 2963TIP3    H133084   4.564   2.045   7.911  0.0264 -0.7211 -2.6812
 2963TIP3    H233085   4.414   2.065   7.927  0.1655  0.7462 -3.1186
 2964TIP3   OH233086   1.877   4.360   6.651 -0.1413 -0.0102  0.5938
 2964TIP3    H133087   1.839   4.397   6.731  0.1257 -1.1731  1.2826
 2964TIP3    H233088   1.865   4.266   6.661  1.0730 -0.2579 -0.1309
 2965TIP3   OH233089   2.982   0.649   7.780 -0.3087  0.6257  0.3045
 2965TIP3    H133090   2.923   0.669   7.852  0.5647 -1.4102  1.6862
 2965TIP3    H233091   3.067   0.636   7.822 -0.0221 -1.8883 -0.8397
 2966TIP3   OH233092   5.326   1.185   9.387 -0.1795 -0.6758  0.1150
 2966TIP3    H133093   5.381   1.152   9.316 -0.8094  1.1950 -1.3478
 2966TIP3    H233094   5.270   1.111   9.410  1.0341 -1.7704 -0.2765
 2967TIP3   OH233095   4.500   2.338   9.306 -0.7141  0.3786  0.1146
 2967TIP3    H133096   4.444   2.270   9.268 -0.2264 -0.0776  0.2035
 2967TIP3    H233097   4.545   2.376   9.231 -1.1935  0.7961  0.0350
 2968TIP3   OH233098   7.365   6.719   7.773  0.3526 -0.5595  0.2634
 2968TIP3    H133099   7.382   6.650   7.710  0.9852 -0.3294  0.1712
 2968TIP3    H233100   7.368   6.675   7.858  0.0095 -0.7781  0.1622
 2969TIP3   OH233101   7.338   4.964   8.755  0.3965  0.3349  0.0879
 2969TIP3    H133102   7.359   4.879   8.793 -1.0239  0.5374  1.4163
 2969TIP3    H233103   7.379   5.028   8.812  2.2572  0.5735 -1.4316
 2970TIP3   OH233104   6.680   2.206   8.322 -0.2046  0.5015 -0.8917
 2970TIP3    H133105   6.590   2.197   8.355  0.1773 -0.4899 -0.0742
 2970TIP3    H233106   6.723   2.264   8.385  0.2208 -0.5076 -0.2312
 2971TIP3   OH233107   0.107   7.409   8.356  0.0443  0.1177 -0.3876
 2971TIP3    H133108   0.045   7.478   8.381 -0.1302 -0.6689  1.4835
 2971TIP3    H233109   0.059   7.359   8.290 -1.0731 -0.0530  0.5102
 2972TIP3   OH233110   2.315   2.747   9.271  0.5452  0.3526  0.0240
 2972TIP3    H133111   2.354   2.832   9.249  1.7469 -0.1081  0.3294
 2972TIP3    H233112   2.356   2.722   9.353 -1.5496  0.5630  1.2019
 2973TIP3   OH233113   5.442   4.719   9.093  0.0628 -0.4701 -0.1655
 2973TIP3    H133114   5.425   4.626   9.078  0.5366 -0.8076  1.2504
 2973TIP3    H233115   5.436   4.730   9.188 -0.9561  1.1501 -0.3764
 2974TIP3   OH233116   1.366   3.264   7.148  0.6962  0.2114 -0.2953
 2974TIP3    H133117   1.292   3.238   7.202 -0.4000 -1.4296 -2.4143
 2974TIP3    H233118   1.441   3.261   7.206 -0.4712 -1.0282  1.2165
 2975TIP3   OH233119   3.658   0.976   7.434 -0.0080  0.1080  0.1092
 2975TIP3    H133120   3.658   0.880   7.441 -3.3885  0.1506  3.6346
 2975TIP3    H233121   3.565   1.000   7.439  0.8236  3.6435  0.8923
 2976TIP3   OH233122   1.033   4.739   8.673  0.4186 -0.0690  0.8241
 2976TIP3    H133123   1.074   4.669   8.724  0.0488  0.1388  1.4235
 2976TIP3    H233124   1.080   4.740   8.590 -0.3990 -1.8983  0.2900
 2977TIP3   OH233125   1.373   4.519   9.468  0.2580 -0.3517 -0.1247
 2977TIP3    H133126   1.400   4.540   9.379 -1.1972  0.3108 -0.4512
 2977TIP3    H233127   1.446   4.545   9.523 -0.2504  2.9019 -0.7859
 2978TIP3   OH233128   4.143   5.901   7.937  0.1179  0.4413  0.3407
 2978TIP3    H133129   4.117   5.910   7.845  1.4688 -2.7722 -0.4990
 2978TIP3    H233130   4.209   5.969   7.950 -2.6688  3.4353  0.1992
 2979TIP3   OH233131   5.174   3.143   8.572 -0.2353 -0.6537  0.1717
 2979TIP3    H133132   5.167   3.222   8.519  1.1911 -0.2755  0.4959
 2979TIP3    H233133   5.258   3.153   8.618 -0.0360 -2.3515  0.2216
 2980TIP3   OH233134   7.154   2.028   9.049  0.2862 -0.2924 -0.3791
 2980TIP3    H133135   7.193   2.115   9.047 -1.2035  0.4143 -1.0959
 2980TIP3    H233136   7.101   2.027   9.128  0.6796 -0.7372 -0.1169
 2981TIP3   OH233137   1.337   3.424   8.056 -0.2618 -0.3478  0.6096
 2981TIP3    H133138   1.346   3.513   8.092  1.5348 -0.2611  0.0210
 2981TIP3    H233139   1.422   3.383   8.071 -0.8672 -1.7774  0.3119
 2982TIP3   OH233140   1.608   0.762   7.598 -0.3442  0.3114  0.5057
 2982TIP3    H133141   1.524   0.805   7.612 -0.3649 -0.2986  2.5217
 2982TIP3    H233142   1.624   0.712   7.678  0.3987 -2.2581 -1.1325
 2983TIP3   OH233143   7.515   7.471   7.738 -0.3059  0.8938 -0.1383
 2983TIP3    H133144   7.573   7.436   7.671 -0.3303  0.5058  0.0365
 2983TIP3    H233145   7.539   7.423   7.818  0.4640  2.1166  0.3858
 2984TIP3   OH233146   1.098   5.730   7.158  0.1871 -0.7146  0.4160
 2984TIP3    H133147   1.084   5.664   7.090  1.1660  0.2439 -0.7408
 2984TIP3    H233148   1.046   5.805   7.131  2.1717  0.4223 -0.4012
 2985TIP3   OH233149   7.016   6.637   9.418  0.2002  0.1747  0.0685
 2985TIP3    H133150   6.973   6.671   9.340  0.5612 -0.2347 -0.3167
 2985TIP3    H233151   7.102   6.608   9.387 -0.1129 -1.1245  0.3687
 2986TIP3   OH233152   3.345   3.506   8.743  0.2185  0.4023 -0.7179
 2986TIP3    H133153   3.374   3.416   8.730 -0.9009  0.1122 -1.2677
 2986TIP3    H233154   3.358   3.548   8.658 -0.4067  0.4320 -0.7992
 2987TIP3   OH233155   6.669   1.715   8.411 -0.1959  0.0907  0.5124
 2987TIP3    H133156   6.579   1.746   8.404  0.6973  3.0182  0.7289
 2987TIP3    H233157   6.699   1.745   8.496  1.5400  0.9053 -0.3306
 2988TIP3   OH233158   4.237   4.443   8.378 -0.5090  0.0240 -0.4119
 2988TIP3    H133159   4.278   4.375   8.433 -0.6854 -1.4103 -1.9860
 2988TIP3    H233160   4.261   4.525   8.421  1.0389 -0.9384  0.7041
 2989TIP3   OH233161   2.570   2.242   9.004 -0.0520  0.0424 -0.7324
 2989TIP3    H133162   2.658   2.207   9.022 -0.5606 -0.9446 -0.0894
 2989TIP3    H233163   2.565   2.246   8.909  0.5144 -0.3644 -0.7837
 2990TIP3   OH233164   6.430   1.266   9.297 -0.2934 -0.0624  0.7142
 2990TIP3    H133165   6.363   1.270   9.229 -0.4490  0.9201  0.9147
 2990TIP3    H233166   6.461   1.176   9.294  0.0445  0.0745 -0.9860
 2991TIP3   OH233167   7.207   1.597   8.555 -0.0277  0.0220 -0.5268
 2991TIP3    H133168   7.130   1.648   8.532 -0.4482 -0.6679 -0.6785
 2991TIP3    H233169   7.219   1.611   8.649  0.0354  0.6170 -0.6164
 2992TIP3   OH233170   3.812   6.912   8.908  0.6150  0.7471  0.2205
 2992TIP3    H133171   3.763   6.964   8.845  0.6119 -1.4667 -1.7622
 2992TIP3    H233172   3.769   6.928   8.992 -0.6818  2.2414 -0.6748
 2993TIP3   OH233173   2.825   3.990   9.744 -0.4432 -0.0835  0.2800
 2993TIP3    H133174   2.867   4.065   9.787 -1.9249  1.1782 -0.3699
 2993TIP3    H233175   2.732   4.013   9.743 -0.8450 -1.6407 -0.5434
 2994TIP3   OH233176   5.935   0.672   8.350 -0.4496  0.0309 -0.1971
 2994TIP3    H133177   6.029   0.680   8.370 -0.3858  0.2570 -0.5634
 2994TIP3    H233178   5.924   0.722   8.268 -1.3234  1.9971  1.0458
 2995TIP3   OH233179   0.455   4.880   8.785 -0.4266  0.1514  0.6374
 2995TIP3    H133180   0.385   4.853   8.845 -0.6307  2.3563  1.5003
 2995TIP3    H233181   0.429   4.846   8.700 -1.1574 -1.3733  1.4417
 2996TIP3   OH233182   5.577   1.696   9.369 -0.1187  0.0869  0.2096
 2996TIP3    H133183   5.661   1.704   9.324 -1.4248  2.2444 -2.0925
 2996TIP3    H233184   5.594   1.730   9.457  2.0137 -2.2175  0.8139
 2997TIP3   OH233185   0.982   6.699   9.022 -0.3919 -0.6035  0.3061
 2997TIP3    H133186   0.927   6.688   8.945  0.0402  0.2923 -0.1474
 2997TIP3    H233187   1.071   6.689   8.990  0.0273  2.9075 -0.0259
 2998TIP3   OH233188   0.268   3.292   7.792 -0.4859  0.0652 -0.5961
 2998TIP3    H133189   0.258   3.300   7.697 -0.6175 -0.9056 -0.6692
 2998TIP3    H233190   0.325   3.366   7.816  1.1698 -0.7930 -1.7100
 2999TIP3   OH233191   4.900   6.184   8.170  0.4529  0.4496 -0.4866
 2999TIP3    H133192   4.914   6.237   8.091  0.7850  0.7141 -0.2535
 2999TIP3    H233193   4.896   6.094   8.138 -3.5384  0.7366 -1.3563
 3000TIP3   OH233194   0.261   3.022   8.269  0.5695 -0.1603 -0.1662
 3000TIP3    H133195   0.285   3.071   8.191  2.7955 -0.9849 -0.0800
 3000TIP3    H233196   0.200   2.955   8.239 -0.1306  0.7537 -0.8151
 3001TIP3   OH233197   4.698   6.300   9.762  0.4990 -0.3393  0.7105
 3001TIP3    H133198   4.719   6.256   9.679 -1.2335  1.4423 -0.7741
 3001TIP3    H233199   4.627   6.247   9.799 -0.6516  0.3704 -0.3972
 3002TIP3   OH233200   5.817   4.011   7.779  0.0147  0.0802 -0.1921
 3002TIP3    H133201   5.886   3.967   7.729 -0.5350 -0.5266 -0.4439
 3002TIP3    H233202   5.829   3.981   7.869  0.9580  1.1113  0.0504
 3003TIP3   OH233203   0.148   0.919   7.931 -0.5586  0.1279 -0.4335
 3003TIP3    H133204   0.204   0.977   7.983  0.6089  0.5352 -2.0657
 3003TIP3    H233205   0.200   0.898   7.853 -0.3964 -4.0911  0.5449
 3004TIP3   OH233206   1.243   3.206   8.321 -0.1948 -0.1426 -0.1866
 3004TIP3    H133207   1.337   3.220   8.332 -0.2419 -0.8638  1.4470
 3004TIP3    H233208   1.204   3.292   8.337  0.2401  0.5544 -2.5017
 3005TIP3   OH233209   0.774   5.737   7.510 -0.3219  0.2545  0.4612
 3005TIP3    H133210   0.754   5.706   7.598 -1.0390 -1.4690 -0.2470
 3005TIP3    H233211   0.868   5.722   7.500 -0.3050  0.1194  0.8083
 3006TIP3   OH233212   2.045   3.419   8.239  0.5181 -0.9783  0.8114
 3006TIP3    H133213   2.098   3.341   8.225  0.8343 -0.9526  1.7748
 3006TIP3    H233214   1.963   3.402   8.192  1.0961 -1.3252 -0.0857
 3007TIP3   OH233215   5.317   0.184   8.429 -0.0678 -0.4455 -0.1299
 3007TIP3    H133216   5.372   0.252   8.390  1.1319 -1.6742 -0.6419
 3007TIP3    H233217   5.327   0.198   8.524  0.1316  0.1076 -0.2252
 3008TIP3   OH233218   2.703   5.142   8.244 -0.8304 -0.1226 -0.4219
 3008TIP3    H133219   2.714   5.224   8.195 -0.9587  0.3805  0.3868
 3008TIP3    H233220   2.758   5.152   8.322  0.0651 -1.2759 -0.8627
 3009TIP3   OH233221   1.118   3.480   8.822  0.1219  0.4799  0.2156
 3009TIP3    H133222   1.211   3.469   8.841 -0.0787 -2.7063 -0.0873
 3009TIP3    H233223   1.093   3.398   8.780 -2.4435  1.9740 -1.4227
 3010TIP3   OH233224   0.595   5.399   6.853  0.3201  0.1306 -0.1527
 3010TIP3    H133225   0.619   5.489   6.831  0.3822  0.3966  0.9512
 3010TIP3    H233226   0.499   5.402   6.862  0.3775  0.2358  0.4823
 3011TIP3   OH233227   0.598   4.249   8.948  0.2491 -0.1445  0.0240
 3011TIP3    H133228   0.688   4.218   8.934  0.3630  0.7102 -1.2865
 3011TIP3    H233229   0.552   4.228   8.866 -0.6218 -0.1372  0.4996
 3012TIP3   OH233230   4.132   1.186   7.316  0.3192 -0.5435 -0.1412
 3012TIP3    H133231   4.171   1.137   7.387 -1.3271 -2.4727 -0.4983
 3012TIP3    H233232   4.206   1.234   7.277  1.5414 -0.8092  1.7265
 3013TIP3   OH233233   1.603   3.182   7.308 -0.1210 -0.2757  0.6181
 3013TIP3    H133234   1.661   3.105   7.310 -1.9377 -1.8360 -1.4626
 3013TIP3    H233235   1.525   3.153   7.356 -0.5998  0.4762  0.2986
 3014TIP3   OH233236   5.156   1.611   9.324  0.1566 -0.6839 -0.5403
 3014TIP3    H133237   5.195   1.550   9.386  0.5608 -0.4791 -0.5890
 3014TIP3    H233238   5.061   1.603   9.338  0.2418 -0.6583  0.0846
 3015TIP3   OH233239   3.201   5.995   9.535  0.8606 -0.1668 -0.1010
 3015TIP3    H133240   3.183   6.079   9.577  1.5771 -0.1342  0.1484
 3015TIP3    H233241   3.128   5.939   9.562 -0.1152  0.6246 -1.0071
 3016TIP3   OH233242   1.054   0.374   8.927  0.5746  0.4885 -0.3177
 3016TIP3    H133243   1.116   0.308   8.895  0.3308  0.4003 -0.6159
 3016TIP3    H233244   1.036   0.349   9.018  0.1301 -0.1296 -0.5688
 3017TIP3   OH233245   4.097   1.023   7.633 -0.6758  0.2771 -0.5356
 3017TIP3    H133246   4.023   0.998   7.577 -1.9824  2.9484 -0.1655
 3017TIP3    H233247   4.098   0.957   7.702 -1.5808 -0.8098 -1.5096
 3018TIP3   OH233248   5.482   3.469   8.044 -0.2434 -0.0483  0.0310
 3018TIP3    H133249   5.537   3.411   8.096  0.6701  1.0155  0.3097
 3018TIP3    H233250   5.464   3.543   8.102 -0.4634  0.4634 -0.6703
 3019TIP3   OH233251   0.086   4.205   7.758 -0.0403 -0.0418  0.5406
 3019TIP3    H133252   0.110   4.297   7.765 -0.3406  0.1088 -0.2658
 3019TIP3    H233253   0.107   4.167   7.843 -0.9256  1.0096  1.2509
 3020TIP3   OH233254   0.717   2.254   9.220 -0.2898 -0.6906 -0.3987
 3020TIP3    H133255   0.660   2.246   9.144  1.0585 -0.7189 -1.4529
 3020TIP3    H233256   0.754   2.166   9.231 -0.1563 -0.5838  0.0274
 3021TIP3   OH233257   6.240   4.621   8.032  0.3976 -0.2627  0.0458
 3021TIP3    H133258   6.159   4.630   8.082  1.1315  0.6289  1.1125
 3021TIP3    H233259   6.288   4.552   8.077  0.7945  0.1157  0.2065
 3022TIP3   OH233260   3.731   2.948   7.661 -0.4859  0.0013  0.5128
 3022TIP3    H133261   3.673   3.003   7.609 -0.9121  0.3091  1.3153
 3022TIP3    H233262   3.706   2.963   7.752  1.2205  0.6004  0.9366
 3023TIP3   OH233263   2.082   2.320   9.518 -0.2292  0.4928 -0.6152
 3023TIP3    H133264   2.090   2.408   9.480  1.8594  0.8131  0.3885
 3023TIP3    H233265   2.148   2.268   9.470 -0.6031 -0.2105 -0.3767
 3024TIP3   OH233266   5.433   2.001   8.144  0.7296 -0.6062  0.1982
 3024TIP3    H133267   5.343   1.973   8.131  0.1203 -0.0800  2.8416
 3024TIP3    H233268   5.442   2.078   8.087  0.1478 -1.7324 -1.4913
 3025TIP3   OH233269   6.344   0.742   9.530  0.0851  0.0027  0.6770
 3025TIP3    H133270   6.326   0.649   9.537  0.4597 -0.0870  0.4758
 3025TIP3    H233271   6.258   0.784   9.534 -0.1514 -0.4035 -0.0700
 3026TIP3   OH233272   0.304   6.563   9.013  0.5415 -0.8804  0.0593
 3026TIP3    H133273   0.336   6.575   8.924  0.3315 -2.0324 -0.1825
 3026TIP3    H233274   0.320   6.471   9.033 -1.8744 -1.3463  0.1901
 3027TIP3   OH233275   5.948   3.157   9.192 -0.1782  0.1144 -0.3533
 3027TIP3    H133276   5.992   3.148   9.277 -2.5941  0.4580  1.0227
 3027TIP3    H233277   6.018   3.145   9.128  1.7466 -0.1699  1.6622
 3028TIP3   OH233278   5.599   1.267   6.910 -0.7383 -0.1376  0.0746
 3028TIP3    H133279   5.528   1.205   6.925 -1.8815  0.4680 -2.4019
 3028TIP3    H233280   5.566   1.327   6.843  1.8943  0.4983 -0.7869
 3029TIP3   OH233281   1.866   0.649   8.793 -0.3308  0.2209  0.2379
 3029TIP3    H133282   1.826   0.614   8.713 -1.6433 -1.1581  1.4363
 3029TIP3    H233283   1.800   0.708   8.829  0.4673  1.2487  0.0528
 3030TIP3   OH233284   7.246   0.357   7.898 -0.0937  0.4693  0.4439
 3030TIP3    H133285   7.258   0.310   7.816 -0.8815 -0.5402  0.8840
 3030TIP3    H233286   7.233   0.448   7.872 -0.6155  0.1198 -0.5675
 3031TIP3   OH233287   7.331   3.563   7.995 -0.9545  0.0940  0.0277
 3031TIP3    H133288   7.257   3.622   8.012 -1.0744 -0.1440  0.3211
 3031TIP3    H233289   7.302   3.478   8.026  0.2981  0.4369  2.3402
 3032TIP3   OH233290   3.791   6.494   9.094 -0.1638 -0.1503  0.6537
 3032TIP3    H133291   3.727   6.443   9.045  1.2360 -1.8527  0.4816
 3032TIP3    H233292   3.797   6.450   9.179  1.5709 -0.7402  0.2612
 3033TIP3   OH233293   3.200   1.224   9.371  0.4708 -0.4229 -0.0824
 3033TIP3    H133294   3.114   1.209   9.409 -0.3123  0.3945 -1.4754
 3033TIP3    H233295   3.220   1.316   9.391  0.3499 -0.1815 -1.0499
 3034TIP3   OH233296   5.827   0.264   6.851  0.2668  0.1478  0.7515
 3034TIP3    H133297   5.885   0.190   6.870 -1.4268 -1.2900  0.5996
 3034TIP3    H233298   5.882   0.327   6.805  1.8333 -0.8992  1.1308
 3035TIP3   OH233299   0.861   1.669   8.857 -0.3368  0.2465  0.8242
 3035TIP3    H133300   0.915   1.620   8.919  1.0921 -0.4522 -0.8724
 3035TIP3    H233301   0.771   1.655   8.887  0.2227 -1.1463  1.9679
 3036TIP3   OH233302   0.195   6.436   8.349  0.6203 -0.3294 -0.2318
 3036TIP3    H133303   0.152   6.353   8.329  1.3405 -0.6394 -0.5046
 3036TIP3    H233304   0.123   6.495   8.373  0.1030 -1.0156 -0.0794
 3037TIP3   OH233305   1.585   4.983   7.816 -0.1826  0.5286 -0.0256
 3037TIP3    H133306   1.509   4.932   7.787 -0.5259  0.8191  0.3565
 3037TIP3    H233307   1.597   4.958   7.908  0.8731 -0.3570 -0.3687
 3038TIP3   OH233308   4.285   3.732   8.517 -0.2364 -0.2612 -0.0706
 3038TIP3    H133309   4.374   3.716   8.549  0.4982  1.7496 -1.0128
 3038TIP3    H233310   4.276   3.827   8.514 -2.5420 -0.3950  0.2540
 3039TIP3   OH233311   0.932   2.908   8.396  0.3408 -0.3699 -0.0715
 3039TIP3    H133312   0.987   2.914   8.319  0.4347  1.4755  0.0845
 3039TIP3    H233313   0.846   2.939   8.367 -0.0956 -1.3345  0.1569
 3040TIP3   OH233314   6.261   1.745   8.194 -0.1729  0.1020  0.1715
 3040TIP3    H133315   6.193   1.795   8.238 -2.0000  0.0698 -2.3800
 3040TIP3    H233316   6.316   1.812   8.151  0.1944  0.0485  0.5479
 3041TIP3   OH233317   0.428   3.331   7.382 -0.0746 -0.2418  0.0149
 3041TIP3    H133318   0.411   3.245   7.421  0.1162 -0.1308  0.3455
 3041TIP3    H233319   0.350   3.382   7.402 -1.2304 -1.0087 -2.1614
 3042TIP3   OH233320   4.500   0.454   8.106  0.6993 -0.2254 -0.2103
 3042TIP3    H133321   4.560   0.527   8.120  0.0248  0.0564  1.5289
 3042TIP3    H233322   4.553   0.376   8.123  0.5633  0.0272  1.5703
 3043TIP3   OH233323   3.751   0.713   7.758 -0.3644 -0.1762  0.2810
 3043TIP3    H133324   3.680   0.710   7.822 -1.3364 -0.1100 -0.7576
 3043TIP3    H233325   3.800   0.792   7.780  0.0402 -0.7775  1.6523
 3044TIP3   OH233326   1.938   2.891   7.532 -0.6616  0.1372  0.0365
 3044TIP3    H133327   1.931   2.796   7.541 -1.7222  0.2709  0.7667
 3044TIP3    H233328   1.924   2.908   7.439  1.9592 -0.5917 -0.5651
 3045TIP3   OH233329   2.405   0.866   8.525  0.1942 -0.5727 -0.3460
 3045TIP3    H133330   2.320   0.908   8.535  0.1011 -0.8143 -0.1063
 3045TIP3    H233331   2.435   0.850   8.615 -0.0454 -1.5657 -0.4294
 3046TIP3   OH233332   1.507   4.031   8.203  0.4169 -0.1023  0.0006
 3046TIP3    H133333   1.561   4.106   8.229  1.0379 -0.3286 -0.6196
 3046TIP3    H233334   1.510   4.031   8.107 -1.5448  0.5006 -0.1142
 3047TIP3   OH233335   0.077   3.028   7.732 -0.6754  0.1417  0.0159
 3047TIP3    H133336   0.077   3.106   7.788  0.4870 -0.0162  0.2582
 3047TIP3    H233337   0.143   2.970   7.771 -0.1877 -0.1738 -1.2385
 3048TIP3   OH233338   4.954   1.568   8.515  0.3088  0.1408 -0.0639
 3048TIP3    H133339   4.979   1.489   8.467  1.9991  0.3760  0.3914
 3048TIP3    H233340   4.858   1.563   8.520  0.3695 -1.7972 -0.1756
 3049TIP3   OH233341   7.111   7.511   6.961 -0.5905 -0.1531 -0.5586
 3049TIP3    H133342   7.175   7.531   7.029 -0.7676  3.0058 -1.1464
 3049TIP3    H233343   7.152   7.441   6.909  1.2069 -0.0229  0.5891
 3050TIP3   OH233344   0.477   6.359   9.142  0.3551  0.2528  0.5475
 3050TIP3    H133345   0.429   6.276   9.134 -0.6870  0.9645 -0.8385
 3050TIP3    H233346   0.569   6.334   9.135  0.0665 -0.8082  0.3950
 3051TIP3   OH233347   1.090   0.245   7.825 -0.3591  0.2924  0.0016
 3051TIP3    H133348   1.060   0.155   7.832 -2.5491  0.9527 -0.0891
 3051TIP3    H233349   1.057   0.275   7.740  1.8459  0.6966 -0.7704
 3052TIP3   OH233350   4.653   0.439   8.650  0.4688 -0.2286  0.1908
 3052TIP3    H133351   4.667   0.499   8.577 -0.6041  0.4160  0.5103
 3052TIP3    H233352   4.662   0.352   8.611  0.5410  0.1147 -0.5712
 3053TIP3   OH233353   5.945   2.537   8.455 -0.3973 -0.3536 -0.2034
 3053TIP3    H133354   5.942   2.510   8.363 -1.2126 -0.8559 -0.0336
 3053TIP3    H233355   5.884   2.479   8.499 -2.8966  2.2732  0.0712
 3054TIP3   OH233356   5.919   2.082   8.920 -0.5184  0.8801 -0.1001
 3054TIP3    H133357   5.866   2.030   8.859  0.8225  0.8755 -1.3272
 3054TIP3    H233358   5.864   2.092   8.997 -1.2849 -1.3164 -0.2970
 3055TIP3   OH233359   4.215   4.230   9.753  0.1345 -0.7923 -0.3274
 3055TIP3    H133360   4.257   4.201   9.672 -1.1874 -1.4673 -0.7935
 3055TIP3    H233361   4.182   4.150   9.793 -1.7209 -0.1945 -0.5689
 3056TIP3   OH233362   4.453   5.720   8.862  0.0413  0.6224  0.4632
 3056TIP3    H133363   4.431   5.628   8.879  1.2089 -0.2365 -2.1014
 3056TIP3    H233364   4.546   5.728   8.883 -0.1364  1.3543  1.0345
 3057TIP3   OH233365   6.071   4.037   9.260  0.1827 -0.6318  0.1561
 3057TIP3    H133366   6.149   4.012   9.211 -0.3522 -1.7616 -0.1614
 3057TIP3    H233367   6.032   3.954   9.287 -0.5332 -0.0698  0.9226
 3058TIP3   OH233368   4.896   0.868   9.556  0.2990 -0.3523  0.0003
 3058TIP3    H133369   4.941   0.789   9.526  1.0045  0.3037 -0.7443
 3058TIP3    H233370   4.956   0.907   9.620 -0.2794 -0.6788  0.7503
 3059TIP3   OH233371   1.972   2.866   8.588 -0.2373  0.1708 -0.1072
 3059TIP3    H133372   1.939   2.954   8.603  0.6158  0.2042  1.9468
 3059TIP3    H233373   2.051   2.860   8.642 -0.0348 -1.7154 -0.5270
 3060TIP3   OH233374   2.867   5.366   8.804  0.4007  0.2107  0.5077
 3060TIP3    H133375   2.798   5.375   8.738  1.5613 -0.8345 -0.9254
 3060TIP3    H233376   2.919   5.446   8.796  0.5238  0.0986  0.1387
 3061TIP3   OH233377   3.392   3.530   9.228  0.1757  0.2987  0.6209
 3061TIP3    H133378   3.300   3.506   9.237 -0.1041  0.8217 -0.6534
 3061TIP3    H233379   3.396   3.621   9.258 -0.3529  1.3237 -2.1837
 3062TIP3   OH233380   4.459   3.174   9.682 -0.2177  0.2512  0.0654
 3062TIP3    H133381   4.487   3.250   9.630 -0.9862  0.0476 -0.6624
 3062TIP3    H233382   4.541   3.128   9.702  0.2680  1.2996  0.5883
 3063TIP3   OH233383   2.074   0.055   9.495  0.2477 -0.0454  0.8725
 3063TIP3    H133384   2.029  -0.013   9.545 -1.4220  0.6657  0.4113
 3063TIP3    H233385   2.013   0.129   9.495  1.0225  0.6343 -0.6148
 3064TIP3   OH233386   2.812   4.252   9.370  1.0352  0.4121  0.0826
 3064TIP3    H133387   2.775   4.301   9.296  2.0493  0.8402 -0.1612
 3064TIP3    H233388   2.906   4.252   9.354  1.0177 -2.7764 -0.6058
 3065TIP3   OH233389   7.522   2.796   7.049 -0.0603 -0.4682 -0.7737
 3065TIP3    H133390   7.582   2.722   7.038  2.3386  1.5856 -2.7442
 3065TIP3    H233391   7.496   2.819   6.959 -0.0941  1.5503 -0.2966
 3066TIP3   OH233392   4.092   3.668   9.472 -0.0994 -0.7183 -0.2318
 3066TIP3    H133393   4.008   3.623   9.473 -0.4767 -0.0513  1.9171
 3066TIP3    H233394   4.152   3.610   9.518  0.2313 -0.4612 -0.3321
 3067TIP3   OH233395   5.104   5.986   9.376  0.8902  0.0869 -0.0585
 3067TIP3    H133396   5.153   6.004   9.296  0.4142  0.8626 -0.1918
 3067TIP3    H233397   5.160   5.928   9.427  1.9470  0.9538 -0.1962
 3068TIP3   OH233398   6.825   5.768   8.176  0.0705  0.0464  0.0951
 3068TIP3    H133399   6.884   5.700   8.209  0.0140  0.8919  2.0795
 3068TIP3    H233400   6.738   5.730   8.185  0.1325 -0.1621 -0.1807
 3069TIP3   OH233401   6.707   7.482   9.234  0.0179  0.3238  0.3495
 3069TIP3    H133402   6.676   7.392   9.231  1.0473 -0.0261 -0.4107
 3069TIP3    H233403   6.644   7.528   9.290 -1.3062 -0.5468 -0.3724
 3070TIP3   OH233404   0.272   7.386   7.093  0.3425 -0.6682 -0.6446
 3070TIP3    H133405   0.246   7.298   7.065 -0.9137 -0.0804 -1.4450
 3070TIP3    H233406   0.210   7.408   7.162  1.0741 -0.6535  0.0174
 3071TIP3   OH233407   2.882   6.227   7.715  0.4722 -0.2396  0.2819
 3071TIP3    H133408   2.804   6.188   7.676  0.4970  2.6277 -3.1933
 3071TIP3    H233409   2.849   6.296   7.772  0.3509  0.8647 -1.0615
 3072TIP3   OH233410   1.791   5.168   7.952 -0.2299  0.0353  0.0670
 3072TIP3    H133411   1.853   5.108   7.993  0.0620  1.1424  1.3438
 3072TIP3    H233412   1.801   5.153   7.858  0.5240 -1.2067  0.3229
 3073TIP3   OH233413   1.934   5.055   8.758  0.1362 -0.1771  0.2435
 3073TIP3    H133414   2.024   5.037   8.733 -0.5328 -0.9213 -1.8611
 3073TIP3    H233415   1.906   4.978   8.807 -0.2521 -1.4121 -1.7953
 3074TIP3   OH233416   3.440   5.238   9.195 -0.1366 -0.3812 -0.5282
 3074TIP3    H133417   3.514   5.299   9.198 -0.1972 -0.2947 -0.7905
 3074TIP3    H233418   3.481   5.152   9.190 -0.0458 -0.3900  0.2300
 3075TIP3   OH233419   6.226   6.017   7.085  0.2810  0.1613 -0.4480
 3075TIP3    H133420   6.277   6.022   7.165  0.0008 -0.3999 -0.2277
 3075TIP3    H233421   6.136   6.004   7.114 -0.2582  2.6643 -0.7804
 3076TIP3   OH233422   2.380   2.333   8.481 -0.1577  0.2691 -0.2740
 3076TIP3    H133423   2.372   2.423   8.511  1.4653  0.6454 -0.8668
 3076TIP3    H233424   2.384   2.339   8.386  0.4444 -0.3697 -0.2984
 3077TIP3   OH233425   2.832   1.758   7.168 -0.4526  0.2824 -0.0066
 3077TIP3    H133426   2.831   1.829   7.104  0.7743 -0.4593 -0.8944
 3077TIP3    H233427   2.820   1.678   7.117 -0.4781 -0.2586  0.8127
 3078TIP3   OH233428   3.697   2.806   8.139  0.2471 -0.8172 -0.3866
 3078TIP3    H133429   3.730   2.738   8.080  0.6227  0.5112 -1.7691
 3078TIP3    H233430   3.776   2.841   8.181  0.3042  0.1767 -1.2808
 3079TIP3   OH233431   5.151   2.574   8.735 -0.7253 -0.0858 -0.2583
 3079TIP3    H133432   5.199   2.525   8.801 -0.4093  0.0825 -0.3620
 3079TIP3    H233433   5.072   2.603   8.780 -0.3285  0.3627  0.1691
 3080TIP3   OH233434   1.632   0.795   8.139  0.4773 -0.1921 -0.1977
 3080TIP3    H133435   1.587   0.752   8.212 -0.3074  0.0421 -0.5456
 3080TIP3    H233436   1.615   0.888   8.152  2.9260  0.1805  1.0800
 3081TIP3   OH233437   2.204   0.212   8.846  0.0059 -0.0557  0.1087
 3081TIP3    H133438   2.169   0.167   8.769  2.2692  0.0018 -1.0266
 3081TIP3    H233439   2.274   0.155   8.878  0.2215  0.7381  1.1076
 3082TIP3   OH233440   4.930   3.074   9.415 -0.8245 -0.4339  0.5199
 3082TIP3    H133441   4.900   3.145   9.471  1.1007 -0.1759  1.2982
 3082TIP3    H233442   4.920   3.108   9.326 -1.7154  0.0650  0.8042
 3083TIP3   OH233443   2.575   4.125   9.737 -0.1603  0.0252  0.0561
 3083TIP3    H133444   2.549   4.158   9.823  0.9929  0.1399  0.3760
 3083TIP3    H233445   2.578   4.203   9.682  0.1765  0.1040  0.1875
 3084TIP3   OH233446   3.565   0.140   9.272 -0.2936  0.6927 -0.4033
 3084TIP3    H133447   3.555   0.139   9.177  0.3931  1.1984 -0.4929
 3084TIP3    H233448   3.516   0.217   9.301 -0.2820  0.6913 -0.3798
 3085TIP3   OH233449   4.084   2.779   7.973  0.5923 -0.2403  0.3215
 3085TIP3    H133450   4.033   2.851   7.936  1.8243  0.6109  0.2260
 3085TIP3    H233451   4.092   2.716   7.902 -0.7557 -0.6528  0.4956
 3086TIP3   OH233452   1.598   2.782   7.204 -0.3607  0.2655 -0.0594
 3086TIP3    H133453   1.616   2.802   7.112 -0.3695  0.1079 -0.0955
 3086TIP3    H233454   1.503   2.772   7.208 -0.2751 -0.7136 -0.2328
 3087TIP3   OH233455   5.395   5.593   8.917  0.1684  0.5039 -0.6143
 3087TIP3    H133456   5.324   5.587   8.853  0.6564 -0.1967 -1.1116
 3087TIP3    H233457   5.463   5.644   8.873 -0.0888  1.3271 -0.0721
 3088TIP3   OH233458   1.213   5.948   8.864 -0.1868 -0.3879  0.0499
 3088TIP3    H133459   1.220   6.043   8.852  0.8277 -0.2573  1.4015
 3088TIP3    H233460   1.126   5.935   8.904 -0.0781  0.0467  0.4364
 3089TIP3   OH233461   6.940   5.481   9.634 -0.3707  0.2802 -0.2235
 3089TIP3    H133462   6.911   5.566   9.600  0.4291  0.0778 -1.4716
 3089TIP3    H233463   6.983   5.501   9.717 -1.9255  0.8490  0.4749
 3090TIP3   OH233464   0.111   1.263   8.997  0.2391 -0.1037 -0.1431
 3090TIP3    H133465   0.134   1.301   9.082  0.2579 -0.0559 -0.1700
 3090TIP3    H233466   0.040   1.202   9.017 -1.3686  1.5872 -0.4021
 3091TIP3   OH233467   1.806   3.116   8.112 -0.0575  0.0844  0.1528
 3091TIP3    H133468   1.866   3.146   8.044 -0.6121 -0.2817 -0.5159
 3091TIP3    H233469   1.845   3.146   8.194  0.1538  1.3386 -0.3840
 3092TIP3   OH233470   0.695   3.200   8.842  0.3076 -0.0123 -0.2695
 3092TIP3    H133471   0.716   3.203   8.748 -2.5710  1.0041 -0.9875
 3092TIP3    H233472   0.725   3.284   8.876 -0.7800  0.6438 -0.8610
 3093TIP3   OH233473   3.893   4.959   8.725  0.4684 -0.6496 -0.2986
 3093TIP3    H133474   3.833   4.892   8.758 -1.7997  1.0509 -0.7183
 3093TIP3    H233475   3.968   4.954   8.783 -0.0151 -2.9144  0.2407
 3094TIP3   OH233476   5.926   3.542   8.214 -0.0040  0.0431 -0.3382
 3094TIP3    H133477   5.904   3.617   8.268  0.4864 -0.4429  0.5656
 3094TIP3    H233478   6.021   3.545   8.207  0.0776 -0.8472  0.2534
 3095TIP3   OH233479   2.617   5.837   9.287 -0.0073 -0.1420  0.1464
 3095TIP3    H133480   2.710   5.846   9.304 -0.0500  2.2607 -0.4742
 3095TIP3    H233481   2.575   5.893   9.353 -0.8453  0.5395 -0.9303
 3096TIP3   OH233482   6.780   0.575   7.744 -0.3881 -0.5294 -0.2068
 3096TIP3    H133483   6.875   0.588   7.741 -0.6852  1.6495 -2.5116
 3096TIP3    H233484   6.760   0.569   7.838  1.6776  1.9925  0.4981
 3097TIP3   OH233485   4.149   0.377   8.370  0.0358  0.4604  0.1316
 3097TIP3    H133486   4.187   0.311   8.428 -2.2520 -1.5507 -0.5107
 3097TIP3    H233487   4.182   0.461   8.404  1.5798 -0.8506  2.1126
 3098TIP3   OH233488   5.406   7.476   8.112 -0.3285 -0.2276  0.5837
 3098TIP3    H133489   5.325   7.506   8.154 -0.5867  1.8593 -1.1707
 3098TIP3    H233490   5.429   7.395   8.157 -0.6099  1.7033  4.5892
 3099TIP3   OH233491   4.749   3.319   7.818  0.5008  0.6684 -0.2149
 3099TIP3    H133492   4.682   3.379   7.787  1.6243  1.4119 -1.2575
 3099TIP3    H233493   4.703   3.236   7.829 -0.3471  0.8378 -2.1215
 3100TIP3   OH233494   6.902   2.818   7.595  0.6160  0.3577  0.4408
 3100TIP3    H133495   6.967   2.815   7.524  0.0720 -0.7813 -0.0414
 3100TIP3    H233496   6.821   2.788   7.554 -0.0378  1.0437  1.2166
 3101TIP3   OH233497   5.644   2.747   9.074  0.2622  0.0868 -0.5158
 3101TIP3    H133498   5.684   2.722   8.991  0.1112 -0.1984 -0.5034
 3101TIP3    H233499   5.698   2.819   9.106  0.7428 -0.2645 -0.5202
 3102TIP3   OH233500   1.910   2.967   9.674 -0.0081  0.2256  0.6415
 3102TIP3    H133501   1.927   2.949   9.766 -1.2454 -2.3080  0.4693
 3102TIP3    H233502   1.995   2.963   9.631  0.2905 -1.1743  1.3290
 3103TIP3   OH233503   3.604   2.656   8.866 -0.1110  0.5290  0.4222
 3103TIP3    H133504   3.634   2.612   8.786  0.8963  0.9687  0.5437
 3103TIP3    H233505   3.684   2.684   8.909 -0.6616  0.5461  1.4541
 3104TIP3   OH233506   2.116   4.028   6.402  0.5205 -0.0874 -0.2861
 3104TIP3    H133507   2.205   4.054   6.378  0.7855 -2.5555 -2.4320
 3104TIP3    H233508   2.062   4.104   6.378  1.8704  0.8789 -0.3664
 3105TIP3   OH233509   6.543   0.524   7.292 -0.1409  0.6169  0.1261
 3105TIP3    H133510   6.570   0.536   7.383  0.3442 -0.4567  0.1335
 3105TIP3    H233511   6.624   0.524   7.242 -0.3851  0.9158 -0.2718
 3106TIP3   OH233512   6.699   4.634   7.410 -0.4201  0.4228  0.4777
 3106TIP3    H133513   6.759   4.649   7.337 -1.3310  1.2741 -0.1178
 3106TIP3    H233514   6.643   4.562   7.380 -2.6325  2.5518 -0.9223
 3107TIP3   OH233515   3.045   3.761   9.374  0.4260 -0.6965 -0.1413
 3107TIP3    H133516   3.012   3.846   9.404  0.0266 -0.2625 -1.7182
 3107TIP3    H233517   3.100   3.783   9.299 -0.1193 -1.8913 -0.9012
 3108TIP3   OH233518   1.877   6.321   7.325 -0.1231 -0.3971  0.7266
 3108TIP3    H133519   1.813   6.356   7.263 -0.9088 -0.6190  1.3939
 3108TIP3    H233520   1.951   6.294   7.271 -0.2702  0.5778  0.0195
 3109TIP3   OH233521   5.016   0.198   7.661 -0.1331  0.0184  0.2340
 3109TIP3    H133522   5.098   0.203   7.613 -0.8688  0.7546 -0.9988
 3109TIP3    H233523   5.004   0.105   7.680  0.9895 -0.0875  0.4686
 3110TIP3   OH233524   2.032   0.209   8.131 -0.4537  0.0882  0.3326
 3110TIP3    H133525   1.970   0.274   8.164  0.3486  0.8136  0.4650
 3110TIP3    H233526   2.010   0.198   8.039 -0.5389  0.6212  0.2895
 3111TIP3   OH233527   4.424   4.614   8.559 -0.2243 -0.4625  0.0412
 3111TIP3    H133528   4.433   4.665   8.479 -0.0255 -0.5241  0.0231
 3111TIP3    H233529   4.514   4.599   8.589  0.1231 -4.3270 -2.1975
 3112TIP3   OH233530   7.359   1.214   7.837  0.1582  0.6346  0.5281
 3112TIP3    H133531   7.370   1.217   7.932 -0.3567 -0.4500  0.6348
 3112TIP3    H233532   7.424   1.151   7.807  0.6028  1.2865  0.1063
 3113TIP3   OH233533   3.404   6.106   8.241  0.0224  0.0680 -0.5655
 3113TIP3    H133534   3.336   6.151   8.191 -1.3669  0.9360  1.9014
 3113TIP3    H233535   3.484   6.155   8.221 -0.7730  1.3328 -0.7993
 3114TIP3   OH233536   2.831   6.741   9.556 -0.1075 -0.0429  0.1595
 3114TIP3    H133537   2.808   6.817   9.502 -0.8650 -0.5908 -0.3070
 3114TIP3    H233538   2.925   6.728   9.540  0.3494  1.5852  1.2799
 3115TIP3   OH233539   4.538   6.545   8.120  0.1269 -0.0638 -0.1576
 3115TIP3    H133540   4.557   6.594   8.200  0.0128  0.0127 -0.1765
 3115TIP3    H233541   4.595   6.583   8.054  1.3098 -1.1145  0.2251
 3116TIP3   OH233542   0.414   0.969   7.297  0.4177  0.1940 -0.1569
 3116TIP3    H133543   0.322   0.990   7.308  0.2581 -0.6646  0.2669
 3116TIP3    H233544   0.452   1.046   7.255 -0.3503  0.8276  0.2957
 3117TIP3   OH233545   2.002   6.462   9.420 -0.6519 -0.2492 -0.1674
 3117TIP3    H133546   1.937   6.533   9.420 -0.2960  0.1019 -1.5294
 3117TIP3    H233547   2.065   6.488   9.487  0.0307  1.2756 -1.3351
 3118TIP3   OH233548   6.137   7.570   7.589 -0.3765 -0.2325 -0.0209
 3118TIP3    H133549   6.116   7.663   7.577  0.4170 -0.1896 -1.2842
 3118TIP3    H233550   6.208   7.569   7.652  0.3492  0.1159 -0.8116
 3119TIP3   OH233551   7.075   6.215   8.772  0.3845  0.2557  0.1945
 3119TIP3    H133552   7.101   6.298   8.731  1.1229  0.0602  0.2652
 3119TIP3    H233553   7.045   6.161   8.699 -0.5839  0.7515  0.2016
 3120TIP3   OH233554   4.507   3.270   8.480 -0.2307  0.7767  0.3391
 3120TIP3    H133555   4.471   3.183   8.462 -1.5172  1.5962 -1.2847
 3120TIP3    H233556   4.593   3.268   8.437 -1.1767  1.0006 -1.6794
 3121TIP3   OH233557   6.931   5.170   7.344  0.0475  0.0449  0.0776
 3121TIP3    H133558   6.867   5.155   7.413  0.8234 -0.8362  0.6181
 3121TIP3    H233559   6.918   5.097   7.283 -0.2117  0.4792 -0.3989
 3122TIP3   OH233560   1.381   4.311   7.398 -0.1767  0.1713  0.1849
 3122TIP3    H133561   1.403   4.392   7.351 -0.5587 -0.6872 -1.5912
 3122TIP3    H233562   1.450   4.249   7.372  0.2426 -0.0261  1.7028
 3123TIP3   OH233563   2.202   4.954   8.727 -0.5503  0.3138  0.4863
 3123TIP3    H133564   2.281   4.915   8.766  0.0275  0.2706 -0.6958
 3123TIP3    H233565   2.229   5.042   8.701 -0.2532 -0.3887 -1.7981
 3124TIP3   OH233566   5.806   3.740   8.739 -0.0269  0.7341 -0.4986
 3124TIP3    H133567   5.721   3.699   8.720 -0.1996  0.3234  1.0328
 3124TIP3    H233568   5.799   3.828   8.701 -0.3035 -0.0277 -2.2987
 3125TIP3   OH233569   3.349   1.414   6.748 -0.4078 -0.0071  0.6537
 3125TIP3    H133570   3.256   1.390   6.748 -0.4278  0.0633 -0.0544
 3125TIP3    H233571   3.394   1.330   6.742 -0.4426  0.0029  0.2162
 3126TIP3   OH233572   5.289   0.657   7.466  0.1097 -0.2877 -0.1809
 3126TIP3    H133573   5.249   0.628   7.384  0.4821  0.5954 -0.6889
 3126TIP3    H233574   5.300   0.577   7.517  0.2931 -0.9173 -1.1827
 3127TIP3   OH233575   4.143   1.389   6.684  0.1444  0.1150 -0.2212
 3127TIP3    H133576   4.179   1.321   6.742  2.9830  2.1765  0.7081
 3127TIP3    H233577   4.151   1.353   6.596  2.1707 -0.6020  0.2002
 3128TIP3   OH233578   6.280   4.761   7.318  0.0096  0.0100  0.7509
 3128TIP3    H133579   6.356   4.777   7.261 -0.6335 -0.4032 -0.2400
 3128TIP3    H233580   6.312   4.697   7.382  0.0935 -1.3274 -0.5751
 3129TIP3   OH233581   5.595   4.605   8.532 -0.3056  0.0606 -0.0241
 3129TIP3    H133582   5.525   4.540   8.537 -1.7790  1.5913  0.4070
 3129TIP3    H233583   5.551   4.688   8.550  1.3971  1.2485 -1.0686
 3130TIP3   OH233584   5.628   4.587   7.451 -0.2639  0.4410 -0.4100
 3130TIP3    H133585   5.551   4.560   7.501  0.0805  1.3372  0.6191
 3130TIP3    H233586   5.592   4.641   7.380 -0.7150 -0.5492 -0.9687
 3131TIP3   OH233587   3.984   7.511   8.883  0.0406 -0.2496  0.4291
 3131TIP3    H133588   3.977   7.456   8.805 -1.5035 -0.1926  0.4837
 3131TIP3    H233589   3.957   7.598   8.854 -2.9008 -0.7035  1.4378
 3132TIP3   OH233590   5.668   2.882   7.552 -0.4410  0.1500  0.1593
 3132TIP3    H133591   5.685   2.968   7.590 -0.2706  0.5771 -0.8615
 3132TIP3    H233592   5.621   2.900   7.471 -1.6712 -0.8010  0.6241
 3133TIP3   OH233593   5.129   4.047   9.279 -0.1323  0.0987  0.2510
 3133TIP3    H133594   5.195   4.066   9.213  1.8734 -0.3732  2.0125
 3133TIP3    H233595   5.112   3.953   9.269  0.6125 -0.0999  0.7440
 3134TIP3   OH233596   5.568   4.915   9.312  0.1618  0.0241  0.2294
 3134TIP3    H133597   5.477   4.942   9.325  0.6154  1.9585 -0.2501
 3134TIP3    H233598   5.620   4.990   9.343  1.4793  0.4475 -2.6306
 3135TIP3   OH233599   7.229   0.930   8.341  0.0797 -0.0067 -0.1150
 3135TIP3    H133600   7.230   0.870   8.415 -1.1386  0.3756  0.2355
 3135TIP3    H233601   7.169   1.000   8.367 -0.6452 -0.0390 -1.5702
 3136TIP3   OH233602   6.653   2.220   7.668  0.0146 -0.6044  0.3797
 3136TIP3    H133603   6.708   2.189   7.740  0.8745  0.8249  0.3879
 3136TIP3    H233604   6.586   2.273   7.710  0.3914  0.0561  0.1695
 3137TIP3   OH233605   6.782   2.795   9.146 -0.3609  0.5595  0.0255
 3137TIP3    H133606   6.715   2.731   9.119  2.0186 -1.2498 -2.0572
 3137TIP3    H233607   6.802   2.773   9.236 -2.6125  1.2857  0.7857
 3138TIP3   OH233608   3.385   2.878   9.040 -0.1035  0.3859  0.2275
 3138TIP3    H133609   3.405   2.969   9.020 -0.2630  0.3285 -0.2062
 3138TIP3    H233610   3.318   2.882   9.108  0.5354  0.5836  0.8515
 3139TIP3   OH233611   5.818   5.513   9.284 -0.7384  0.4744  0.2644
 3139TIP3    H133612   5.867   5.431   9.283 -1.1237  0.2344  0.7940
 3139TIP3    H233613   5.812   5.537   9.376 -2.1675  0.1633  0.2764
 3140TIP3   OH233614   6.354   4.961   9.217 -0.5422  0.3948 -0.2409
 3140TIP3    H133615   6.376   5.048   9.250  0.6087  0.4182 -1.0311
 3140TIP3    H233616   6.397   4.955   9.132 -2.4359 -0.1402 -1.2207
 3141TIP3   OH233617   6.703   3.205   8.189  0.9958 -0.2936  0.1745
 3141TIP3    H133618   6.724   3.262   8.262  1.4714 -1.4545  0.9773
 3141TIP3    H233619   6.788   3.179   8.153  0.7578  1.0314 -1.4319
 3142TIP3   OH233620   2.463   1.211   7.939 -0.7468 -0.3006 -0.6497
 3142TIP3    H133621   2.469   1.174   7.851 -3.2843 -0.0579 -1.0121
 3142TIP3    H233622   2.404   1.152   7.986  0.6632 -0.4873  0.9601
 3143TIP3   OH233623   4.976   0.020   9.522 -0.5515  0.1192 -0.1042
 3143TIP3    H133624   5.009  -0.068   9.500 -1.0720 -0.1770  0.2915
 3143TIP3    H233625   4.907   0.004   9.587  0.2135  0.8968  0.9384
 3144TIP3   OH233626   3.756   0.088   9.458  0.8033 -0.0294 -0.0614
 3144TIP3    H133627   3.696   0.132   9.398  1.2112  1.3509  0.4934
 3144TIP3    H233628   3.707   0.013   9.492 -0.8470  1.4001  0.8506
 3145TIP3   OH233629   0.866   2.017   7.737 -0.2180  0.0514  0.2421
 3145TIP3    H133630   0.854   2.092   7.796 -0.5589  0.1778  0.0166
 3145TIP3    H233631   0.902   2.056   7.657  1.0395 -0.2247  0.6452
 3146TIP3   OH233632   2.975   5.865   8.923 -0.0744  0.1444  0.1674
 3146TIP3    H133633   2.981   5.885   9.016  0.4911 -0.4522  0.2662
 3146TIP3    H233634   2.955   5.949   8.881  0.3298  0.5395  0.7553
 3147TIP3   OH233635   1.964   6.177   8.656 -0.4324  0.2984  0.3306
 3147TIP3    H133636   1.931   6.093   8.626 -0.3863 -0.0118  1.1352
 3147TIP3    H233637   1.920   6.241   8.599 -0.0730 -0.2843 -0.6287
 3148TIP3   OH233638   1.210   3.444   9.561  0.4104  0.3400 -0.1802
 3148TIP3    H133639   1.169   3.433   9.646  0.6978 -1.5277 -0.2459
 3148TIP3    H233640   1.277   3.375   9.557  0.2137  0.1994 -2.0173
 3149TIP3   OH233641   4.686   2.375   7.513 -0.0253  0.2365 -0.6642
 3149TIP3    H133642   4.635   2.372   7.432 -0.4124 -1.4289 -0.3884
 3149TIP3    H233643   4.658   2.455   7.556  0.1444  1.1322 -2.1343
 3150TIP3   OH233644   1.903   3.724   7.999  0.4001  0.0151 -0.7531
 3150TIP3    H133645   1.856   3.805   8.018  2.0769  1.4016 -2.1326
 3150TIP3    H233646   1.995   3.748   8.007  1.0138 -2.6395  2.0286
 3151TIP3   OH233647   1.860   1.852   9.378 -0.0727  0.1579  0.2589
 3151TIP3    H133648   1.785   1.792   9.381  0.9114 -1.1135  0.5937
 3151TIP3    H233649   1.916   1.822   9.450 -0.6999  3.1391  2.1508
 3152TIP3   OH233650   7.044   5.863   7.195  0.2702 -0.1515 -0.1586
 3152TIP3    H133651   6.983   5.933   7.172  0.9604 -0.0551 -1.8447
 3152TIP3    H233652   6.990   5.785   7.203 -0.2879  0.2529  0.0909
 3153TIP3   OH233653   0.339   4.765   8.577 -0.5026  0.4535  0.4679
 3153TIP3    H133654   0.331   4.789   8.485 -1.5710  1.0917  0.7141
 3153TIP3    H233655   0.347   4.669   8.576  0.4860  0.5279 -0.3279
 3154TIP3   OH233656   3.525   0.938   7.999  0.4563  0.3590  0.2635
 3154TIP3    H133657   3.448   0.966   7.950  0.6369 -0.1105 -0.2993
 3154TIP3    H233658   3.491   0.880   8.067  0.3190  0.1074 -0.0189
 3155TIP3   OH233659   7.198   6.461   8.232  0.3426  0.2518  0.7790
 3155TIP3    H133660   7.171   6.443   8.142  0.3523 -1.4418  1.0843
 3155TIP3    H233661   7.253   6.539   8.225 -0.8265  1.0203 -0.4649
 3156TIP3   OH233662   0.770   5.865   8.054  0.1387  0.4192 -0.4535
 3156TIP3    H133663   0.828   5.874   7.978  0.7273 -0.6958 -0.1565
 3156TIP3    H233664   0.682   5.872   8.018  0.4243  0.8734 -1.0954
 3157TIP3   OH233665   3.061   4.405   8.060 -0.3296  0.6142 -0.5472
 3157TIP3    H133666   3.111   4.344   8.114 -0.1346  1.5177  0.3111
 3157TIP3    H233667   2.994   4.441   8.118 -1.5762 -0.0688 -1.5067
 3158TIP3   OH233668   2.752   5.127   7.739 -0.5509  0.0415 -0.4146
 3158TIP3    H133669   2.801   5.059   7.785 -1.0985  0.6022  1.0945
 3158TIP3    H233670   2.809   5.204   7.742 -0.8640  0.2643 -0.0545
 3159TIP3   OH233671   3.588   6.542   7.663 -0.5743 -0.1131  0.0152
 3159TIP3    H133672   3.623   6.454   7.673 -0.5306  0.0328  1.2985
 3159TIP3    H233673   3.665   6.598   7.654 -0.4934  0.0349  1.3924
 3160TIP3   OH233674   2.495   1.041   6.684 -0.6219  0.0066 -0.0801
 3160TIP3    H133675   2.487   0.949   6.659 -0.3148  0.4284 -1.9343
 3160TIP3    H233676   2.467   1.089   6.606  2.3507  1.4627 -0.3925
 3161TIP3   OH233677   1.587   4.296   8.190 -0.3933  0.2355 -1.5906
 3161TIP3    H133678   1.682   4.307   8.191 -0.3876  0.6278 -3.0087
 3161TIP3    H233679   1.564   4.306   8.097 -2.0974  2.6873 -0.9898
 3162TIP3   OH233680   7.199   3.111   8.858 -0.1407 -0.8954 -0.3704
 3162TIP3    H133681   7.228   3.020   8.857  1.6223 -0.3730 -1.3139
 3162TIP3    H233682   7.265   3.158   8.908 -0.4820  0.0212 -0.7368
 3163TIP3   OH233683   0.854   3.197   8.534  0.2769 -0.3673  0.4412
 3163TIP3    H133684   0.857   3.255   8.458 -0.5917 -2.0516 -0.9646
 3163TIP3    H233685   0.893   3.115   8.503 -0.2322 -1.1420  1.7734
 3164TIP3   OH233686   1.710   5.056   7.001  0.5740 -0.2733  0.3520
 3164TIP3    H133687   1.786   5.113   7.011 -0.3295  0.8818  0.8115
 3164TIP3    H233688   1.740   4.987   6.942  2.0698 -0.0256  0.7749
 3165TIP3   OH233689   2.499   3.824   9.822  0.3460  0.1405  0.3421
 3165TIP3    H133690   2.496   3.919   9.807  1.1410  0.2731  0.9410
 3165TIP3    H233691   2.408   3.799   9.837  0.0629  0.7141 -0.3449
 3166TIP3   OH233692   2.903   4.250   9.804 -0.4709  0.4011 -0.2345
 3166TIP3    H133693   2.898   4.340   9.771  0.5977  0.8376  0.7343
 3166TIP3    H233694   2.986   4.217   9.770 -1.0560 -0.3913 -0.9421
 3167TIP3   OH233695   2.289   7.463   9.572 -0.1094 -0.1095 -0.3933
 3167TIP3    H133696   2.228   7.401   9.612 -0.2757  2.3447  3.6971
 3167TIP3    H233697   2.237   7.509   9.505 -2.3031  0.6570  1.7037
 3168TIP3   OH233698   6.917   0.011   8.018 -0.0396 -0.4000 -0.4514
 3168TIP3    H133699   6.847   0.061   8.061  0.4860 -0.0538  0.0195
 3168TIP3    H233700   6.981  -0.004   8.087  0.4067 -0.6087 -0.9084
 3169TIP3   OH233701   4.439   4.392   9.131 -0.3726  0.0185  0.0264
 3169TIP3    H133702   4.531   4.409   9.115 -0.6292  0.8289 -0.6516
 3169TIP3    H233703   4.398   4.397   9.045 -0.8696 -1.5513  0.1533
 3170TIP3   OH233704   1.492   5.135   7.169 -0.0481 -0.2770 -0.0268
 3170TIP3    H133705   1.406   5.164   7.141  0.0139 -0.0006  0.0633
 3170TIP3    H233706   1.530   5.094   7.092 -0.1809 -0.2123 -0.1264
 3171TIP3   OH233707   5.044   0.706   7.783  0.3515 -0.2309 -0.1686
 3171TIP3    H133708   4.959   0.719   7.826  1.1926  1.4772  1.1221
 3171TIP3    H233709   5.052   0.611   7.775  0.3489 -0.8060  4.1371
 3172TIP3   OH233710   1.468   3.252   6.891 -0.5996  0.2975  0.0076
 3172TIP3    H133711   1.439   3.244   6.981 -1.4216 -1.5551 -0.3747
 3172TIP3    H233712   1.563   3.250   6.896 -0.6082  1.1963  0.8788
 3173TIP3   OH233713   6.652   4.436   8.218 -0.2742 -0.1202  0.1063
 3173TIP3    H133714   6.576   4.438   8.276 -0.9374  1.7211 -0.7737
 3173TIP3    H233715   6.643   4.514   8.163  1.5904 -0.5416 -0.8732
 3174TIP3   OH233716   1.781   0.973   9.315  0.5167  0.0789  0.6037
 3174TIP3    H133717   1.777   1.035   9.241  2.8530  0.0445  0.3871
 3174TIP3    H233718   1.726   0.900   9.287  0.2206  0.6874 -0.4769
 3175TIP3   OH233719   0.001   5.100   9.296  0.5862 -0.5698 -0.1814
 3175TIP3    H133720   0.024   5.188   9.265  1.6004 -0.5796  0.4775
 3175TIP3    H233721  -0.094   5.097   9.293  0.5123  0.7417  0.2721
 3176TIP3   OH233722   6.611   0.554   9.240 -0.6906 -0.1017  0.3963
 3176TIP3    H133723   6.661   0.550   9.321  0.4243 -1.2147 -0.3039
 3176TIP3    H233724   6.558   0.474   9.240 -0.6537 -0.1301  0.0137
 3177TIP3   OH233725   6.427   5.520   9.169 -0.4482 -0.4115 -0.0005
 3177TIP3    H133726   6.421   5.502   9.075 -1.0543  0.5020 -0.1488
 3177TIP3    H233727   6.522   5.522   9.187 -0.1751  2.3579 -1.2220
 3178TIP3   OH233728   0.716   1.211   8.356 -0.9153 -0.1952 -0.6849
 3178TIP3    H133729   0.777   1.285   8.355  0.0793 -0.9861 -1.1996
 3178TIP3    H233730   0.768   1.137   8.323 -2.3809 -0.7370 -1.8506
 3179TIP3   OH233731   0.764   6.179   8.729 -0.3592  0.0533  0.3609
 3179TIP3    H133732   0.813   6.252   8.693 -1.9105  1.1579  0.3558
 3179TIP3    H233733   0.796   6.102   8.683  1.5430  0.6535  0.5913
 3180TIP3   OH233734   2.725   0.896   8.819 -0.3680  0.5561  0.2391
 3180TIP3    H133735   2.757   0.928   8.734  0.3608 -0.0206  0.2875
 3180TIP3    H233736   2.804   0.866   8.864 -0.8815 -0.1227  0.7034
 3181TIP3   OH233737   1.724   6.305   8.139 -0.0357  0.0220 -0.1359
 3181TIP3    H133738   1.719   6.362   8.215 -0.5605  0.6913 -0.6587
 3181TIP3    H233739   1.767   6.226   8.171  1.8068  1.1428  0.3568
 3182TIP3   OH233740   1.638   3.892   7.573 -0.0208 -0.2868  0.4149
 3182TIP3    H133741   1.616   3.853   7.489  0.1183 -1.2352  0.8018
 3182TIP3    H233742   1.554   3.920   7.609 -0.1767 -0.6223  0.3137
 3183TIP3   OH233743   0.857   2.480   9.181 -0.1394  0.4966 -0.0434
 3183TIP3    H133744   0.790   2.540   9.149  0.7268  1.0493 -0.8760
 3183TIP3    H233745   0.812   2.397   9.192 -0.8977  0.7898 -0.8692
 3184TIP3   OH233746   5.431   3.491   9.179  0.3159  0.0234 -0.3128
 3184TIP3    H133747   5.483   3.493   9.259 -0.0982 -1.8171  0.0434
 3184TIP3    H233748   5.420   3.398   9.160 -1.2694  0.4014 -1.4191
 3185TIP3   OH233749   2.627   4.883   8.074  0.1329 -0.4379  0.0522
 3185TIP3    H133750   2.673   4.954   8.119 -1.1509 -0.0780  0.8575
 3185TIP3    H233751   2.538   4.887   8.109  0.3775 -3.4232  1.3375
 3186TIP3   OH233752   7.080   3.391   8.786  0.0227 -0.3836  0.7795
 3186TIP3    H133753   7.008   3.380   8.848  0.7942  1.8898  2.2115
 3186TIP3    H233754   7.131   3.310   8.794 -0.1935 -0.3772  2.8015
 3187TIP3   OH233755   2.035   4.842   7.124  0.1126 -0.0878 -0.5519
 3187TIP3    H133756   2.107   4.878   7.176 -0.6228 -0.9567  1.1672
 3187TIP3    H233757   1.956   4.869   7.171 -0.6401 -0.1553 -1.7378
 3188TIP3   OH233758   2.895   6.930   8.644  0.0483  0.9965  0.0680
 3188TIP3    H133759   2.943   7.013   8.640  1.5217  0.2625  1.4614
 3188TIP3    H233760   2.864   6.917   8.554  0.7497  2.4884 -0.4370
 3189TIP3   OH233761   1.595   3.036   6.581 -0.0897  0.6942 -0.1150
 3189TIP3    H133762   1.639   3.082   6.652  1.1266  1.1026 -1.0819
 3189TIP3    H233763   1.665   2.986   6.538 -0.7210  0.6914 -1.1878
 3190TIP3   OH233764   3.907   2.152   9.026  0.0096  0.1042 -0.1059
 3190TIP3    H133765   3.939   2.102   8.951  0.5567 -2.7571  1.8788
 3190TIP3    H233766   3.811   2.146   9.019 -0.0090  1.5710 -1.5816
 3191TIP3   OH233767   0.189   1.104   8.421 -0.5228  0.4217  0.1546
 3191TIP3    H133768   0.177   1.045   8.495  1.3778  0.8958  0.9044
 3191TIP3    H233769   0.145   1.185   8.447  0.7640  0.8420  1.1519
 3192TIP3   OH233770   7.425   2.628   9.159  0.1633 -0.2875 -0.4231
 3192TIP3    H133771   7.494   2.590   9.103  0.2978 -0.2369 -0.2931
 3192TIP3    H233772   7.459   2.617   9.248 -0.5745 -1.4414 -0.2638
 3193TIP3   OH233773   4.793   1.963   8.684  0.2323 -0.1605  0.5630
 3193TIP3    H133774   4.857   1.994   8.620 -1.1505  0.4015 -0.5941
 3193TIP3    H233775   4.739   1.902   8.635 -0.2307 -0.4958  1.4813
 3194TIP3   OH233776   7.384   4.809   7.531  0.1562  0.5654 -0.5879
 3194TIP3    H133777   7.469   4.845   7.506  0.2177  1.0994  0.3481
 3194TIP3    H233778   7.391   4.715   7.514  1.0287  0.5631 -0.2559
 3195TIP3   OH233779   2.749   1.127   6.723 -0.2046 -0.3061  0.5420
 3195TIP3    H133780   2.732   1.169   6.807 -1.0802  1.5866 -0.5207
 3195TIP3    H233781   2.667   1.083   6.701 -0.2142 -0.1906  0.3437
 3196TIP3   OH233782   4.363   4.757   8.069 -0.1362 -0.1946 -0.0937
 3196TIP3    H133783   4.290   4.701   8.095  0.4638 -1.2218 -0.5924
 3196TIP3    H233784   4.431   4.697   8.040  0.6624  0.7778 -0.2971
 3197TIP3   OH233785   6.714   0.774   9.112  0.6826 -0.1340  0.3349
 3197TIP3    H133786   6.685   0.708   9.175 -0.3903 -1.8039 -1.7571
 3197TIP3    H233787   6.739   0.850   9.166 -0.9537 -1.1383  2.6960
 3198TIP3   OH233788   2.214   1.907   9.359  0.6753 -0.0958 -0.1942
 3198TIP3    H133789   2.308   1.925   9.359  0.7688 -0.5757 -0.1316
 3198TIP3    H233790   2.187   1.923   9.269  1.1945 -1.8551 -0.6986
 3199TIP3   OH233791   6.892   4.297   7.585  0.0610  0.1383 -0.4331
 3199TIP3    H133792   6.983   4.308   7.610  0.1355 -0.8054 -0.2455
 3199TIP3    H233793   6.858   4.231   7.646 -0.8275  0.6812 -0.3143
 3200TIP3   OH233794   7.038   3.433   9.443  0.0644 -0.0316  0.1738
 3200TIP3    H133795   7.129   3.460   9.460  0.4654 -1.3002  0.1161
 3200TIP3    H233796   6.995   3.442   9.528  0.8120 -1.5163  0.7474
 3201TIP3   OH233797   1.859   0.366   8.756  0.2746 -0.1817  0.2566
 3201TIP3    H133798   1.792   0.418   8.711  0.7182  2.0796  2.0154
 3201TIP3    H233799   1.814   0.285   8.781 -0.5737 -0.5536 -2.1957
 3202TIP3   OH233800   1.555   4.877   7.519  0.1934 -0.1983  0.1591
 3202TIP3    H133801   1.523   4.843   7.435  1.0046  0.5768 -0.4805
 3202TIP3    H233802   1.577   4.968   7.501  2.1952 -0.5329  0.7183
 3203TIP3   OH233803   4.846   4.123   7.522  0.1767  0.4818 -0.0905
 3203TIP3    H133804   4.912   4.173   7.570 -0.2500  0.3481  0.6562
 3203TIP3    H233805   4.881   4.034   7.520  0.4242  0.5874 -0.4551
 3204TIP3   OH233806   7.138   6.452   8.657  0.3494 -0.1912  0.2987
 3204TIP3    H133807   7.076   6.460   8.584  0.9973 -0.3690 -0.2794
 3204TIP3    H233808   7.127   6.533   8.706  1.1026  0.7023 -0.9433
 3205TIP3   OH233809   3.881   1.441   8.240  0.2949  0.1056 -0.0680
 3205TIP3    H133810   3.869   1.365   8.297 -0.0988 -1.0824 -1.6273
 3205TIP3    H233811   3.950   1.413   8.179 -0.4286  0.6734 -1.1713
 3206TIP3   OH233812   4.626   4.813   7.675 -0.7191  0.5388 -0.0176
 3206TIP3    H133813   4.675   4.806   7.757  0.0888  0.3478 -0.5102
 3206TIP3    H233814   4.680   4.868   7.619 -2.2887  2.5267  0.3071
 3207TIP3   OH233815   0.253   4.624   7.280 -0.2466 -0.2256 -0.4526
 3207TIP3    H133816   0.238   4.690   7.213 -0.9758  1.6554  1.4846
 3207TIP3    H233817   0.342   4.641   7.311 -0.4315 -0.1803  0.0482
 3208TIP3   OH233818   0.238   2.157   7.912  0.6253 -0.1526 -0.0432
 3208TIP3    H133819   0.229   2.069   7.874 -0.9417 -0.0681  0.0668
 3208TIP3    H233820   0.332   2.174   7.911  0.7857 -0.9125 -2.1303
 3209TIP3   OH233821   7.254   5.436   6.975  0.6914  0.6759 -0.0406
 3209TIP3    H133822   7.202   5.517   6.981  1.4265  1.1434  0.1986
 3209TIP3    H233823   7.202   5.371   7.022  0.4762  1.2208  0.4937
 3210TIP3   OH233824   4.801   7.155   9.667 -1.0837 -0.0060 -0.2802
 3210TIP3    H133825   4.847   7.159   9.583 -0.8749 -1.5415 -0.2617
 3210TIP3    H233826   4.799   7.062   9.689 -1.0873  0.3759  1.4528
 3211TIP3   OH233827   5.871   1.213   7.353  0.0671  0.0621 -0.4084
 3211TIP3    H133828   5.853   1.282   7.289  0.2957  1.1004  0.6114
 3211TIP3    H233829   5.943   1.247   7.406  0.4583 -1.1388 -0.1380
 3212TIP3   OH233830   3.517   5.236   6.924  0.6766  0.2676 -0.0945
 3212TIP3    H133831   3.471   5.240   6.840 -0.2749  2.5012  0.4646
 3212TIP3    H233832   3.591   5.295   6.913  0.2139  1.0300  0.7990
 3213TIP3   OH233833   4.941   4.210   8.853  0.1281  0.5681  0.1595
 3213TIP3    H133834   4.922   4.175   8.766  1.6030 -1.6320  0.6562
 3213TIP3    H233835   4.859   4.251   8.880 -1.6221 -2.0951 -0.6936
 3214TIP3   OH233836   2.245   3.693   9.803  0.3420  0.1572  0.4555
 3214TIP3    H133837   2.250   3.727   9.713  3.2470  0.8503  0.8020
 3214TIP3    H233838   2.210   3.766   9.853 -0.6422 -0.0026  0.0321
 3215TIP3   OH233839   4.608   3.348   7.512 -0.2515 -0.0439 -0.8687
 3215TIP3    H133840   4.560   3.324   7.433 -2.1428 -2.5867  0.8672
 3215TIP3    H233841   4.588   3.441   7.525 -0.5838  0.2148 -2.8712
 3216TIP3   OH233842   2.952   4.839   8.513  0.7313  0.0191 -0.3052
 3216TIP3    H133843   2.987   4.927   8.525 -1.2436  0.9488 -0.8435
 3216TIP3    H233844   2.861   4.846   8.543  0.2543 -1.5816 -1.2785
 3217TIP3   OH233845   1.190   4.358   7.059 -0.2032 -0.2414  0.0019
 3217TIP3    H133846   1.257   4.304   7.017  0.6946 -1.0471  2.3092
 3217TIP3    H233847   1.240   4.421   7.111 -1.2599  0.9881 -0.4504
 3218TIP3   OH233848   1.622   3.459   7.330 -0.3634  0.2070 -0.2551
 3218TIP3    H133849   1.556   3.495   7.390  0.1570 -0.6196  0.8638
 3218TIP3    H233850   1.582   3.379   7.295 -1.1761  1.3465 -2.0627
 3219TIP3   OH233851   2.587   0.912   7.603 -0.1436 -0.1048 -0.4487
 3219TIP3    H133852   2.555   0.920   7.693 -0.9978 -0.4936 -0.7068
 3219TIP3    H233853   2.661   0.973   7.598  0.2692 -0.4891  0.6694
 3220TIP3   OH233854   0.049   5.792   7.525  0.3676 -0.5322  0.0768
 3220TIP3    H133855   0.035   5.849   7.600  1.3860 -0.6575  0.3910
 3220TIP3    H233856   0.024   5.844   7.449  1.6453  0.5090  0.3206
 3221TIP3   OH233857   0.117   3.995   7.331  0.2465 -0.2862  0.2093
 3221TIP3    H133858   0.047   4.030   7.385  0.2638 -1.1266  0.7823
 3221TIP3    H233859   0.167   3.938   7.389  0.4926 -0.9002 -0.5838
 3222TIP3   OH233860   1.950   3.054   6.523 -0.2875 -0.1634 -0.0868
 3222TIP3    H133861   1.908   2.990   6.466  0.3655  0.4323 -1.2634
 3222TIP3    H233862   1.957   3.133   6.470  1.8382 -0.0757  0.2388
 3223TIP3   OH233863   6.590   5.452   7.649 -0.2343 -0.3567  0.1227
 3223TIP3    H133864   6.596   5.390   7.576 -0.1279 -2.1349  1.5794
 3223TIP3    H233865   6.499   5.483   7.646  0.3419  1.3209 -2.0669
 3224TIP3   OH233866   4.076   0.190   9.811  0.4480  0.0682  0.1284
 3224TIP3    H133867   4.129   0.269   9.800 -0.9533  1.2469  1.4108
 3224TIP3    H233868   4.030   0.180   9.728 -0.9800  1.8947  0.6376
 3225TIP3   OH233869   5.643   5.888   9.224 -0.1865 -0.1040  0.1770
 3225TIP3    H133870   5.684   5.964   9.182 -0.2323 -0.9122 -1.3961
 3225TIP3    H233871   5.645   5.820   9.157 -2.6948 -0.6518  0.5834
 3226TIP3   OH233872   0.067   2.017   8.569 -0.1830 -0.6199  0.2377
 3226TIP3    H133873   0.019   1.945   8.527 -2.5212  1.9015 -1.8637
 3226TIP3    H233874   0.109   2.063   8.496  1.5969 -0.0438  1.5640
 3227TIP3   OH233875   6.297   0.540   9.043  0.0756  0.1386  0.4849
 3227TIP3    H133876   6.315   0.588   9.124 -1.5121 -0.1599  1.0551
 3227TIP3    H233877   6.249   0.602   8.988 -0.4949 -0.2416  0.5412
 3228TIP3   OH233878   6.140   5.180   8.611 -0.5767  0.4567 -0.2276
 3228TIP3    H133879   6.179   5.096   8.587 -1.1037  0.6242 -1.8132
 3228TIP3    H233880   6.049   5.159   8.634 -0.1468  0.3362  1.4177
 3229TIP3   OH233881   0.320   5.421   6.881 -0.2475  0.3047 -0.0474
 3229TIP3    H133882   0.338   5.514   6.892  0.6309  0.1953 -0.4649
 3229TIP3    H233883   0.227   5.416   6.861 -0.3938  1.0512  0.4321
 3230TIP3   OH233884   1.087   7.562   8.650  0.0800 -0.0319  0.2665
 3230TIP3    H133885   1.123   7.480   8.616 -1.0659  0.0355 -1.2185
 3230TIP3    H233886   1.000   7.537   8.683 -1.2062  0.9148 -2.2117
 3231TIP3   OH233887   1.617   1.090   6.935  0.1073 -0.4322  0.0684
 3231TIP3    H133888   1.649   1.021   6.993 -0.3619 -0.9994 -0.3428
 3231TIP3    H233889   1.677   1.089   6.860  2.2565  1.9283  1.5544
 3232TIP3   OH233890   0.369   0.876   7.726  0.1317  0.2853  0.0064
 3232TIP3    H133891   0.421   0.802   7.697  0.5823 -0.3693  2.2810
 3232TIP3    H233892   0.432   0.934   7.769 -0.6571  0.5079  0.8963
 3233TIP3   OH233893   0.424   6.223   8.428  0.0671 -0.1565 -0.0654
 3233TIP3    H133894   0.488   6.283   8.467 -2.3769  1.6386  1.5002
 3233TIP3    H233895   0.433   6.236   8.334  1.0521  1.1055  0.1705
 3234TIP3   OH233896   2.287   5.844   9.322 -0.1849  0.3359 -0.1827
 3234TIP3    H133897   2.363   5.834   9.265 -0.3250 -0.0839 -0.3017
 3234TIP3    H233898   2.280   5.939   9.336 -0.4929  0.5043 -1.3496
 3235TIP3   OH233899   6.083   0.218   7.179  0.5625  0.0217  0.1078
 3235TIP3    H133900   6.092   0.233   7.085 -1.8194 -1.5308 -0.4585
 3235TIP3    H233901   6.068   0.306   7.216  0.7296  0.5567 -1.0539
 3236TIP3   OH233902   4.698   6.133   9.164 -0.1736 -0.0580 -0.1940
 3236TIP3    H133903   4.696   6.037   9.155 -0.1026 -0.1878  0.9979
 3236TIP3    H233904   4.782   6.150   9.208  0.1836  0.6269 -1.1233
 3237TIP3   OH233905   2.747   6.666   7.745 -0.0591  0.0741  0.1259
 3237TIP3    H133906   2.711   6.617   7.671  0.5884 -2.3865  1.3271
 3237TIP3    H233907   2.812   6.724   7.707 -0.2519 -0.6219 -1.3107
 3238TIP3   OH233908   5.277   4.797   6.914  0.7622  0.7078  0.7704
 3238TIP3    H133909   5.364   4.770   6.884  0.5569 -0.7632  1.3845
 3238TIP3    H233910   5.260   4.741   6.990 -1.1207  0.2464  0.0629
 3239TIP3   OH233911   7.381   1.144   7.199  0.2767  0.3834 -0.1311
 3239TIP3    H133912   7.375   1.133   7.105  0.2726 -0.9549  0.0028
 3239TIP3    H233913   7.290   1.146   7.229  0.2840  0.0818 -0.0865
 3240TIP3   OH233914   4.356   4.611   7.195 -0.4165  0.7869 -0.4835
 3240TIP3    H133915   4.426   4.666   7.230 -0.8663  0.5086  0.9117
 3240TIP3    H233916   4.354   4.632   7.102  2.5446 -0.3066 -0.9189
 3241TIP3   OH233917   3.224   1.918   7.467 -0.3509 -0.4476  0.5431
 3241TIP3    H133918   3.193   2.004   7.440 -0.7070 -0.7403 -0.0066
 3241TIP3    H233919   3.145   1.864   7.472 -0.2543 -0.5022  1.8391
 3242TIP3   OH233920   7.081   0.740   8.188 -0.6873 -1.1175  0.7615
 3242TIP3    H133921   7.166   0.784   8.179  0.1870 -2.6244  1.1963
 3242TIP3    H233922   7.020   0.809   8.213  0.2868  0.1047 -0.0856
 3243TIP3   OH233923   5.564   3.399   9.416 -0.4122  0.0458  0.1678
 3243TIP3    H133924   5.557   3.453   9.495  1.2412  0.3805  0.1214
 3243TIP3    H233925   5.574   3.310   9.449  1.6348  0.3244  0.4369
 3244TIP3   OH233926   0.103   6.400   7.064  0.2057  0.0607 -0.0023
 3244TIP3    H133927   0.066   6.484   7.090 -1.6421  0.2861 -2.8019
 3244TIP3    H233928   0.177   6.422   7.008  0.5443 -0.2074  0.3405
 3245TIP3   OH233929   4.753   0.571   8.022  0.3544  0.1684  0.4357
 3245TIP3    H133930   4.677   0.576   7.965  0.7000  1.2056  0.0340
 3245TIP3    H233931   4.796   0.488   7.998 -1.2966 -1.0632  1.5612
 3246TIP3   OH233932   7.060   4.677   7.586 -0.0748  0.5591  0.3862
 3246TIP3    H133933   7.154   4.662   7.592 -0.3717 -1.1816  1.2317
 3246TIP3    H233934   7.029   4.611   7.524 -1.0622 -0.6390  2.0604
 3247TIP3   OH233935   4.552   3.866   8.448 -0.5902  0.4607 -0.4038
 3247TIP3    H133936   4.637   3.828   8.470 -1.6289 -1.4229  0.7115
 3247TIP3    H233937   4.548   3.947   8.497  0.5573  0.5951 -0.5003
 3248TIP3   OH233938   6.623   2.213   9.718 -0.7306  0.5828 -0.1352
 3248TIP3    H133939   6.655   2.223   9.808  0.8360  1.0251 -0.7206
 3248TIP3    H233940   6.580   2.127   9.718 -0.6727  0.5376  1.0085
 3249TIP3   OH233941   5.851   1.689   7.946 -0.0396 -0.1632  0.0410
 3249TIP3    H133942   5.812   1.754   8.005 -0.4416 -0.8734  0.5603
 3249TIP3    H233943   5.925   1.653   7.995 -1.0650 -1.5889  0.5989
 3250TIP3   OH233944   2.667   6.475   9.273  0.1456  0.4316 -0.0863
 3250TIP3    H133945   2.590   6.476   9.330 -0.1127  0.2822 -0.4289
 3250TIP3    H233946   2.634   6.502   9.188  0.0768 -1.5147 -0.7264
 3251TIP3   OH233947   1.474   0.487   7.765  0.4011  0.4916 -0.1971
 3251TIP3    H133948   1.456   0.436   7.844 -1.1031  2.0962  0.5552
 3251TIP3    H233949   1.559   0.454   7.734  1.6324  0.6076  2.7354
 3252TIP3   OH233950   0.255   4.247   9.155  0.4955  0.2219  0.6322
 3252TIP3    H133951   0.206   4.169   9.131 -2.6393  1.1648  3.2005
 3252TIP3    H233952   0.346   4.218   9.162 -0.2801 -2.7150 -0.1850
 3253TIP3   OH233953   6.369   4.178   8.555  0.3121  0.9526  0.3304
 3253TIP3    H133954   6.301   4.112   8.567  0.5188  1.1483  3.0462
 3253TIP3    H233955   6.448   4.140   8.594  0.8552  2.1248  0.4303
 3254TIP3   OH233956   4.372   1.322   7.505  0.2478 -0.2274  0.1261
 3254TIP3    H133957   4.422   1.349   7.428  1.0650  2.2821  1.4170
 3254TIP3    H233958   4.395   1.230   7.517  1.7416 -0.1140 -1.4426
 3255TIP3   OH233959   0.442   4.251   6.515 -0.4119 -0.6507 -0.2574
 3255TIP3    H133960   0.370   4.276   6.572 -1.1615 -0.8425 -1.1030
 3255TIP3    H233961   0.486   4.334   6.494  0.6270 -0.7007  1.5495
 3256TIP3   OH233962   4.229   7.124   9.189  0.0745  0.5809  0.0797
 3256TIP3    H133963   4.140   7.103   9.159 -0.4143  1.5844  0.7609
 3256TIP3    H233964   4.216   7.164   9.275  1.1371  1.3343 -0.0901
 3257TIP3   OH233965   5.792   2.818   8.329 -0.0486 -0.3285 -0.5156
 3257TIP3    H133966   5.859   2.864   8.379 -0.3536  0.8923 -1.1948
 3257TIP3    H233967   5.762   2.882   8.264 -1.4683 -1.0297 -0.5885
 3258TIP3   OH233968   5.431   3.674   7.102  0.1135  0.4201  0.5184
 3258TIP3    H133969   5.500   3.636   7.047  0.2578  0.0513  0.9415
 3258TIP3    H233970   5.359   3.611   7.096  0.3994 -0.0096  1.3250
 3259TIP3   OH233971   0.747   6.635   7.014  0.8045  0.6863 -0.0307
 3259TIP3    H133972   0.739   6.718   7.062 -0.3721  0.5931 -0.0451
 3259TIP3    H233973   0.749   6.660   6.922 -0.8614  0.6515 -0.1073
 3260TIP3   OH233974   5.828   4.898   8.651 -0.0383 -0.4703 -0.4407
 3260TIP3    H133975   5.786   4.813   8.665  0.8785 -1.1273 -1.4660
 3260TIP3    H233976   5.922   4.881   8.662  0.0113  0.9915  1.9132
 3261TIP3   OH233977   0.995   4.168   8.320  0.2935  0.6895 -0.5884
 3261TIP3    H133978   1.020   4.224   8.393  0.9893 -0.9626  0.5138
 3261TIP3    H233979   1.077   4.131   8.288  0.0164  1.5324 -2.3732
 3262TIP3   OH233980   1.406   1.687   9.169  0.3109  0.0473 -0.2193
 3262TIP3    H133981   1.362   1.608   9.199 -1.0064  1.1684  0.9002
 3262TIP3    H233982   1.364   1.709   9.086 -0.6139  0.5760  0.3755
 3263TIP3   OH233983   7.422   3.125   9.411  0.5793  0.5073  0.2466
 3263TIP3    H133984   7.435   3.038   9.374  1.5320  1.3399 -1.4934
 3263TIP3    H233985   7.441   3.114   9.504 -2.2433 -1.7256  0.6855
 3264TIP3   OH233986   2.746   4.451   9.165 -0.0574  0.0686 -0.9677
 3264TIP3    H133987   2.840   4.460   9.181 -0.1323 -1.6640  0.7860
 3264TIP3    H233988   2.712   4.540   9.170  1.3672  0.6401 -0.8882
 3265TIP3   OH233989   3.630   1.714   9.160 -0.4055  0.5681 -0.2815
 3265TIP3    H133990   3.595   1.637   9.114 -3.5703  0.5332  1.9182
 3265TIP3    H233991   3.681   1.677   9.232 -1.4956  0.5069  0.4704
 3266TIP3   OH233992   2.611   7.166   9.327 -0.1106 -0.0895 -0.2663
 3266TIP3    H133993   2.573   7.135   9.245 -0.5374  1.6788 -0.7861
 3266TIP3    H233994   2.690   7.212   9.300  1.8715 -2.7088  0.7056
 3267TIP3   OH233995   2.961   2.741   9.454  0.0069  0.4637 -0.0643
 3267TIP3    H133996   3.044   2.786   9.439  0.9556 -0.2514  2.4352
 3267TIP3    H233997   2.983   2.648   9.450 -0.5474  0.2644  1.0738
 3268TIP3   OH233998   3.601   6.241   7.051  0.0175 -0.4351 -0.1004
 3268TIP3    H133999   3.520   6.203   7.085 -0.1017 -0.9235 -0.9028
 3268TIP3    H234000   3.635   6.175   6.991 -0.4955  0.9358 -1.9692
 3269TIP3   OH234001   4.464   7.501   9.117  0.0944  0.0217 -0.3285
 3269TIP3    H134002   4.412   7.499   9.037 -2.9163  0.6704  1.4524
 3269TIP3    H234003   4.464   7.410   9.148 -0.0887  0.0476 -0.2552
 3270TIP3   OH234004   2.672   0.471   7.416  0.2997  0.4892  0.0035
 3270TIP3    H134005   2.665   0.529   7.339  0.8977  1.2477  0.5059
 3270TIP3    H234006   2.764   0.478   7.442  1.1071 -2.7570 -1.4939
 3271TIP3   OH234007   6.317   0.481   7.665  0.7339 -0.0992  0.6744
 3271TIP3    H134008   6.274   0.563   7.689 -0.1502 -0.4526  0.3301
 3271TIP3    H234009   6.369   0.503   7.588  0.4572  0.1290  0.5501
 3272TIP3   OH234010   5.031   7.359   7.787  0.1377  0.0794  0.1824
 3272TIP3    H134011   4.979   7.438   7.802  0.9145  0.4742  0.9227
 3272TIP3    H234012   5.071   7.342   7.872  0.6624 -0.6123 -0.1997
 3273TIP3   OH234013   0.137   5.348   8.535  0.1382 -0.0616  0.1135
 3273TIP3    H134014   0.185   5.401   8.471  0.0092  0.9198  0.8004
 3273TIP3    H234015   0.206   5.305   8.587  0.2457 -0.4217 -0.3221
 3274TIP3   OH234016   1.485   5.348   8.343  0.0721 -0.4243  0.5161
 3274TIP3    H134017   1.441   5.263   8.351  1.6057 -1.4727 -1.5258
 3274TIP3    H234018   1.545   5.338   8.270 -1.0570  3.0505 -1.0984
 3275TIP3   OH234019   2.689   5.522   7.685 -0.1572 -0.0735 -0.1913
 3275TIP3    H134020   2.740   5.600   7.666  1.4615 -0.9085  0.4266
 3275TIP3    H234021   2.626   5.515   7.614 -0.4105  1.8222 -0.1945
 3276TIP3   OH234022   4.576   1.905   8.833 -0.2573  0.3212 -0.7416
 3276TIP3    H134023   4.657   1.919   8.783 -1.3357  1.6958 -2.2128
 3276TIP3    H234024   4.508   1.942   8.777 -1.7137  0.6068  1.1567
 3277TIP3   OH234025   6.484   6.512   9.291  0.2414  0.4306  0.5168
 3277TIP3    H134026   6.439   6.428   9.301  2.7818 -1.3726 -1.7098
 3277TIP3    H234027   6.558   6.507   9.352  0.5802  0.9063  0.1533
 3278TIP3   OH234028   0.254   3.638   7.984  0.1362  0.1465  0.2876
 3278TIP3    H134029   0.249   3.624   8.078 -0.6803  0.9672  0.3842
 3278TIP3    H234030   0.165   3.620   7.952 -0.4346  2.7375  0.1307
 3279TIP3   OH234031   0.476   6.037   8.617  0.5472  0.1795  0.6875
 3279TIP3    H134032   0.452   6.108   8.559 -2.1418  0.1105  1.5941
 3279TIP3    H234033   0.556   6.000   8.579 -0.3520  0.9654 -2.1708
 3280TIP3   OH234034   2.002   2.847   9.266 -0.7882 -0.4101  0.0706
 3280TIP3    H134035   2.010   2.894   9.183  1.6079 -0.9643 -0.0842
 3280TIP3    H234036   1.908   2.839   9.280 -1.2708  2.0314 -1.2309
 3281TIP3   OH234037   4.991   1.015   8.909  0.1859 -0.1135 -1.2445
 3281TIP3    H134038   4.991   1.061   8.993  2.6994  0.1840 -1.3222
 3281TIP3    H234039   4.996   0.922   8.932 -0.1608 -0.0854 -1.0613
 3282TIP3   OH234040   3.549   0.273   7.705 -0.1325 -0.1222  0.0744
 3282TIP3    H134041   3.467   0.252   7.749 -0.4913  0.6833 -0.1944
 3282TIP3    H234042   3.568   0.195   7.652 -0.0907 -0.7870  1.0538
 3283TIP3   OH234043   4.761   1.274   7.329 -0.1865 -0.3439 -0.1177
 3283TIP3    H134044   4.748   1.183   7.355 -1.2881 -0.7176 -1.7848
 3283TIP3    H234045   4.675   1.302   7.296  0.1776  1.2481  0.1927
 3284TIP3   OH234046   5.655   0.395   9.755 -0.4021  0.0618  0.0634
 3284TIP3    H134047   5.569   0.388   9.796  0.5810 -0.2243  2.1665
 3284TIP3    H234048   5.655   0.482   9.715 -0.4876  1.5713  3.0582
 3285TIP3   OH234049   6.238   2.694   8.666 -0.2328  0.1514 -0.5664
 3285TIP3    H134050   6.285   2.764   8.710  0.1488 -0.5380  0.1570
 3285TIP3    H234051   6.235   2.721   8.574 -0.4142  1.2743 -0.2406
 3286TIP3   OH234052   4.152   0.882   8.237  0.3936 -0.1189  0.4098
 3286TIP3    H134053   4.142   0.825   8.314  0.0778  0.1790  0.5945
 3286TIP3    H234054   4.096   0.958   8.256 -0.1466 -0.3047 -0.3704
 3287TIP3   OH234055   2.305   3.627   9.244  0.1231 -0.0894 -0.6774
 3287TIP3    H134056   2.374   3.573   9.283 -1.0128 -1.1114  0.0351
 3287TIP3    H234057   2.224   3.578   9.262 -0.8743  1.4614 -0.7535
 3288TIP3   OH234058   1.149   3.308   6.737 -0.3411  0.0365  0.3228
 3288TIP3    H134059   1.092   3.272   6.668  0.5054  0.1087 -0.4326
 3288TIP3    H234060   1.228   3.255   6.732  0.6621  1.5226 -0.3425
 3289TIP3   OH234061   4.394   5.387   7.007 -0.6580  0.3964 -0.1007
 3289TIP3    H134062   4.467   5.354   6.955 -1.5272  1.6394 -2.2260
 3289TIP3    H234063   4.430   5.464   7.051 -0.1736 -0.1081  0.3944
 3290TIP3   OH234064   4.818   2.880   8.946 -0.4836 -0.8571  0.0217
 3290TIP3    H134065   4.808   2.929   8.864 -2.8717 -3.1337 -1.1934
 3290TIP3    H234066   4.779   2.937   9.012 -1.1187 -0.1641 -0.9198
 3291TIP3   OH234067   1.073   2.338   8.912 -0.1395  0.5037  0.3718
 3291TIP3    H134068   1.054   2.424   8.949 -0.6810 -0.3114  2.0754
 3291TIP3    H234069   1.077   2.279   8.987 -1.7415 -1.3323 -0.8651
 3292TIP3   OH234070   3.593   6.879   7.612 -0.4916 -0.1540  0.4131
 3292TIP3    H134071   3.670   6.837   7.575 -0.0610 -0.4118  1.5643
 3292TIP3    H234072   3.531   6.884   7.540  0.5667 -0.0252 -0.5066
 3293TIP3   OH234073   4.426   2.055   9.169  0.4596  0.0625  1.3505
 3293TIP3    H134074   4.500   1.996   9.163  0.1834 -0.2927  1.4127
 3293TIP3    H234075   4.349   2.000   9.152  0.2899  0.6482  0.1373
 3294TIP3   OH234076   2.610   4.087   9.414  0.2648 -0.5307  0.2863
 3294TIP3    H134077   2.690   4.138   9.399 -0.6577  0.6330 -0.8483
 3294TIP3    H234078   2.561   4.137   9.478  0.6415 -1.5131  1.3820
 3295TIP3   OH234079   4.754   2.573   8.257 -0.2115  0.7379  0.3317
 3295TIP3    H134080   4.846   2.546   8.248 -0.3580  0.5178 -0.6198
 3295TIP3    H234081   4.755   2.640   8.325  0.3007 -1.0021  2.1278
 3296TIP3   OH234082   1.556   3.226   7.818  0.6650  0.7179  0.3265
 3296TIP3    H134083   1.602   3.162   7.764  0.4206  0.6407  0.2053
 3296TIP3    H234084   1.592   3.310   7.792  1.6897  0.5660  1.1793
 3297TIP3   OH234085   2.322   3.844   6.862  0.2149  0.1957  0.7147
 3297TIP3    H134086   2.336   3.851   6.957 -1.3067  0.3048  0.9506
 3297TIP3    H234087   2.410   3.853   6.825  1.2026 -2.1630  2.2226
 3298TIP3   OH234088   6.236   1.426   7.174  0.6007 -0.5499  0.3697
 3298TIP3    H134089   6.171   1.371   7.131 -0.6542 -0.1415  1.6667
 3298TIP3    H234090   6.259   1.491   7.108 -1.1615 -0.0307  0.2127
 3299TIP3   OH234091   0.407   1.722   7.257 -0.5719  0.5400 -0.4529
 3299TIP3    H134092   0.393   1.683   7.170 -2.1338 -0.9749  0.4094
 3299TIP3    H234093   0.353   1.801   7.257 -1.7313 -0.2261 -0.4076
 3300TIP3   OH234094   4.639   5.523   7.991 -0.0233 -0.3073 -0.4028
 3300TIP3    H134095   4.721   5.493   7.952 -0.5239 -0.3466 -1.4385
 3300TIP3    H234096   4.665   5.597   8.046  1.0135 -1.6655  1.0208
 3301TIP3   OH234097   4.809   3.727   8.789 -0.1134  0.2826 -0.2503
 3301TIP3    H134098   4.786   3.819   8.804  1.4785  0.7997 -0.8368
 3301TIP3    H234099   4.724   3.683   8.779 -1.0144  1.2722  2.1223
 3302TIP3   OH234100   1.553   1.475   9.417  0.0330  0.1994 -0.7428
 3302TIP3    H134101   1.512   1.416   9.354 -1.7321 -0.8380  1.2529
 3302TIP3    H234102   1.624   1.423   9.456  1.1928  0.8752 -1.8888
 3303TIP3   OH234103   6.631   2.625   7.756 -0.0595  0.3170 -0.6643
 3303TIP3    H134104   6.677   2.543   7.776 -0.1798  0.5436  0.5916
 3303TIP3    H234105   6.581   2.605   7.677  2.6712  0.2451 -2.5115
 3304TIP3   OH234106   7.159   7.195   9.212 -0.2178  0.1242 -0.6929
 3304TIP3    H134107   7.218   7.267   9.192  0.9501 -0.9369 -1.1770
 3304TIP3    H234108   7.086   7.236   9.259  0.1532  1.6843 -1.4289
 3305TIP3   OH234109   0.745   1.981   7.162 -0.1045  0.3368  0.4314
 3305TIP3    H134110   0.762   1.931   7.082 -0.3771  1.0169 -0.0598
 3305TIP3    H234111   0.741   2.072   7.133  0.9906  0.7185  1.4090
 3306TIP3   OH234112   7.097   1.453   7.170  0.5927  0.5269 -0.0800
 3306TIP3    H134113   7.016   1.438   7.220  1.7828  1.0251  2.1540
 3306TIP3    H234114   7.102   1.380   7.109 -0.9308 -0.1866  0.5893
 3307TIP3   OH234115   7.011   1.853   8.882 -0.4118 -0.2497  0.7014
 3307TIP3    H134116   7.068   1.922   8.917 -0.2352  0.3723 -0.7498
 3307TIP3    H234117   7.067   1.776   8.875  0.1408  0.2297 -0.2819
 3308TIP3   OH234118   0.292   0.429   7.095  0.6674  0.1789 -0.7148
 3308TIP3    H134119   0.335   0.479   7.026 -1.5897  1.0654 -1.5558
 3308TIP3    H234120   0.253   0.355   7.049 -1.8707  1.4095 -0.6765
 3309TIP3   OH234121   0.423   0.756   9.286  0.0998 -0.4243 -0.0132
 3309TIP3    H134122   0.402   0.844   9.318  0.0048  0.3954 -2.1828
 3309TIP3    H234123   0.466   0.714   9.360  0.0872  1.4093  1.1116
 3310TIP3   OH234124   3.875   0.603   9.252  0.3583 -0.1417 -0.5232
 3310TIP3    H134125   3.874   0.546   9.328  0.1075 -2.1075 -1.9056
 3310TIP3    H234126   3.968   0.609   9.228  0.3238 -0.6160 -0.7987
 3311TIP3   OH234127   7.332   1.440   7.316  0.4093 -0.3432  0.5075
 3311TIP3    H134128   7.346   1.360   7.367 -0.2246 -0.7005  0.1314
 3311TIP3    H234129   7.240   1.462   7.330  0.8285  0.9383  1.4586
 3312TIP3   OH234130   2.435   5.387   9.387  0.0529 -0.4995  0.5396
 3312TIP3    H134131   2.357   5.427   9.425 -0.0789  0.9409 -1.1553
 3312TIP3    H234132   2.502   5.397   9.455  0.5240  4.3419 -0.2961
 3313TIP3   OH234133   6.340   4.454   8.919  0.0729 -0.1612  0.3776
 3313TIP3    H134134   6.385   4.504   8.987 -0.6414  0.8220  0.1552
 3313TIP3    H234135   6.393   4.375   8.908  1.6143  0.8541  0.2560
 3314TIP3   OH234136   6.773   5.379   7.962 -0.0758  0.6090  0.2051
 3314TIP3    H134137   6.757   5.311   7.896  0.6127 -1.9302  2.4647
 3314TIP3    H234138   6.686   5.414   7.982 -0.3795  0.8567 -1.4052
 3315TIP3   OH234139   0.348   2.561   8.973  0.2857 -0.3513 -0.4180
 3315TIP3    H134140   0.410   2.601   8.911  0.3692 -0.3164 -0.3130
 3315TIP3    H234141   0.404   2.512   9.034  0.3793  1.2697  0.8672
 3316TIP3   OH234142   7.060   3.481   7.140  0.3227 -0.0746  0.6134
 3316TIP3    H134143   6.982   3.475   7.086  1.2535 -0.9830 -0.6969
 3316TIP3    H234144   7.046   3.558   7.194 -1.1364  0.2184 -0.1302
 3317TIP3   OH234145   6.767   0.477   8.005  0.0167 -0.3133 -0.3485
 3317TIP3    H134146   6.754   0.494   8.098  2.1299  0.4615 -0.1568
 3317TIP3    H234147   6.710   0.401   7.987  0.3516 -1.1503  1.8092
 3318TIP3   OH234148   1.339   2.807   8.128 -0.0557  1.2992 -0.6616
 3318TIP3    H134149   1.388   2.734   8.166  0.4561  0.4041 -2.8506
 3318TIP3    H234150   1.404   2.877   8.121 -0.2798  1.6358  0.5111
 3319TIP3   OH234151   6.197   1.056   8.306  0.0117  0.2167 -0.3368
 3319TIP3    H134152   6.272   0.996   8.306 -0.1430 -0.0162  1.5075
 3319TIP3    H234153   6.233   1.140   8.336 -0.5445 -0.0321  1.0731
 3320TIP3   OH234154   1.111   3.020   8.945  0.0535  0.6082  0.1852
 3320TIP3    H134155   1.149   3.044   9.030  2.3479 -0.9791 -0.3074
 3320TIP3    H234156   1.090   3.104   8.904  0.5628  1.4653  1.5970
 3321TIP3   OH234157   1.895   2.405   6.535  0.9085  0.2593  0.5267
 3321TIP3    H134158   1.975   2.371   6.577 -0.7238 -1.4679  2.4964
 3321TIP3    H234159   1.851   2.327   6.501 -0.3589  1.0509  0.2794
 3322TIP3   OH234160   0.767   2.210   7.359  0.1365  0.3420  0.1698
 3322TIP3    H134161   0.766   2.227   7.265 -1.3804  0.4197  0.1746
 3322TIP3    H234162   0.684   2.245   7.390  1.4118  2.0891  1.8768
 3323TIP3   OH234163   7.092   1.505   8.838  0.2736  0.0624 -0.3501
 3323TIP3    H134164   7.092   1.413   8.864  1.3272 -0.9970 -3.6266
 3323TIP3    H234165   7.009   1.518   8.793  0.2011  0.6955 -0.0500
 3324TIP3   OH234166   0.186   0.200   7.018  0.1111 -0.5680 -0.1632
 3324TIP3    H134167   0.111   0.164   6.971 -0.0553 -0.2825 -0.1148
 3324TIP3    H234168   0.221   0.126   7.066 -0.5240 -0.5619  0.3188
 3325TIP3   OH234169   3.428   5.849   8.608  0.7311  0.4541 -0.4017
 3325TIP3    H134170   3.457   5.809   8.526 -0.0159 -0.5179 -0.2067
 3325TIP3    H234171   3.382   5.779   8.654 -0.3288  1.4549  0.0938
 3326TIP3   OH234172   6.034   6.146   7.727  0.9871  0.8097 -0.1763
 3326TIP3    H134173   6.078   6.228   7.702  0.6254  1.2668  0.6356
 3326TIP3    H234174   6.104   6.081   7.729  1.2308  1.0204 -1.1144
 3327TIP3   OH234175   1.347   5.173   7.463  0.0412 -0.9476  0.0186
 3327TIP3    H134176   1.437   5.143   7.478  0.0252 -2.7088 -2.6322
 3327TIP3    H234177   1.357   5.250   7.407 -0.0917  0.0121  1.2866
 3328TIP3   OH234178   4.603   6.787   8.974 -0.2158  0.5217  0.1117
 3328TIP3    H134179   4.516   6.807   9.009 -0.1379 -0.5581  1.0005
 3328TIP3    H234180   4.589   6.774   8.880 -0.3724  3.8482 -0.4399
 3329TIP3   OH234181   6.839   0.724   8.466 -0.4124  0.0176 -0.0248
 3329TIP3    H134182   6.764   0.766   8.508 -1.3707 -3.2059  1.7774
 3329TIP3    H234183   6.909   0.728   8.531 -0.2027 -0.2598 -0.2309
 3330TIP3   OH234184   2.203   0.909   8.210 -0.0250  0.4918  0.3987
 3330TIP3    H134185   2.179   0.902   8.302  2.0143 -0.5819  0.9148
 3330TIP3    H234186   2.265   0.838   8.196 -1.6562 -0.5923 -2.3055
 3331TIP3   OH234187   2.454   4.896   7.843  0.6328  0.6071  0.1030
 3331TIP3    H134188   2.522   4.869   7.905  0.2515 -1.3882 -0.2900
 3331TIP3    H234189   2.384   4.932   7.898  0.8913  0.1791  0.7145
 3332TIP3   OH234190   2.469   6.588   7.015  0.6902  0.4197  0.1477
 3332TIP3    H134191   2.513   6.673   7.008  2.7787 -0.6568 -0.5973
 3332TIP3    H234192   2.506   6.536   6.944 -1.3415 -0.8153 -0.0793
 3333TIP3   OH234193   1.915   0.395   9.239 -0.4675 -0.2760  0.6641
 3333TIP3    H134194   1.914   0.344   9.158  0.1466 -1.5124  1.4002
 3333TIP3    H234195   1.867   0.475   9.217  1.5933  0.4780 -1.5722
 3334TIP3   OH234196   2.917   1.009   7.094 -0.2027 -0.5475  0.2080
 3334TIP3    H134197   2.909   0.937   7.157 -2.0367  0.7489  1.5504
 3334TIP3    H234198   2.848   1.071   7.119  0.5427  1.1329 -1.6400
 3335TIP3   OH234199   3.818   0.511   6.498  0.1175 -0.2485  0.2632
 3335TIP3    H134200   3.794   0.573   6.567 -2.3979 -2.0135  1.0793
 3335TIP3    H234201   3.896   0.467   6.532 -0.7342 -0.6732  1.7547
 3336TIP3   OH234202   4.592   6.804   9.874  0.3326 -0.1451 -0.0534
 3336TIP3    H134203   4.655   6.732   9.885  1.0356  0.5589  0.5993
 3336TIP3    H234204   4.613   6.841   9.788  0.8090  0.0863  0.1626
 3337TIP3   OH234205   1.924   5.575   8.871 -0.5540  0.7625 -0.2933
 3337TIP3    H134206   1.978   5.527   8.808  1.8979  3.1764 -0.2180
 3337TIP3    H234207   1.924   5.520   8.949  0.0643 -0.2485 -0.9768
 3338TIP3   OH234208   1.077   7.277   8.141  0.3200  0.0295  0.1121
 3338TIP3    H134209   1.128   7.281   8.060 -0.8478  1.4285 -0.6005
 3338TIP3    H234210   1.136   7.313   8.208  0.3827  1.4291 -0.6562
 3339TIP3   OH234211   7.000   0.815   7.226  0.4134 -0.0663 -0.4033
 3339TIP3    H134212   7.070   0.879   7.242 -0.3623  0.6474  0.2130
 3339TIP3    H234213   7.016   0.745   7.290 -0.3335  0.8518  0.8280
 3340TIP3   OH234214   3.165   0.735   6.985  0.0044  0.2781  0.1163
 3340TIP3    H134215   3.178   0.680   7.062  0.0590 -1.0646 -0.8168
 3340TIP3    H234216   3.160   0.673   6.912 -2.6178  1.2764 -0.6939
 3341TIP3   OH234217   5.688   6.275   8.717 -0.0273  0.6238 -0.4907
 3341TIP3    H134218   5.700   6.362   8.754  1.9865  0.1981 -0.0231
 3341TIP3    H234219   5.776   6.247   8.692 -0.7706 -0.8325 -1.6984
 3342TIP3   OH234220   6.224   1.038   7.756  0.0597  0.3455 -0.1804
 3342TIP3    H134221   6.186   1.083   7.831 -1.0654 -0.6390 -0.1309
 3342TIP3    H234222   6.161   0.968   7.736  2.8038 -2.7984  1.2452
 3343TIP3   OH234223   6.896   5.184   8.475  0.1209 -0.4471 -0.0056
 3343TIP3    H134224   6.828   5.179   8.408  0.0040  0.2880  0.0455
 3343TIP3    H234225   6.929   5.273   8.469  0.2722 -0.4424  0.7538
 3344TIP3   OH234226   1.822   1.207   9.105  0.1012  0.2721  0.0259
 3344TIP3    H134227   1.781   1.269   9.045  0.9154  1.4356  0.6278
 3344TIP3    H234228   1.902   1.251   9.134  1.4977 -1.6715 -0.6570
 3345TIP3   OH234229   0.604   7.314   7.882 -0.5949  0.1357 -0.0585
 3345TIP3    H134230   0.635   7.398   7.848  1.6057 -0.5038  0.2169
 3345TIP3    H234231   0.664   7.293   7.953 -2.4865 -0.6341  1.3818
 3346TIP3   OH234232   7.428   1.372   6.461  0.0443 -0.0247  0.1784
 3346TIP3    H134233   7.340   1.381   6.426 -0.1173 -0.1741  0.5387
 3346TIP3    H234234   7.468   1.458   6.449 -0.8320  0.6642  1.8073
 3347TIP3   OH234235   5.631   5.388   8.642 -0.0787  0.1667 -0.4162
 3347TIP3    H134236   5.619   5.334   8.564  2.8083 -2.9780  1.0606
 3347TIP3    H234237   5.560   5.364   8.700 -0.9747  0.8969 -1.1634
 3348TIP3   OH234238   6.301   0.289   8.862 -0.0553 -0.1071 -0.1089
 3348TIP3    H134239   6.350   0.346   8.921 -0.6500  0.0657  0.2303
 3348TIP3    H234240   6.258   0.349   8.801 -0.0304 -0.2404 -0.2589
 3349TIP3   OH234241   0.635   6.272   7.958  0.5378 -0.2787 -0.1895
 3349TIP3    H134242   0.659   6.331   7.887  1.7077 -1.0044 -0.4249
 3349TIP3    H234243   0.622   6.187   7.916 -1.1382 -0.2229  0.1411
 3350TIP3   OH234244   5.321   3.881   8.328  0.7582  0.1631 -0.5281
 3350TIP3    H134245   5.344   3.970   8.300  1.2832  0.4719  0.7991
 3350TIP3    H234246   5.287   3.892   8.417  2.6847 -1.1646  0.4357
 3351TIP3   OH234247   5.215   4.610   7.388  0.3277 -0.2446 -0.3849
 3351TIP3    H134248   5.149   4.585   7.453 -1.5246 -0.4484 -2.2486
 3351TIP3    H234249   5.243   4.527   7.349  1.7333 -0.1610  0.3780
 3352TIP3   OH234250   4.552   4.726   7.347 -0.4521 -0.2609 -0.4729
 3352TIP3    H134251   4.526   4.761   7.432 -0.1716 -2.2549  0.4852
 3352TIP3    H234252   4.584   4.802   7.299 -3.7619  1.5654 -0.1180
 3353TIP3   OH234253   0.468   3.526   6.959  0.2872  0.4333 -0.1024
 3353TIP3    H134254   0.467   3.431   6.967 -1.5790  0.1317 -2.6520
 3353TIP3    H234255   0.554   3.546   6.924  0.0606 -0.5298 -1.2538
 3354TIP3   OH234256   4.521   7.222   8.160 -0.2410 -0.2554 -0.2077
 3354TIP3    H134257   4.473   7.152   8.116 -0.9466  1.1683 -1.8194
 3354TIP3    H234258   4.577   7.260   8.092  2.7057 -1.3311  1.4057
 3355TIP3   OH234259   1.015   5.201   8.844  0.3510  0.2148 -0.2010
 3355TIP3    H134260   0.942   5.261   8.828  0.6824  0.6237 -0.2011
 3355TIP3    H234261   1.073   5.248   8.903  0.7949  0.0373 -0.4877
 3356TIP3   OH234262   2.605   3.758   8.444  0.3951 -0.0702  0.0541
 3356TIP3    H134263   2.544   3.704   8.394 -0.3278 -0.7286  1.5511
 3356TIP3    H234264   2.661   3.694   8.490  0.7283  0.4864  0.4434
 3357TIP3   OH234265   2.214   0.830   9.420  0.0347  0.2662 -0.1803
 3357TIP3    H134266   2.165   0.877   9.488 -0.0718 -1.3413  0.9224
 3357TIP3    H234267   2.151   0.819   9.349 -0.1375  1.1571 -0.1847
 3358TIP3   OH234268   0.243   5.613   8.458 -0.2007 -0.2106 -0.1620
 3358TIP3    H134269   0.158   5.657   8.456 -1.2908 -2.1995 -0.4584
 3358TIP3    H234270   0.292   5.651   8.385 -1.7168 -0.6345 -1.4413
 3359TIP3   OH234271   5.146   5.152   9.069 -0.1386  0.3295 -0.0843
 3359TIP3    H134272   5.125   5.245   9.073  0.8922  0.5830 -0.2958
 3359TIP3    H234273   5.071   5.109   9.111  0.0026  1.3340  1.2649
 3360TIP3   OH234274   6.415   1.170   7.552 -0.5094 -0.3688  0.3553
 3360TIP3    H134275   6.379   1.088   7.519 -1.1626 -0.0664  0.3071
 3360TIP3    H234276   6.391   1.172   7.644 -0.5863 -0.1901  0.3333
 3361TIP3   OH234277   2.957   4.778   6.661  0.2795  0.2218  0.2587
 3361TIP3    H134278   2.867   4.759   6.687  0.6032 -2.6566 -0.4920
 3361TIP3    H234279   2.973   4.866   6.697 -3.4456  1.8081 -1.3356
 3362TIP3   OH234280   7.190   7.186   8.399  0.0749  0.4304 -0.3623
 3362TIP3    H134281   7.153   7.104   8.431 -0.7204  0.3704 -1.3644
 3362TIP3    H234282   7.272   7.161   8.356  0.5651  0.3661  0.5882
 3363TIP3   OH234283   6.775   3.278   9.271  0.4220 -0.2939  0.0274
 3363TIP3    H134284   6.785   3.275   9.366  1.6518  1.8915  0.0484
 3363TIP3    H234285   6.858   3.315   9.239 -0.1124 -0.6134 -1.8672
 3364TIP3   OH234286   7.145   2.053   7.250 -0.0495 -0.1527  0.1987
 3364TIP3    H134287   7.230   2.036   7.210 -0.3695  0.0952 -0.5981
 3364TIP3    H234288   7.155   2.022   7.340  0.9135 -0.0300  0.1480
 3365TIP3   OH234289   6.367   3.183   8.524 -0.1868 -0.5960  0.2236
 3365TIP3    H134290   6.287   3.166   8.474  0.3253  0.4934 -1.0274
 3365TIP3    H234291   6.438   3.160   8.464  0.4420  1.1570  0.2363
 3366TIP3   OH234292   6.861   7.014   9.177  0.1286 -0.1761 -0.6333
 3366TIP3    H134293   6.845   6.924   9.207  2.3652 -0.4315  0.0117
 3366TIP3    H234294   6.939   7.041   9.225  0.3329  1.6017 -1.8788
 3367TIP3   OH234295   5.670   0.090   7.186 -0.2720 -0.5219  0.6223
 3367TIP3    H134296   5.608   0.065   7.256 -0.6293 -0.1057  0.4588
 3367TIP3    H234297   5.746   0.034   7.201 -0.7004 -1.0660  0.8136
 3368TIP3   OH234298   7.378   4.976   8.342 -0.3969 -0.0069 -0.4025
 3368TIP3    H134299   7.459   4.926   8.355 -0.3900  0.2527  0.6607
 3368TIP3    H234300   7.404   5.067   8.356 -1.0374  0.0037  0.7925
 3369TIP3   OH234301   0.479   0.379   7.631  0.2478 -0.0612  0.2424
 3369TIP3    H134302   0.454   0.417   7.547  0.6345  0.5985  0.4171
 3369TIP3    H234303   0.468   0.284   7.619  0.9098 -0.0293 -0.7622
 3370TIP3   OH234304   5.725   5.129   8.116  0.3524  0.0476 -0.2924
 3370TIP3    H134305   5.756   5.056   8.063 -2.7942  0.2874 -2.7511
 3370TIP3    H234306   5.671   5.089   8.184 -1.0788  0.0243 -1.4201
 3371TIP3   OH234307   3.183   3.616   7.415 -0.3597  0.1179  0.1655
 3371TIP3    H134308   3.251   3.605   7.482 -0.6670  1.9985  0.8439
 3371TIP3    H234309   3.231   3.615   7.332  0.3402  0.1783  0.5553
 3372TIP3   OH234310   0.311   5.165   8.641 -0.3980 -0.5172  0.1353
 3372TIP3    H134311   0.305   5.105   8.716 -2.7286 -1.1243 -0.4658
 3372TIP3    H234312   0.295   5.110   8.565 -1.0246  0.5987 -0.5670
 3373TIP3   OH234313   5.138   0.975   9.645 -0.0716 -0.0734  0.3451
 3373TIP3    H134314   5.157   0.990   9.552  0.3431  1.7652  0.7021
 3373TIP3    H234315   5.219   0.938   9.680  0.3855  0.8728  0.3220
 3374TIP3   OH234316   5.798   4.799   6.835  0.5232 -0.1248 -0.0073
 3374TIP3    H134317   5.784   4.893   6.848  3.0766  0.1412  1.5896
 3374TIP3    H234318   5.725   4.758   6.881 -1.0170  1.0105 -1.2958
 3375TIP3   OH234319   3.208   2.058   8.163  0.6359  0.0888  0.4185
 3375TIP3    H134320   3.291   2.097   8.134  0.8050 -0.5894 -0.0191
 3375TIP3    H234321   3.141   2.101   8.111  0.6005  1.3235  1.4263
 3376TIP3   OH234322   2.437   3.916   8.701 -0.5709  0.2903  0.1739
 3376TIP3    H134323   2.358   3.956   8.665 -0.9206 -0.8763 -0.4021
 3376TIP3    H234324   2.419   3.822   8.701  1.0553 -0.0649 -0.5833
 3377TIP3   OH234325   7.365   4.750   8.939 -0.9150 -0.3523  0.2325
 3377TIP3    H134326   7.411   4.792   9.012 -2.0854  1.2212  0.1144
 3377TIP3    H234327   7.291   4.705   8.979 -0.3989 -1.2317  0.2153
 3378TIP3   OH234328   0.910   2.027   9.343 -0.4094 -0.6111  0.0331
 3378TIP3    H134329   0.986   1.976   9.372 -0.7737 -0.4992  1.2212
 3378TIP3    H234330   0.918   2.110   9.390 -0.1978  0.1933 -1.3638
 3379TIP3   OH234331   7.468   5.930   7.757 -0.1057 -0.0013 -0.2420
 3379TIP3    H134332   7.394   5.985   7.731 -0.1293  1.9053  3.2251
 3379TIP3    H234333   7.543   5.989   7.759  0.0793 -0.1875  2.5844
 3380TIP3   OH234334   4.808   7.142   8.096  0.5627 -0.0307 -0.8397
 3380TIP3    H134335   4.809   7.114   8.004 -0.5821 -1.1707 -0.5468
 3380TIP3    H234336   4.720   7.118   8.126  1.0292  0.0511  0.6339
 3381TIP3   OH234337   5.454   2.449   9.387 -0.0229 -0.1804  0.1222
 3381TIP3    H134338   5.400   2.528   9.397  0.6476  0.3499 -0.3473
 3381TIP3    H234339   5.541   2.482   9.366 -0.3028 -1.0715 -2.8719
 3382TIP3   OH234340   6.644   7.299   8.989  0.0822 -0.6290 -0.1919
 3382TIP3    H134341   6.605   7.262   9.068  0.3471 -0.2686  0.1112
 3382TIP3    H234342   6.698   7.229   8.953  2.9017  0.2985  1.9292
 3383TIP3   OH234343   4.319   1.072   6.646 -0.3664 -0.8203 -0.1683
 3383TIP3    H134344   4.247   1.109   6.595  0.2444  0.1465 -0.3647
 3383TIP3    H234345   4.277   1.012   6.707 -1.2877 -0.6405 -0.6090
 3384TIP3   OH234346   2.396   5.900   8.465 -0.1745  0.1908 -0.4392
 3384TIP3    H134347   2.406   5.987   8.426  0.1264  0.0974 -0.5738
 3384TIP3    H234348   2.349   5.849   8.399  1.0998 -0.2183 -1.0624
 3385TIP3   OH234349   1.512   6.453   8.743 -0.0878 -0.6268 -0.0324
 3385TIP3    H134350   1.504   6.371   8.792  1.1702  0.4201  2.0568
 3385TIP3    H234351   1.567   6.509   8.798  2.1002  0.4198 -2.9841
 3386TIP3   OH234352   5.395   7.186   8.626  0.1370 -0.4307  0.2904
 3386TIP3    H134353   5.358   7.100   8.607 -2.6853  0.5134  1.0949
 3386TIP3    H234354   5.489   7.176   8.609 -0.2211 -3.4105 -0.4179
 3387TIP3   OH234355   5.322   5.942   9.159 -0.0017 -0.0130 -0.4651
 3387TIP3    H134356   5.396   5.984   9.115 -0.7394  0.7839 -0.9785
 3387TIP3    H234357   5.245   5.988   9.125 -0.6492  0.0248  0.9981
 3388TIP3   OH234358   0.075   4.854   7.413 -0.5149  0.4872  0.4214
 3388TIP3    H134359   0.111   4.778   7.369  1.6733 -0.5398  3.6113
 3388TIP3    H234360   0.073   4.923   7.346  1.1447 -1.2856 -1.5848
 3389TIP3   OH234361   4.553   5.441   7.314  0.0065 -0.6264 -0.4903
 3389TIP3    H134362   4.517   5.486   7.238 -0.4025  0.8756  0.5328
 3389TIP3    H234363   4.615   5.378   7.278  0.7453  0.8849 -2.0130
 3390TIP3   OH234364   0.063   6.909   8.765  0.2179  0.0383  0.5060
 3390TIP3    H134365   0.100   6.926   8.851  1.5995  0.0366 -0.0708
 3390TIP3    H234366   0.082   6.817   8.747  1.2335  0.4110 -0.4018
 3391TIP3   OH234367   5.365   2.711   7.229 -0.0660 -0.0280  0.4939
 3391TIP3    H134368   5.394   2.749   7.146 -1.8276 -0.5799 -0.4468
 3391TIP3    H234369   5.289   2.765   7.254 -0.4173 -0.7372  0.9917
 3392TIP3   OH234370   5.637   1.000   7.823  0.3484 -0.1875  0.7587
 3392TIP3    H134371   5.588   0.975   7.744 -0.5482 -0.4557  1.3895
 3392TIP3    H234372   5.673   1.086   7.802  0.5948 -0.4978 -0.1568
 3393TIP3   OH234373   4.904   6.098   8.647 -0.4022 -0.2204  0.4601
 3393TIP3    H134374   4.874   6.098   8.738  3.0398 -0.2061  1.7255
 3393TIP3    H234375   4.918   6.006   8.627 -1.3227 -0.2374 -0.1778
 3394TIP3   OH234376   2.023   2.922   6.780 -0.2167  0.4514 -0.1558
 3394TIP3    H134377   2.064   2.989   6.834 -0.1650  0.3691 -0.0936
 3394TIP3    H234378   2.004   2.967   6.697  0.0853  0.4649 -0.2187
 3395TIP3   OH234379   1.060   4.551   9.304  0.2424  0.6387  0.1949
 3395TIP3    H134380   1.129   4.618   9.301  0.3963  0.5266  1.0275
 3395TIP3    H234381   0.981   4.597   9.277  1.1823 -0.0303 -4.4453
 3396TIP3   OH234382   1.899   1.033   8.757 -0.0896  0.1416 -0.0177
 3396TIP3    H134383   1.860   1.022   8.670 -0.5014 -4.7298  0.5191
 3396TIP3    H234384   1.827   1.014   8.818  0.9550  0.3857  1.3393
 3397TIP3   OH234385   7.042   2.736   8.324 -0.0556  0.0944  0.0148
 3397TIP3    H134386   7.055   2.785   8.405  0.4029 -1.4183  0.8873
 3397TIP3    H234387   6.954   2.701   8.331 -0.6221  1.2591 -0.8980
 3398TIP3   OH234388   0.133   2.321   8.151 -0.3458 -0.2753 -0.5086
 3398TIP3    H134389   0.133   2.341   8.244  0.4249  1.5303 -0.8597
 3398TIP3    H234390   0.221   2.288   8.133  0.0491  0.8929 -0.8525
 3399TIP3   OH234391   2.851   6.116   9.534  0.0488  0.1475 -0.1525
 3399TIP3    H134392   2.802   6.121   9.452 -0.0311 -1.1308 -0.1962
 3399TIP3    H234393   2.801   6.170   9.596 -0.8819 -0.3409 -0.4640
 3400TIP3   OH234394   5.159   2.928   7.254 -0.0996  0.2559  0.1589
 3400TIP3    H134395   5.130   2.996   7.194 -1.9619 -1.0739 -0.5451
 3400TIP3    H234396   5.084   2.912   7.311  0.1890 -1.3370  0.1521
 3401TIP3   OH234397   2.207   4.039   8.821  0.1543  0.0934 -0.0253
 3401TIP3    H134398   2.148   3.969   8.793  0.2849  0.2403 -0.6748
 3401TIP3    H234399   2.270   3.996   8.878 -0.2349 -0.1700  0.2163
 3402TIP3   OH234400   1.642   1.355   8.887  0.1193 -0.0638 -0.1832
 3402TIP3    H134401   1.643   1.353   8.792  1.9123  0.9181 -0.2299
 3402TIP3    H234402   1.603   1.440   8.909 -0.9807 -0.5992 -0.0035
 3403TIP3   OH234403   1.151   3.086   9.215  0.9008 -0.5615  0.1092
 3403TIP3    H134404   1.065   3.128   9.221  0.9384 -0.1581 -1.7026
 3403TIP3    H234405   1.205   3.133   9.279  0.6170  1.3892 -1.0208
 3404TIP3   OH234406   3.109   7.425   8.930  0.3186  0.6043  0.1305
 3404TIP3    H134407   3.057   7.506   8.927 -2.1932 -0.8494  1.1694
 3404TIP3    H234408   3.063   7.370   8.993 -1.0943 -3.5152 -3.9184
 3405TIP3   OH234409   2.674   6.139   6.723 -1.0144 -0.2817 -0.5043
 3405TIP3    H134410   2.738   6.210   6.723  0.4396 -1.5357 -1.0834
 3405TIP3    H234411   2.591   6.182   6.703 -0.4443  1.4370  0.5504
 3406TIP3   OH234412   4.998   5.762   7.818  0.2741  0.9830 -0.4317
 3406TIP3    H134413   5.031   5.714   7.894  1.6446  2.7213  0.1374
 3406TIP3    H234414   4.931   5.704   7.780 -0.2376 -0.0693  1.9028
 3407TIP3   OH234415   1.899   7.373   8.438  0.3161  0.4132  0.1348
 3407TIP3    H134416   1.975   7.421   8.404 -0.8162  3.2662  1.3178
 3407TIP3    H234417   1.920   7.281   8.422  3.6359  1.1148 -0.3309
 3408TIP3   OH234418   3.932   5.562   6.781  0.4195 -0.0678  0.7698
 3408TIP3    H134419   3.946   5.474   6.746 -1.2408 -0.5571  1.2128
 3408TIP3    H234420   3.863   5.599   6.725 -0.4895  0.0785  1.9284
 3409TIP3   OH234421   3.488   7.012   9.488  0.2390  0.7587  0.0818
 3409TIP3    H134422   3.417   6.950   9.505  0.3921  0.3886 -0.5756
 3409TIP3    H234423   3.568   6.965   9.515  0.4244  0.3842 -1.0418
 3410TIP3   OH234424   1.062   0.006   8.290 -0.3195 -0.2052  0.1432
 3410TIP3    H134425   0.990  -0.027   8.343 -0.1393 -0.3210  0.3165
 3410TIP3    H234426   1.020   0.059   8.223 -0.6135 -0.8571 -0.1889
 3411TIP3   OH234427   1.009   3.151   7.546  0.1486 -0.5861 -0.3599
 3411TIP3    H134428   1.042   3.210   7.614 -1.8277 -0.9173  0.9903
 3411TIP3    H234429   1.035   3.064   7.575  1.4636 -0.5676 -1.3881
 3412TIP3   OH234430   4.112   0.918   7.905 -0.1434  0.2928 -0.3187
 3412TIP3    H134431   4.168   0.853   7.948  1.2799  0.5737 -1.6702
 3412TIP3    H234432   4.023   0.886   7.919  0.4937 -1.7065 -0.5175
 3413TIP3   OH234433   1.491   4.817   9.453 -0.5501 -0.7068 -0.2215
 3413TIP3    H134434   1.484   4.900   9.406 -1.3466  0.4018  1.7340
 3413TIP3    H234435   1.403   4.801   9.487  0.3015 -0.5345  2.2945
 3414TIP3   OH234436   3.839   3.211   9.568  0.1033  0.4567  0.3304
 3414TIP3    H134437   3.858   3.119   9.549 -0.0315  0.5460 -0.2553
 3414TIP3    H234438   3.762   3.231   9.515 -0.1118  0.7963  0.7659
 3415TIP3   OH234439   5.189   2.797   7.782  0.0784 -0.3240  0.2496
 3415TIP3    H134440   5.161   2.826   7.695 -0.5056  1.0485  0.8597
 3415TIP3    H234441   5.219   2.707   7.769 -0.8060 -0.4475 -1.2016
 3416TIP3   OH234442   0.714   4.844   9.007 -0.4217  0.5401 -0.0592
 3416TIP3    H134443   0.660   4.788   8.951  0.9468  0.6778 -1.6176
 3416TIP3    H234444   0.781   4.879   8.948 -0.4499  2.8017  1.1523
 3417TIP3   OH234445   2.807   5.756   8.115  0.0533 -0.2144 -0.4870
 3417TIP3    H134446   2.822   5.804   8.033 -1.0020 -0.3948 -0.7931
 3417TIP3    H234447   2.843   5.669   8.098 -1.8960 -0.8793 -1.4820
 3418TIP3   OH234448   7.422   2.156   9.281 -0.3960  0.3698 -0.1187
 3418TIP3    H134449   7.354   2.149   9.349 -0.1873 -0.1840  0.0413
 3418TIP3    H234450   7.382   2.210   9.212  0.0327  2.4639  1.1984
 3419TIP3   OH234451   4.106   7.073   7.885  0.3552 -0.3446  0.5796
 3419TIP3    H134452   4.012   7.072   7.899  0.4044 -0.6353  0.9262
 3419TIP3    H234453   4.140   7.009   7.948  0.7185 -0.7268  0.0063
 3420TIP3   OH234454   0.007   4.229   8.801  0.4155 -0.3130 -0.1935
 3420TIP3    H134455  -0.078   4.240   8.759 -0.7532 -0.7705  1.8695
 3420TIP3    H234456   0.009   4.295   8.870  0.9691 -1.3913  0.8751
 3421TIP3   OH234457   2.412   3.400   7.404 -0.1357 -0.5744  0.3775
 3421TIP3    H134458   2.429   3.406   7.310 -0.2292  1.1093  0.4328
 3421TIP3    H234459   2.355   3.474   7.422  0.2045 -0.6433  1.8311
 3422TIP3   OH234460   1.992   4.393   8.773 -0.0764  0.3457  0.1611
 3422TIP3    H134461   1.972   4.468   8.718 -1.5703  0.8396  1.3038
 3422TIP3    H234462   1.972   4.317   8.718 -1.4792  0.8227 -0.0387
 3423TIP3   OH234463   6.193   1.415   6.716  0.3120 -0.3184 -0.4280
 3423TIP3    H134464   6.257   1.364   6.668 -0.1024 -0.7094 -0.5781
 3423TIP3    H234465   6.234   1.500   6.729 -0.3558  0.5138 -3.2712
 3424TIP3   OH234466   4.150   2.084   9.340  0.4284  0.0254 -0.7554
 3424TIP3    H134467   4.208   2.066   9.414 -1.4496 -0.8216  0.5894
 3424TIP3    H234468   4.207   2.124   9.274  2.1139  1.0647  1.2274
 3425TIP3   OH234469   5.370   2.695   9.441  0.0673  0.5682 -0.4151
 3425TIP3    H134470   5.346   2.729   9.355 -0.1422 -0.3978 -0.7540
 3425TIP3    H234471   5.287   2.674   9.483  0.1795  0.7971 -0.0771
 3426TIP3   OH234472   7.507   2.873   9.329 -0.4918  0.2250  0.6871
 3426TIP3    H134473   7.504   2.839   9.240  1.2815  1.3756  0.1424
 3426TIP3    H234474   7.511   2.794   9.384 -1.5191 -0.4947 -0.2155
 3427TIP3   OH234475   4.637   0.804   8.218  0.2207  0.0399  0.9645
 3427TIP3    H134476   4.709   0.866   8.209 -0.6798  1.0386  0.3615
 3427TIP3    H234477   4.558   0.855   8.199 -0.6105 -1.1473  1.0520
 3428TIP3   OH234478   2.690   3.425   8.778 -0.5374  0.2266  0.6182
 3428TIP3    H134479   2.679   3.349   8.835 -0.0986 -1.2757 -1.1994
 3428TIP3    H234480   2.734   3.391   8.701  1.4734  2.7352  0.5249
 3429TIP3   OH234481   3.466   4.663   9.633  0.4890  0.2585  0.3777
 3429TIP3    H134482   3.548   4.704   9.662  0.5191 -0.7817  1.8442
 3429TIP3    H234483   3.403   4.735   9.631  1.3318  1.0042 -0.4398
 3430TIP3   OH234484   5.764   3.122   7.651  0.1765  0.6681  0.1331
 3430TIP3    H134485   5.691   3.171   7.689  0.2808 -0.1111  1.4117
 3430TIP3    H234486   5.837   3.184   7.648 -0.3439  1.2570 -0.5170
 3431TIP3   OH234487   1.979   3.925   6.654  0.4783  0.0556 -0.0760
 3431TIP3    H134488   2.020   3.942   6.569  0.6822  1.1469  0.2333
 3431TIP3    H234489   1.907   3.988   6.659  0.1356 -0.3581  0.3431
 3432TIP3   OH234490   2.044   6.033   8.399 -0.7853  0.2628  0.5317
 3432TIP3    H134491   1.999   5.993   8.473 -2.7349  2.7280  0.8335
 3432TIP3    H234492   2.089   6.108   8.436  2.1993 -1.0772 -0.1148
 3433TIP3   OH234493   1.794   7.060   8.999  0.2100 -0.3351 -0.2349
 3433TIP3    H134494   1.773   7.139   8.949  1.4014 -0.2555 -0.6386
 3433TIP3    H234495   1.888   7.066   9.016  0.3483 -1.7076 -0.3532
 3434TIP3   OH234496   0.962   3.266   8.167  0.4842 -0.3264 -0.1634
 3434TIP3    H134497   1.019   3.200   8.207  0.0679 -1.7952 -1.8656
 3434TIP3    H234498   1.011   3.296   8.090  0.0950  0.3879 -0.1423
 3435TIP3   OH234499   2.170   6.045   8.151 -0.0309  0.0170  0.2895
 3435TIP3    H134500   2.142   6.059   8.241  0.8696  1.6311  0.3491
 3435TIP3    H234501   2.105   6.092   8.098  0.1752  0.1658  0.1692
 3436TIP3   OH234502   4.385   6.664   8.450 -0.2517  0.7024 -0.8647
 3436TIP3    H134503   4.298   6.626   8.435  0.0114 -0.0871 -0.4374
 3436TIP3    H234504   4.445   6.605   8.406  0.0274  1.7200 -1.9214
 3437TIP3   OH234505   2.167   5.227   6.391 -0.0411  0.9143 -0.5633
 3437TIP3    H134506   2.077   5.196   6.383  0.3649 -0.4716  0.0036
 3437TIP3    H234507   2.221   5.153   6.364  0.9713  0.9913  1.1138
 3438TIP3   OH234508   2.662   2.582   8.114  0.0146  0.3860 -0.0182
 3438TIP3    H134509   2.623   2.496   8.098  0.7445 -0.0548  0.5048
 3438TIP3    H234510   2.601   2.644   8.075 -0.3875 -0.3895 -0.6376
 3439TIP3   OH234511   4.680   4.246   9.045 -0.1041  0.6354 -0.4483
 3439TIP3    H134512   4.770   4.277   9.054  0.1908  0.4541 -2.4440
 3439TIP3    H234513   4.660   4.207   9.130  1.7008  0.6428  0.0209
 3440TIP3   OH234514   1.490   0.299   6.494  0.4144 -0.2478 -0.1807
 3440TIP3    H134515   1.560   0.260   6.442  0.5296  0.0328 -0.2429
 3440TIP3    H234516   1.412   0.249   6.471  0.2599  0.4975 -1.4001
 3441TIP3   OH234517   4.671   3.749   9.702  0.4933 -0.0541  0.0950
 3441TIP3    H134518   4.727   3.807   9.651  0.5571 -0.3338 -0.1564
 3441TIP3    H234519   4.599   3.805   9.731 -0.7845 -0.3598 -2.2223
 3442TIP3   OH234520   6.762   5.979   9.362  0.3107  0.3143  0.4797
 3442TIP3    H134521   6.714   6.061   9.352  0.7551  0.6630  1.1845
 3442TIP3    H234522   6.694   5.913   9.374 -0.0630  0.5244 -0.3794
 3443TIP3   OH234523   2.302   2.189   7.842 -0.5537  0.3072 -0.3062
 3443TIP3    H134524   2.384   2.163   7.800 -1.5634 -1.5980 -1.2211
 3443TIP3    H234525   2.321   2.275   7.880  1.2113  0.9197 -2.3521
 3444TIP3   OH234526   4.176   3.818   7.683 -0.0587 -0.3925 -0.2693
 3444TIP3    H134527   4.252   3.842   7.736  0.9249  0.8257 -2.1323
 3444TIP3    H234528   4.103   3.867   7.722  0.5870  0.2717  0.1284
 3445TIP3   OH234529   4.149   1.444   9.590 -0.3467 -0.1422  0.0077
 3445TIP3    H134530   4.193   1.367   9.626 -1.7543 -0.6328  0.7486
 3445TIP3    H234531   4.175   1.515   9.648 -1.1399 -0.5879  0.9534
 3446TIP3   OH234532   1.309   6.988   7.939  0.2997 -0.3451 -0.3243
 3446TIP3    H134533   1.234   6.953   7.988 -0.7987  2.3430  0.1184
 3446TIP3    H234534   1.370   7.016   8.007  0.6954 -0.4629 -0.6309
 3447TIP3   OH234535   3.464   1.477   7.921  0.2220  0.0689  0.1668
 3447TIP3    H134536   3.542   1.532   7.911  0.2454  0.1978  0.9474
 3447TIP3    H234537   3.453   1.470   8.016 -1.2966  0.8978  0.0822
 3448TIP3   OH234538   7.029   1.083   8.457 -0.0554 -0.7692  0.4357
 3448TIP3    H134539   7.017   1.174   8.486 -1.5425 -0.1510 -1.8095
 3448TIP3    H234540   6.990   1.030   8.527 -1.4523  0.4841  0.6605
 3449TIP3   OH234541   7.474   0.622   8.709 -0.0208 -0.1324  0.0636
 3449TIP3    H134542   7.528   0.545   8.727  0.4056  0.3447  0.8788
 3449TIP3    H234543   7.512   0.692   8.763 -1.0979  0.3572  0.2254
 3450TIP3   OH234544   3.384   0.365   9.521 -0.5562  0.3506 -0.3172
 3450TIP3    H134545   3.397   0.277   9.556 -1.4991 -0.6256 -2.2358
 3450TIP3    H234546   3.340   0.351   9.437 -1.0924  2.6880 -0.4991
 3451TIP3   OH234547   4.787   1.021   8.181  0.1906  0.6716 -0.1628
 3451TIP3    H134548   4.880   1.044   8.191 -0.3798  2.4403  1.7145
 3451TIP3    H234549   4.753   1.086   8.120 -0.0124  0.6048 -0.1202
 3452TIP3   OH234550   3.997   6.112   8.830  0.0861  0.0172  0.1150
 3452TIP3    H134551   4.033   6.060   8.902 -1.9878 -0.1147  1.1201
 3452TIP3    H234552   4.023   6.202   8.849  0.1302 -0.1084  0.6529
 3453TIP3   OH234553   5.963   1.911   8.181  0.0236 -0.2605 -0.5184
 3453TIP3    H134554   5.873   1.942   8.178 -0.9155 -2.5043  1.1859
 3453TIP3    H234555   5.997   1.926   8.093 -1.8410  1.0921 -1.0596
 3454TIP3   OH234556   3.734   1.458   7.278  0.5596 -0.3783 -0.4511
 3454TIP3    H134557   3.742   1.372   7.237  1.7326  0.4424 -2.0183
 3454TIP3    H234558   3.698   1.439   7.365 -1.5990 -2.2128 -1.6501
 3455TIP3   OH234559   1.835   1.329   7.503 -0.9580 -0.5728 -0.2227
 3455TIP3    H134560   1.821   1.323   7.408  1.0708 -0.7665 -0.5589
 3455TIP3    H234561   1.808   1.243   7.536 -0.2948 -1.0256 -0.8363
 3456TIP3   OH234562   0.711   6.014   8.415  0.2176  0.3526 -0.8642
 3456TIP3    H134563   0.771   6.059   8.356  0.2519 -0.3240 -1.3491
 3456TIP3    H234564   0.679   5.940   8.365 -0.1603  0.0723 -0.2135
 3457TIP3   OH234565   6.845   0.748   7.021  0.2403 -0.2826  0.6968
 3457TIP3    H134566   6.790   0.825   7.031  1.4488  0.8045 -0.5626
 3457TIP3    H234567   6.919   0.763   7.080  1.4048  0.4531 -0.8790
 3458TIP3   OH234568   2.113   0.779   8.751  0.0560  0.4929 -0.2678
 3458TIP3    H134569   2.052   0.848   8.726  1.0246  1.0706 -1.1224
 3458TIP3    H234570   2.061   0.718   8.803 -1.1093  1.2324 -0.5401
 3459TIP3   OH234571   5.401   2.807   9.167 -0.5034  0.1834 -0.1485
 3459TIP3    H134572   5.495   2.794   9.155 -0.2269  1.8234  0.0294
 3459TIP3    H234573   5.362   2.771   9.088  0.2864 -0.2680 -0.3485
 3460TIP3   OH234574   7.556   1.232   7.379  0.7316  0.6477 -0.5979
 3460TIP3    H134575   7.481   1.192   7.334  0.2533  0.8613 -0.0050
 3460TIP3    H234576   7.614   1.261   7.308  0.0245  0.9157 -1.0754
 3461TIP3   OH234577   2.099   3.815   8.713  0.6162  0.1940 -0.2577
 3461TIP3    H134578   2.110   3.789   8.621 -0.7351 -2.0036  0.1201
 3461TIP3    H234579   2.097   3.732   8.761  1.3414  1.3092  1.7857
 3462TIP3   OH234580   0.656   0.605   7.996 -0.4136 -0.1339 -0.0225
 3462TIP3    H134581   0.690   0.524   7.959 -1.0260  0.2810 -1.5909
 3462TIP3    H234582   0.724   0.670   7.978 -0.0437 -0.2200  0.9875
 3463TIP3   OH234583   1.280   6.166   7.331  0.3184 -0.1598 -0.3558
 3463TIP3    H134584   1.203   6.180   7.387  1.0138  0.2844  0.5266
 3463TIP3    H234585   1.270   6.230   7.260 -1.4147 -1.8315 -1.7311
 3464TIP3   OH234586   5.022   0.721   8.926  0.1638  0.2255 -0.5881
 3464TIP3    H134587   4.966   0.656   8.885 -1.4624  0.4225  1.1817
 3464TIP3    H234588   5.082   0.749   8.857 -0.5602 -1.5007 -1.9804
 3465TIP3   OH234589   3.719   6.043   8.947  0.0380  0.2841  0.4060
 3465TIP3    H134590   3.645   6.072   8.893 -0.0675  0.5237  0.6747
 3465TIP3    H234591   3.793   6.041   8.887  0.0060  0.9280  0.3348
 3466TIP3   OH234592   6.386   2.663   9.091 -0.1291  0.1104 -0.4104
 3466TIP3    H134593   6.336   2.583   9.071  0.5838 -0.1889 -1.0244
 3466TIP3    H234594   6.475   2.632   9.107  0.2347  0.8214 -1.0123
 3467TIP3   OH234595   6.808   4.267   8.977 -0.7463  0.3539  0.2265
 3467TIP3    H134596   6.754   4.312   9.041  0.5831  1.1844  0.8206
 3467TIP3    H234597   6.780   4.176   8.981 -1.5838  0.6306  1.0300
 3468TIP3   OH234598   2.150   1.375   7.419  0.0431  0.2864 -0.0734
 3468TIP3    H134599   2.182   1.382   7.509 -1.1809  0.0353  0.4014
 3468TIP3    H234600   2.078   1.439   7.415 -2.0500 -1.9253  0.1280
 3469TIP3   OH234601   1.739   1.821   7.452  0.0121 -0.7071  0.0670
 3469TIP3    H134602   1.714   1.730   7.438  0.1619 -0.8992  0.9612
 3469TIP3    H234603   1.744   1.830   7.547  1.3202 -0.1315 -0.0274
 3470TIP3   OH234604   2.742   0.707   9.305  0.7936  0.5555 -0.3385
 3470TIP3    H134605   2.707   0.760   9.376  1.1940 -0.2921  0.5192
 3470TIP3    H234606   2.670   0.698   9.243  0.8605  2.4851 -0.7623
 3471TIP3   OH234607   0.593   7.253   8.942  0.3450 -0.7734 -0.2545
 3471TIP3    H134608   0.646   7.307   8.883 -1.0328  0.3453 -0.4981
 3471TIP3    H234609   0.638   7.168   8.942  2.1531  0.1366 -0.4112
 3472TIP3   OH234610   2.871   5.296   8.458  0.0906 -0.0128 -0.4330
 3472TIP3    H134611   2.944   5.272   8.401 -0.3479  1.4472 -1.6853
 3472TIP3    H234612   2.888   5.387   8.483 -2.0921  1.0210 -2.2273
 3473TIP3   OH234613   6.079   5.641   8.288 -0.2317 -0.1362 -0.3367
 3473TIP3    H134614   6.016   5.572   8.311 -0.0877 -0.0040  0.4798
 3473TIP3    H234615   6.078   5.700   8.363 -1.2686  1.4509 -1.5352
 3474TIP3   OH234616   3.647   2.963   8.795 -0.5746  0.0736 -0.0518
 3474TIP3    H134617   3.561   2.920   8.798 -0.2644 -0.6484 -1.0223
 3474TIP3    H234618   3.656   2.992   8.705 -0.6172  1.9107  0.4943
 3475TIP3   OH234619   5.888   6.674   7.168 -0.0554 -0.0843 -0.7249
 3475TIP3    H134620   5.867   6.764   7.191 -1.0527 -0.1196 -1.4181
 3475TIP3    H234621   5.957   6.681   7.103 -0.0869  0.1796 -0.7297
 3476TIP3   OH234622   6.974   7.354   9.026 -0.2300 -0.0922  0.4939
 3476TIP3    H134623   6.963   7.328   9.117  0.2908  0.7215  0.8000
 3476TIP3    H234624   7.067   7.337   9.008 -0.4876 -0.9265 -0.1109
 3477TIP3   OH234625   5.778   1.468   8.604 -0.4071 -0.0368  0.2444
 3477TIP3    H134626   5.787   1.374   8.594 -0.1316 -0.0973  1.0705
 3477TIP3    H234627   5.685   1.485   8.588 -0.4787 -0.4572  0.2236
 3478TIP3   OH234628   3.188   0.005   8.698  0.2109 -0.1278 -0.1656
 3478TIP3    H134629   3.117   0.037   8.753  0.5312  0.7376 -0.2304
 3478TIP3    H234630   3.156  -0.077   8.661 -0.8873  0.4291 -0.4697
 3479TIP3   OH234631   6.432   1.596   8.725 -0.1195  0.3116  0.0186
 3479TIP3    H134632   6.411   1.625   8.636 -1.6685  2.6100  1.0291
 3479TIP3    H234633   6.360   1.537   8.748 -1.0411  1.5670  0.5075
 3480TIP3   OH234634   1.496   2.676   8.831  0.4485  0.4011 -0.1901
 3480TIP3    H134635   1.449   2.760   8.832 -0.0697  0.1104  0.0008
 3480TIP3    H234636   1.471   2.634   8.913  2.2151  0.8768  0.6474
 3481TIP3   OH234637   2.287   5.372   9.168  0.1004  0.2374  0.6759
 3481TIP3    H134638   2.351   5.388   9.237 -0.8468  1.2399  1.3493
 3481TIP3    H234639   2.210   5.336   9.214 -0.6188  1.1132  0.1902
 3482TIP3   OH234640   2.324   5.523   9.740  0.3784  0.0449  0.4291
 3482TIP3    H134641   2.321   5.613   9.709 -2.2437 -0.3705 -0.7888
 3482TIP3    H234642   2.317   5.530   9.835  0.6690  1.1156  0.3804
 3483TIP3   OH234643   1.610   5.049   6.663 -0.5950  0.2191  0.2473
 3483TIP3    H134644   1.672   5.121   6.646 -1.7984  0.7851 -2.3589
 3483TIP3    H234645   1.660   4.970   6.646 -0.3596  0.6580 -1.3577
 3484TIP3   OH234646   7.364   2.629   7.951 -0.2837 -1.0647  0.0422
 3484TIP3    H134647   7.337   2.667   8.034  1.0880 -0.4931  0.2573
 3484TIP3    H234648   7.453   2.598   7.966  1.0003  1.3486 -1.8410
 3485TIP3   OH234649   2.561   2.216   7.718  0.4795 -0.1724  0.2517
 3485TIP3    H134650   2.609   2.209   7.800  0.2401  0.8707  0.5000
 3485TIP3    H234651   2.603   2.289   7.671  0.5391 -0.6754 -0.5011
 3486TIP3   OH234652   3.276   5.000   7.407  0.5935  0.8351 -0.0765
 3486TIP3    H134653   3.285   5.039   7.494  2.3421  0.0402  0.1292
 3486TIP3    H234654   3.258   4.908   7.423 -1.1008  1.0385 -0.5818
 3487TIP3   OH234655   5.453   1.085   7.305  0.4445 -0.1211 -0.1856
 3487TIP3    H134656   5.506   1.038   7.241  3.6304  2.9986 -0.1629
 3487TIP3    H234657   5.439   1.171   7.265 -0.0182  0.9267  2.0696
 3488TIP3   OH234658   6.408   3.517   8.806 -0.0952 -0.1571 -0.1159
 3488TIP3    H134659   6.466   3.566   8.747 -0.4703 -0.2092 -0.5330
 3488TIP3    H234660   6.459   3.441   8.832  0.4381  0.3725  0.4147
 3489TIP3   OH234661   5.509   3.483   8.466  0.2499 -0.2910  0.3074
 3489TIP3    H134662   5.526   3.519   8.553 -0.6409  0.0879  0.3282
 3489TIP3    H234663   5.523   3.557   8.407  3.1176 -1.0565 -0.1502
 3490TIP3   OH234664   0.956   0.946   9.302  0.6669 -0.4221 -0.8250
 3490TIP3    H134665   0.935   0.897   9.222  0.5544 -1.5019 -0.1609
 3490TIP3    H234666   0.971   0.878   9.368  0.5388  0.4545  0.1306
 3491TIP3   OH234667   4.344   2.297   9.008  0.4418  0.3162  0.2241
 3491TIP3    H134668   4.362   2.210   9.042  0.5805  0.1588 -0.2406
 3491TIP3    H234669   4.397   2.303   8.928 -0.1287  0.5500 -0.1432
 3492TIP3   OH234670   6.663   2.551   9.151  0.0662 -0.1204 -0.0528
 3492TIP3    H134671   6.690   2.474   9.101 -1.6205 -0.4299 -0.5426
 3492TIP3    H234672   6.686   2.530   9.242 -1.0934 -1.5836 -0.0534
 3493TIP3   OH234673   7.172   0.288   7.609 -0.0599  0.3057 -0.2801
 3493TIP3    H134674   7.136   0.213   7.562  1.2836 -0.4617 -0.1492
 3493TIP3    H234675   7.210   0.344   7.541  0.2449  0.1216 -0.2633
 3494TIP3   OH234676   0.843   4.852   9.444 -0.2500 -0.3956 -0.0332
 3494TIP3    H134677   0.842   4.793   9.519  1.0247  0.8479  1.0403
 3494TIP3    H234678   0.843   4.795   9.368  0.3945 -1.7746  0.9581
 3495TIP3   OH234679   3.973   0.771   6.564  0.5695 -0.4766  0.2913
 3495TIP3    H134680   3.956   0.865   6.561 -0.2510 -0.6061  0.6422
 3495TIP3    H234681   3.951   0.745   6.654 -0.4868 -1.2194 -0.1562
 3496TIP3   OH234682   5.993   4.927   7.230  0.5416 -0.3282  0.1343
 3496TIP3    H134683   6.085   4.926   7.256 -0.1893 -1.4393  3.0905
 3496TIP3    H234684   5.951   4.863   7.288 -2.1804  0.4772 -0.7976
 3497TIP3   OH234685   3.278   0.263   8.277  0.0423  0.0645  0.3178
 3497TIP3    H134686   3.295   0.241   8.369  0.6886 -0.4297  0.0862
 3497TIP3    H234687   3.285   0.180   8.231  1.3236  0.5475 -0.4115
 3498TIP3   OH234688   7.263   4.415   6.711 -0.1720  0.8519  0.0574
 3498TIP3    H134689   7.344   4.463   6.695  0.5853 -0.1516  0.7606
 3498TIP3    H234690   7.202   4.480   6.746 -0.3341  2.0593 -2.2284
 3499TIP3   OH234691   4.126   5.199   9.229 -0.0565  0.4787  0.0108
 3499TIP3    H134692   4.128   5.194   9.133  0.0435  0.9552 -0.0153
 3499TIP3    H234693   4.213   5.170   9.256 -0.2909 -0.2629 -0.0069
 3500TIP3   OH234694   2.841   3.765   7.859  0.1887  0.6788 -0.1670
 3500TIP3    H134695   2.891   3.826   7.912  0.8169 -0.0018  0.0290
 3500TIP3    H234696   2.907   3.713   7.813 -0.2883 -1.0388  1.0009
 3501TIP3   OH234697   6.907   1.778   7.297  0.1477  0.4629 -0.0075
 3501TIP3    H134698   6.979   1.773   7.359  0.2155 -0.2953 -0.1316
 3501TIP3    H234699   6.887   1.871   7.290  0.4570  0.5939  0.7819
 3502TIP3   OH234700   3.977   3.990   7.792  0.6487 -0.0561 -0.3805
 3502TIP3    H134701   3.941   4.002   7.880 -2.5098 -1.2852 -1.3831
 3502TIP3    H234702   3.996   4.078   7.761 -0.0885  0.5333  0.7787
 3503TIP3   OH234703   3.448   1.594   6.959  0.7575  0.4560 -0.2049
 3503TIP3    H134704   3.410   1.536   6.893  0.7841  0.9244 -0.6367
 3503TIP3    H234705   3.513   1.645   6.911  2.5671 -0.8972  0.6738
 3504TIP3   OH234706   7.493   3.374   9.328 -0.0919 -0.6422  0.3753
 3504TIP3    H134707   7.467   3.287   9.359 -1.7239  0.5710  2.7264
 3504TIP3    H234708   7.586   3.366   9.308  0.1273 -2.5897  1.9108
 3505TIP3   OH234709   1.019   0.749   8.827 -0.2528 -0.5234  0.2461
 3505TIP3    H134710   1.040   0.818   8.765  1.2857 -0.3301  0.9398
 3505TIP3    H234711   1.101   0.700   8.837 -0.5154 -0.6759  1.9449
 3506TIP3   OH234712   4.439   5.357   8.187 -0.0962  0.7651 -0.0915
 3506TIP3    H134713   4.471   5.343   8.098  0.7788 -1.1702  0.4730
 3506TIP3    H234714   4.516   5.385   8.237 -0.5052  1.5008  0.1463
 3507TIP3   OH234715   2.195   3.400   7.800 -0.5847 -0.4974  0.4367
 3507TIP3    H134716   2.138   3.435   7.731  0.6949  1.4372  0.2756
 3507TIP3    H234717   2.237   3.324   7.760  1.0329  1.2510 -1.4508
 3508TIP3   OH234718   2.716   1.626   8.430 -0.5091  0.5143  0.4145
 3508TIP3    H134719   2.733   1.709   8.385  2.1120 -0.7872 -1.2562
 3508TIP3    H234720   2.790   1.615   8.489 -1.0313 -0.4511  0.9150
 3509TIP3   OH234721   3.561   5.694   8.418 -0.0209  0.0524  0.2285
 3509TIP3    H134722   3.647   5.707   8.378  0.0422  1.2095  0.7058
 3509TIP3    H234723   3.576   5.629   8.486  0.6536  0.8179  0.8305
 3510TIP3   OH234724   5.504   0.199   9.494 -0.7102  0.1169 -0.7932
 3510TIP3    H134725   5.409   0.203   9.489 -0.9794 -3.0756 -0.2814
 3510TIP3    H234726   5.522   0.158   9.578  1.2164  1.6095 -0.3984
 3511TIP3   OH234727   3.467   2.939   8.202 -0.1741 -0.3358 -0.1586
 3511TIP3    H134728   3.523   2.870   8.167 -0.3288 -0.0786 -0.9241
 3511TIP3    H234729   3.393   2.943   8.142  0.1483  0.9357 -0.4908
 3512TIP3   OH234730   4.155   3.604   8.017 -0.4493  0.4385  0.4188
 3512TIP3    H134731   4.069   3.627   7.981  0.1089  0.2776 -1.1004
 3512TIP3    H234732   4.169   3.513   7.989  0.9003  0.9807 -0.8155
 3513TIP3   OH234733   0.594   3.930   8.621  0.7328 -0.0064  0.5428
 3513TIP3    H134734   0.619   3.877   8.696  0.6668  0.2546  0.7497
 3513TIP3    H234735   0.579   3.867   8.550  1.4907 -0.1973  0.5537
 3514TIP3   OH234736   6.752   2.553   9.415 -0.1902 -0.0116 -0.1981
 3514TIP3    H134737   6.713   2.471   9.445 -1.4686  0.6277 -0.0659
 3514TIP3    H234738   6.846   2.535   9.412 -0.2363 -0.8487  1.8360
 3515TIP3   OH234739   6.446   7.523   7.425 -0.2462 -0.1628  0.2044
 3515TIP3    H134740   6.423   7.603   7.378 -0.3275 -0.3949 -0.1541
 3515TIP3    H234741   6.380   7.459   7.399 -0.2367 -0.3233  0.5624
 3516TIP3   OH234742   6.689   6.122   7.884 -0.3067 -0.6305  0.2559
 3516TIP3    H134743   6.744   6.129   7.962  1.0262 -0.4353 -0.6673
 3516TIP3    H234744   6.706   6.204   7.837 -0.8271 -0.9031 -0.4095
 3517TIP3   OH234745   0.833   7.494   7.507  0.0787 -0.0990 -0.1476
 3517TIP3    H134746   0.915   7.524   7.469  1.6554 -1.9573  1.5049
 3517TIP3    H234747   0.833   7.399   7.492 -2.3872 -0.0045 -1.1490
 3518TIP3   OH234748   7.483   3.876   8.068 -0.1585  0.0555  0.0926
 3518TIP3    H134749   7.525   3.825   7.999 -0.2069  1.1615 -0.7837
 3518TIP3    H234750   7.435   3.945   8.022 -0.2398  0.7893  1.2201
 3519TIP3   OH234751   0.411   6.570   8.097  0.3653  0.2924 -0.2768
 3519TIP3    H134752   0.438   6.644   8.042  0.8180 -0.1208 -0.6150
 3519TIP3    H234753   0.426   6.601   8.186  0.5041  0.6312 -0.4134
 3520TIP3   OH234754   2.099   5.191   8.464  0.3318  0.4524 -0.4148
 3520TIP3    H134755   2.013   5.218   8.430  0.1620  1.0814  0.4863
 3520TIP3    H234756   2.108   5.237   8.547  0.4508 -1.5111  0.7352
 3521TIP3   OH234757   4.221   3.319   7.524 -0.6773  0.1339  0.1631
 3521TIP3    H134758   4.207   3.252   7.592  5.0721 -1.0421  0.7379
 3521TIP3    H234759   4.200   3.402   7.568  1.0719 -0.7385  2.9373
 3522TIP3   OH234760   2.926   1.328   7.561  0.5812 -0.4794 -0.5165
 3522TIP3    H134761   2.903   1.362   7.474  0.8806  0.1440 -0.3621
 3522TIP3    H234762   2.909   1.402   7.620  0.5863 -0.8302 -0.0763
 3523TIP3   OH234763   1.227   5.024   6.798  0.1788  0.4404  0.2876
 3523TIP3    H134764   1.189   4.994   6.881 -0.9018 -0.8813 -0.6456
 3523TIP3    H234765   1.200   4.958   6.734  2.1881  0.6737 -0.8712
 3524TIP3   OH234766   2.490   1.826   7.574 -0.6288  0.6333 -0.3409
 3524TIP3    H134767   2.578   1.793   7.594 -0.6320  1.8023  1.9643
 3524TIP3    H234768   2.502   1.888   7.503  0.9033  2.6680  1.5616
 3525TIP3   OH234769   4.236   2.042   7.638 -0.3185 -0.3314  0.0316
 3525TIP3    H134770   4.229   2.003   7.551 -1.2041  1.1621 -0.6101
 3525TIP3    H234771   4.307   2.106   7.629 -0.6228  0.0456  0.3173
 3526TIP3   OH234772   4.665   1.461   9.534 -0.0163 -0.2742  0.8545
 3526TIP3    H134773   4.627   1.547   9.515  0.7226 -0.1383 -0.0754
 3526TIP3    H234774   4.602   1.420   9.594 -0.8346  0.5547  0.5908
 3527TIP3   OH234775   3.755   2.456   9.222  0.1574 -0.5476  0.0515
 3527TIP3    H134776   3.715   2.404   9.291  0.8790  0.6547  1.4377
 3527TIP3    H234777   3.694   2.450   9.149 -0.9234 -1.3896  0.9892
 3528TIP3   OH234778   1.069   6.963   8.771  0.0334  0.2727  0.2198
 3528TIP3    H134779   1.020   7.041   8.798  0.2756  0.3707  0.3822
 3528TIP3    H234780   1.125   6.943   8.846  1.8851  1.4842 -0.7403
 3529TIP3   OH234781   4.945   5.822   8.571  0.0005  0.4571 -0.1872
 3529TIP3    H134782   5.019   5.782   8.617  0.5250  0.6270 -0.8720
 3529TIP3    H234783   4.916   5.754   8.509 -0.8565  0.1395  0.5419
 3530TIP3   OH234784   2.608   5.195   9.010  0.5713  0.4690 -0.1899
 3530TIP3    H134785   2.678   5.131   9.000  0.1203  0.0371 -0.6343
 3530TIP3    H234786   2.573   5.180   9.097 -0.0226 -0.3993 -0.5660
 3531TIP3   OH234787   3.307   0.458   8.686 -0.5702  0.5698 -0.1608
 3531TIP3    H134788   3.254   0.417   8.618  0.4371 -0.1004 -0.5576
 3531TIP3    H234789   3.302   0.398   8.760 -0.3645  0.5057 -0.1985
 3532TIP3   OH234790   7.319   6.898   8.875 -0.4780 -0.1716  0.6239
 3532TIP3    H134791   7.276   6.812   8.873  0.2112 -0.5111 -0.6111
 3532TIP3    H234792   7.339   6.917   8.784  2.0567 -0.0765  1.1205
 3533TIP3   OH234793   1.083   2.134   6.903 -0.5150 -0.1785  0.2580
 3533TIP3    H134794   1.005   2.083   6.927 -0.9677  0.1248 -0.5493
 3533TIP3    H234795   1.153   2.069   6.898  0.1692 -0.0754  4.4641
 3534TIP3   OH234796   1.887   2.406   9.666  0.2829 -0.1381  0.0178
 3534TIP3    H134797   1.952   2.362   9.611  0.3428 -0.2201  0.1553
 3534TIP3    H234798   1.905   2.376   9.755 -0.9244 -1.3893 -0.1302
 3535TIP3   OH234799   4.813   4.453   7.867 -0.3959 -0.0660 -0.5200
 3535TIP3    H134800   4.792   4.451   7.774 -2.5074  2.4469 -0.2140
 3535TIP3    H234801   4.805   4.362   7.895  0.3615 -0.8881 -2.7716
 3536TIP3   OH234802   6.008   3.071   9.455 -0.3396  0.2632  0.1044
 3536TIP3    H134803   5.915   3.046   9.458  0.3297 -2.4582  1.1808
 3536TIP3    H234804   6.037   3.067   9.546  0.8478  1.1650 -0.2127
 3537TIP3   OH234805   3.828   5.394   7.387  0.0313  0.4341  0.4478
 3537TIP3    H134806   3.807   5.461   7.453  0.4841 -0.2272  1.2788
 3537TIP3    H234807   3.823   5.311   7.435  1.3988  0.0146 -0.0874
 3538TIP3   OH234808   7.378   7.130   7.430 -0.6016  0.4484  0.2937
 3538TIP3    H134809   7.453   7.138   7.489 -0.1627  2.6127 -0.4362
 3538TIP3    H234810   7.357   7.037   7.430  2.3223 -0.3123  0.2199
 3539TIP3   OH234811   0.451   7.078   8.276  0.8551 -0.4081  0.2305
 3539TIP3    H134812   0.463   7.082   8.371 -0.7112  0.8207  0.4148
 3539TIP3    H234813   0.540   7.077   8.241  1.4636 -0.8105  1.6944
 3540TIP3   OH234814   2.605   3.636   6.987  0.1193  0.3271 -0.0953
 3540TIP3    H134815   2.597   3.551   6.945 -0.8203 -0.1152  0.9355
 3540TIP3    H234816   2.675   3.624   7.052 -0.0605  0.3207  0.0977
 3541TIP3   OH234817   5.559   2.963   7.322 -0.5647 -0.1837  0.2410
 3541TIP3    H134818   5.478   3.009   7.344 -1.0521  0.3040 -2.2571
 3541TIP3    H234819   5.570   2.977   7.228  1.4454 -1.8173  0.1548
 3542TIP3   OH234820   1.935   2.059   8.308  0.0326 -0.7719 -0.1198
 3542TIP3    H134821   2.014   2.087   8.355  0.8664 -0.4336 -1.6785
 3542TIP3    H234822   1.948   1.965   8.296 -1.5024 -1.4727  2.7063
 3543TIP3   OH234823   2.815   7.366   7.398 -0.4375  0.0500 -0.0196
 3543TIP3    H134824   2.836   7.280   7.433  0.3816 -0.2564 -1.1973
 3543TIP3    H234825   2.851   7.427   7.462  0.1687 -0.4902  0.1725
 3544TIP3   OH234826   0.064   4.387   8.069 -0.9060  0.3062  0.0006
 3544TIP3    H134827   0.119   4.411   8.143 -0.2271  1.5640 -0.8788
 3544TIP3    H234828   0.099   4.303   8.039  0.3318  0.9312 -0.3458
 3545TIP3   OH234829   6.216   3.716   8.764 -0.1911 -0.6743 -0.3162
 3545TIP3    H134830   6.159   3.705   8.840  2.8897 -0.1671  2.2767
 3545TIP3    H234831   6.289   3.656   8.780  2.1266  1.7200 -1.1920
 3546TIP3   OH234832   4.442   6.155   9.579 -0.5079 -0.0520  0.1988
 3546TIP3    H134833   4.529   6.190   9.560 -0.2597 -0.6515  0.2134
 3546TIP3    H234834   4.413   6.204   9.656 -1.4712  2.3127 -1.5224
 3547TIP3   OH234835   5.886   7.027   7.068  0.1067  0.2444 -0.4484
 3547TIP3    H134836   5.977   7.017   7.040  0.3628  0.7395  0.1713
 3547TIP3    H234837   5.837   6.968   7.012  1.0186 -1.3290  0.3340
 3548TIP3   OH234838   1.963   6.373   8.411  0.0790  0.0366 -0.2089
 3548TIP3    H134839   2.012   6.437   8.462 -0.4706 -0.4485  0.9976
 3548TIP3    H234840   1.871   6.392   8.432 -0.2195  0.4384 -1.8075
 3549TIP3   OH234841   2.784   3.208   6.908  0.8229  0.2873  0.2009
 3549TIP3    H134842   2.722   3.199   6.980  0.6516  1.6189  0.2529
 3549TIP3    H234843   2.735   3.177   6.831 -0.0425  1.5675  0.1963
 3550TIP3   OH234844   6.842   1.993   8.465 -0.3202  0.0772  0.1196
 3550TIP3    H134845   6.865   2.005   8.557  0.8970  0.8876 -0.2638
 3550TIP3    H234846   6.757   2.036   8.456 -0.7729 -0.6028  0.9986
 3551TIP3   OH234847   4.948   3.183   8.016  0.4185 -0.0084  0.2089
 3551TIP3    H134848   4.861   3.188   7.975  0.2563  0.4121  0.5852
 3551TIP3    H234849   5.009   3.171   7.943  0.0772  0.0887 -0.0960
 3552TIP3   OH234850   0.578   3.647   8.492 -0.7955 -0.0035 -0.1363
 3552TIP3    H134851   0.633   3.576   8.525 -0.3447 -0.0499 -0.9778
 3552TIP3    H234852   0.638   3.704   8.445 -0.6811  2.2146  2.4420
 3553TIP3   OH234853   4.120   5.257   7.902 -0.1071 -0.0903  0.0075
 3553TIP3    H134854   4.050   5.292   7.957  0.0749 -0.1394  0.2694
 3553TIP3    H234855   4.137   5.170   7.936 -1.0359 -0.7201 -1.0842
 3554TIP3   OH234856   3.971   4.823   9.444 -0.2189 -0.4701 -0.0782
 3554TIP3    H134857   4.028   4.851   9.516  0.2386 -0.4458 -0.4431
 3554TIP3    H234858   3.884   4.853   9.468  0.3384  1.8523 -0.7544
 3555TIP3   OH234859   1.914   0.822   9.066 -0.0896  0.0623 -0.2432
 3555TIP3    H134860   1.943   0.756   9.128 -1.9568 -1.3592 -0.8056
 3555TIP3    H234861   1.819   0.820   9.070 -0.3856 -0.7418 -3.6993
 3556TIP3   OH234862   3.188   6.943   8.688 -0.2262  0.6282  0.4200
 3556TIP3    H134863   3.141   7.024   8.709  0.6019  1.0289  0.7613
 3556TIP3    H234864   3.256   6.937   8.755 -0.4532 -0.5008  0.5626
 3557TIP3   OH234865   3.062   3.792   9.684  0.4815 -0.7233  0.2575
 3557TIP3    H134866   2.989   3.766   9.628  2.1705  0.7909 -2.9340
 3557TIP3    H234867   3.043   3.882   9.709  1.1017 -0.3791 -0.4507
 3558TIP3   OH234868   2.964   1.172   8.902  0.8109 -0.0720  0.1031
 3558TIP3    H134869   2.870   1.152   8.906  1.2862 -2.4203  2.2439
 3558TIP3    H234870   2.988   1.155   8.811 -1.2133  3.1593 -1.2220
 3559TIP3   OH234871   0.383   1.334   7.343  0.2425  1.2407 -0.5555
 3559TIP3    H134872   0.451   1.309   7.280 -0.2501  2.2326 -1.5035
 3559TIP3    H234873   0.301   1.316   7.297 -0.1229  1.4413  0.0190
 3560TIP3   OH234874   3.978   3.321   8.694  0.2063  0.0320 -0.4531
 3560TIP3    H134875   3.943   3.263   8.627 -0.7883 -1.2958  1.1407
 3560TIP3    H234876   3.995   3.403   8.648  1.1299 -1.3138 -2.6572
 3561TIP3   OH234877   6.083   7.373   7.012 -0.0850  0.2407  0.3928
 3561TIP3    H134878   6.157   7.420   7.050 -0.4777  0.2721  1.1293
 3561TIP3    H234879   6.123   7.302   6.961  0.4514  0.3102  0.7154
 3562TIP3   OH234880   1.384   7.412   6.756 -0.4356 -0.1452 -0.3122
 3562TIP3    H134881   1.376   7.507   6.752 -2.1354 -0.2552 -0.2730
 3562TIP3    H234882   1.300   7.382   6.791  0.6859 -1.5692  1.3703
 3563TIP3   OH234883   2.227   5.486   8.599 -0.4984  0.6442  0.0771
 3563TIP3    H134884   2.277   5.450   8.525 -0.9236 -0.2610  0.2114
 3563TIP3    H234885   2.239   5.422   8.669 -1.2006  0.8158  0.3631
 3564TIP3   OH234886   1.321   2.107   8.214  0.0097  0.4874 -1.0956
 3564TIP3    H134887   1.246   2.081   8.266  0.5901  0.7026 -0.1328
 3564TIP3    H234888   1.344   2.194   8.245  1.1416  0.1038 -0.8018
 3565TIP3   OH234889   3.321   2.686   8.876 -0.2030 -0.6216 -0.5167
 3565TIP3    H134890   3.417   2.680   8.879 -0.1164  0.6332  0.5817
 3565TIP3    H234891   3.301   2.761   8.933 -1.8762 -1.2470 -0.2425
 3566TIP3   OH234892   7.233   1.652   9.016  0.5489 -0.2520  0.2203
 3566TIP3    H134893   7.171   1.702   9.069  0.7747 -1.0799  1.3009
 3566TIP3    H234894   7.178   1.602   8.956  0.0893 -1.5227  1.6437
 3567TIP3   OH234895   3.974   2.412   9.041  0.4499  0.1424 -0.3061
 3567TIP3    H134896   3.915   2.436   9.112 -0.1754  0.9912 -1.0780
 3567TIP3    H234897   3.969   2.317   9.037 -0.8281  0.1818 -0.2942
 3568TIP3   OH234898   1.768   0.019   8.568  0.6761 -0.0754 -0.0951
 3568TIP3    H134899   1.825  -0.045   8.524  0.4452 -1.4495  1.5159
 3568TIP3    H234900   1.697   0.035   8.505  0.5595 -1.6716 -0.4193
 3569TIP3   OH234901   4.411   7.277   9.809 -0.3816  0.2705 -0.1080
 3569TIP3    H134902   4.371   7.204   9.857 -1.0941 -0.3631 -1.6174
 3569TIP3    H234903   4.350   7.350   9.820  0.0315  0.4864  0.8904
 3570TIP3   OH234904   5.478   2.915   8.161  0.6920 -0.9642  0.0410
 3570TIP3    H134905   5.507   2.999   8.197 -0.9129  0.1421 -1.0955
 3570TIP3    H234906   5.467   2.932   8.068 -0.6916 -2.1213 -0.0411
 3571TIP3   OH234907   6.606   4.701   8.907 -0.4768  0.4791 -0.3780
 3571TIP3    H134908   6.599   4.626   8.848 -0.6510  0.6156 -0.5335
 3571TIP3    H234909   6.700   4.716   8.916 -0.4514  0.6689 -0.8971
 3572TIP3   OH234910   5.714   4.168   8.185 -0.5662  0.2365  0.2292
 3572TIP3    H134911   5.801   4.130   8.176 -0.7766 -0.5288  1.1922
 3572TIP3    H234912   5.714   4.244   8.127  0.8281  0.4134  0.4304
 3573TIP3   OH234913   2.588   1.967   7.327 -0.4662 -0.2678 -0.1414
 3573TIP3    H134914   2.656   2.034   7.337 -1.8528  1.5164 -1.8441
 3573TIP3    H234915   2.589   1.946   7.233 -2.1511 -0.3081 -0.1677
 3574TIP3   OH234916   2.427   4.524   8.118  0.7768 -0.3333 -0.1940
 3574TIP3    H134917   2.424   4.618   8.104  0.0888 -0.1649  0.9552
 3574TIP3    H234918   2.454   4.514   8.209 -0.8932 -1.1800  0.2487
 3575TIP3   OH234919   6.420   3.698   7.633  0.3302  0.6273  0.2630
 3575TIP3    H134920   6.385   3.639   7.700  0.5345 -1.6415 -1.5088
 3575TIP3    H234921   6.368   3.679   7.555  0.8646  2.3597 -0.5639
 3576TIP3   OH234922   2.347   7.414   8.645 -0.4591 -0.4554 -0.5045
 3576TIP3    H134923   2.391   7.485   8.597  0.4026 -1.5269 -1.3620
 3576TIP3    H234924   2.418   7.367   8.689 -1.1614  0.0190  1.2235
 3577TIP3   OH234925   6.221   6.217   9.079  0.3913 -0.0179  0.2640
 3577TIP3    H134926   6.166   6.168   9.019  1.7110  0.5281 -1.4626
 3577TIP3    H234927   6.294   6.247   9.026  1.3084  1.0200  2.0165
 3578TIP3   OH234928   0.080   4.572   8.986  0.3499 -0.4592 -0.1828
 3578TIP3    H134929   0.171   4.580   8.958  0.1433 -1.4547 -1.1993
 3578TIP3    H234930   0.028   4.578   8.906 -0.5161  0.4198  0.4169
 3579TIP3   OH234931   3.952   7.173   6.679 -0.3229 -0.0123 -0.0691
 3579TIP3    H134932   4.012   7.194   6.607 -1.6357  0.6436 -1.0286
 3579TIP3    H234933   4.004   7.118   6.738  1.4572  1.2034 -0.4202
 3580TIP3   OH234934   3.949   4.399   7.957  0.2013 -0.0658  0.2779
 3580TIP3    H134935   3.969   4.385   7.865 -0.7676  0.1401  0.0274
 3580TIP3    H234936   3.966   4.315   7.999 -0.1719 -0.3960 -0.2303
 3581TIP3   OH234937   2.186   5.285   8.757 -0.0952  0.0918  0.2983
 3581TIP3    H134938   2.113   5.263   8.815  0.1138 -0.0357  0.5123
 3581TIP3    H234939   2.255   5.316   8.816  0.3230 -0.5816  0.1672
 3582TIP3   OH234940   2.454   0.759   9.281  0.8649 -0.2741  0.2511
 3582TIP3    H134941   2.376   0.787   9.328  0.8884  0.1366  0.0493
 3582TIP3    H234942   2.429   0.676   9.240  1.3432 -1.4942  2.3014
 3583TIP3   OH234943   3.841   2.704   7.701  0.0210 -0.2591  0.1872
 3583TIP3    H134944   3.792   2.779   7.668 -0.6104 -0.3874  0.8063
 3583TIP3    H234945   3.796   2.628   7.664 -0.4907 -0.3910  1.0520
 3584TIP3   OH234946   6.460   2.797   7.918 -0.1820  0.3490  0.6218
 3584TIP3    H134947   6.543   2.778   7.873  0.6907  0.6039  2.0584
 3584TIP3    H234948   6.460   2.737   7.992 -1.7306 -0.2536  0.1649
 3585TIP3   OH234949   1.922   2.367   8.222  0.2411  0.1499 -0.1573
 3585TIP3    H134950   1.838   2.363   8.175  0.5332 -1.1783 -0.5976
 3585TIP3    H234951   1.928   2.283   8.268  0.8231  0.6858  0.7798
 3586TIP3   OH234952   7.552   6.905   7.733 -0.0921  0.0012 -0.1452
 3586TIP3    H134953   7.471   6.856   7.749  0.3478 -0.7345 -0.1695
 3586TIP3    H234954   7.621   6.854   7.774  0.6148 -0.3153 -1.6348
 3587TIP3   OH234955   2.225   1.846   8.812 -0.1721  0.6110 -0.2424
 3587TIP3    H134956   2.256   1.780   8.874 -0.3031 -0.6076 -1.4218
 3587TIP3    H234957   2.302   1.898   8.790 -0.0602  0.8467  0.6616
 3588TIP3   OH234958   2.254   4.292   9.363  0.1157  0.2450  0.4666
 3588TIP3    H134959   2.181   4.276   9.303 -1.3416  2.5488  1.5028
 3588TIP3    H234960   2.223   4.262   9.448  1.7396 -1.9410  0.3629
 3589TIP3   OH234961   7.489   0.366   8.956  0.1599  0.0518 -0.1292
 3589TIP3    H134962   7.478   0.296   8.892 -1.4580  0.2469 -0.1129
 3589TIP3    H234963   7.518   0.322   9.035  0.5224 -0.4177 -0.5185
 3590TIP3   OH234964   3.548   2.420   9.052 -0.4048  0.0333 -0.2005
 3590TIP3    H134965   3.496   2.453   9.125 -1.4051 -1.3307 -0.2576
 3590TIP3    H234966   3.512   2.464   8.975  0.1524  0.9077  0.0304
 3591TIP3   OH234967   6.749   1.827   8.149  0.3356  0.3645  0.1178
 3591TIP3    H134968   6.776   1.765   8.081  1.0459 -0.1268  0.8368
 3591TIP3    H234969   6.761   1.780   8.231 -1.5602  0.5673  0.5490
 3592TIP3   OH234970   2.349   4.973   9.501 -0.1647 -0.1904 -0.5115
 3592TIP3    H134971   2.271   4.979   9.446  0.1819 -0.7738 -1.0853
 3592TIP3    H234972   2.326   5.019   9.582 -0.8143  0.3443 -0.9927
 3593TIP3   OH234973   6.356   7.409   9.097  0.5234 -0.0757 -0.4028
 3593TIP3    H134974   6.346   7.321   9.062  0.0563  0.3432 -1.3679
 3593TIP3    H234975   6.446   7.411   9.131  0.0297 -1.3872  1.0704
 3594TIP3   OH234976   0.304   6.390   7.706  0.1268 -0.4434 -0.5062
 3594TIP3    H134977   0.238   6.373   7.638  1.1311 -4.1610 -0.8107
 3594TIP3    H234978   0.387   6.394   7.658  0.4874  0.8666  0.1842
 3595TIP3   OH234979   3.323   3.766   9.654 -0.5898  0.1709  0.0651
 3595TIP3    H134980   3.229   3.774   9.673 -1.0084 -0.4536 -1.5881
 3595TIP3    H234981   3.365   3.782   9.739 -2.1595  0.7375  0.7962
 3596TIP3   OH234982   6.181   6.393   8.755  0.6716 -0.5041 -0.2609
 3596TIP3    H134983   6.181   6.442   8.674 -1.1455 -0.6612 -0.4032
 3596TIP3    H234984   6.186   6.460   8.824 -0.9517 -0.1259 -0.4690
 3597TIP3   OH234985   0.440   7.414   9.086 -0.4998  0.0863 -0.0182
 3597TIP3    H134986   0.479   7.359   9.018 -1.3603 -0.9584  0.3043
 3597TIP3    H234987   0.505   7.415   9.156 -0.7026 -0.9993  0.2030
 3598TIP3   OH234988   5.248   2.393   7.049 -0.4647 -0.4463  0.8472
 3598TIP3    H134989   5.284   2.306   7.032 -0.1923 -0.0132 -1.0206
 3598TIP3    H234990   5.175   2.401   6.987 -2.0930 -0.2446  2.6766
 3599TIP3   OH234991   3.872   1.017   6.623  0.3668  0.4312  0.3901
 3599TIP3    H134992   3.885   1.037   6.716  1.3488 -1.5507  0.7395
 3599TIP3    H234993   3.780   0.991   6.617  0.5406 -0.4089  1.0460
 3600TIP3   OH234994   1.823   6.072   8.239  0.3850  0.4607 -0.6763
 3600TIP3    H134995   1.912   6.058   8.271  0.0402  0.2675  0.2250
 3600TIP3    H234996   1.785   5.984   8.234 -0.6573  0.7044  1.6747
 3601TIP3   OH234997   7.018   2.134   7.983  0.0222  0.5348  0.5883
 3601TIP3    H134998   7.066   2.191   7.922  0.3312  0.6251  0.9102
 3601TIP3    H234999   7.036   2.171   8.070 -0.5037  0.4720  0.7280
 3602TIP3   OH235000   0.978   6.459   6.940  0.0016  0.5148 -1.1175
 3602TIP3    H135001   1.036   6.386   6.963 -0.5532 -0.1196 -1.6976
 3602TIP3    H235002   0.906   6.453   7.002 -0.7561 -0.3027 -2.0564
 3603TIP3   OH235003   0.042   2.510   7.978 -0.0146  0.4579 -0.1339
 3603TIP3    H135004   0.072   2.442   8.039 -0.4334  1.5249  1.2922
 3603TIP3    H235005   0.121   2.536   7.930  0.4184 -0.0138  0.3158
 3604TIP3   OH235006   5.214   5.052   7.602 -0.1742 -0.2182 -0.0902
 3604TIP3    H135007   5.127   5.032   7.637  0.7498 -1.4195  1.6493
 3604TIP3    H235008   5.259   4.968   7.598  0.8633  0.3538 -1.1608
 3605TIP3   OH235009   2.117   7.157   9.326 -0.1847  0.2147 -1.0095
 3605TIP3    H135010   2.169   7.093   9.376 -1.5752  0.9924  1.6545
 3605TIP3    H235011   2.080   7.214   9.393 -1.2146  2.1525 -3.1058
 3606TIP3   OH235012   0.996   6.034   9.141  0.4740 -0.5731 -0.5530
 3606TIP3    H135013   0.928   5.997   9.196 -1.4790  2.9665 -0.2544
 3606TIP3    H235014   0.995   5.981   9.062 -1.9360 -1.2720 -0.1251
 3607TIP3   OH235015   1.814   4.012   7.238 -0.3152  0.0764 -0.0946
 3607TIP3    H135016   1.908   3.994   7.240 -0.2541  0.4221  0.1444
 3607TIP3    H235017   1.780   3.949   7.173 -0.3409 -1.8934  1.7207
 3608TIP3   OH235018   3.171   3.758   8.054  0.0766  0.2846  0.0629
 3608TIP3    H135019   3.103   3.825   8.061 -0.7922 -0.6574  1.0003
 3608TIP3    H235020   3.157   3.718   7.969  0.0270  0.6897 -0.1221
 3609TIP3   OH235021   2.457   1.972   8.807  0.2484 -0.4445 -0.8427
 3609TIP3    H135022   2.507   2.018   8.740  0.6582  0.3460 -0.0146
 3609TIP3    H235023   2.519   1.961   8.879 -0.9822  1.3993  0.5981
 3610TIP3   OH235024   5.597   2.602   8.409  0.3414 -0.0928  0.5132
 3610TIP3    H135025   5.653   2.680   8.405 -0.7027  0.6146 -0.7508
 3610TIP3    H235026   5.553   2.599   8.324  0.0798 -1.8709  0.6687
 3611TIP3   OH235027   6.046   6.756   6.964  0.3889  0.4012  0.1401
 3611TIP3    H135028   6.076   6.750   6.873  0.6303  0.9321  0.1848
 3611TIP3    H235029   6.080   6.839   6.996  1.0328 -0.1764  0.9871
 3612TIP3   OH235030   1.344   5.689   7.284 -0.2127 -0.4145  0.1112
 3612TIP3    H135031   1.259   5.676   7.241 -0.9334 -0.2173  1.4199
 3612TIP3    H235032   1.356   5.784   7.284  0.6321 -0.5069 -1.2061
 3613TIP3   OH235033   5.411   3.855   8.770  0.2186 -0.2649  0.0329
 3613TIP3    H135034   5.388   3.880   8.859  0.1733 -2.7676  0.8012
 3613TIP3    H235035   5.327   3.847   8.724 -0.0622 -2.3261  0.7964
 3614TIP3   OH235036   6.017   7.245   9.127 -0.0298 -0.0527  0.4737
 3614TIP3    H135037   5.939   7.208   9.085 -0.4830 -1.0553  2.1120
 3614TIP3    H235038   5.983   7.296   9.201  0.8036  0.7967  0.2947
 3615TIP3   OH235039   3.924   0.923   9.147 -0.0216  0.3281 -0.1750
 3615TIP3    H135040   3.965   0.913   9.233 -1.8063 -3.0452  0.4469
 3615TIP3    H235041   3.846   0.976   9.163  0.6552  1.3477 -0.1478
 3616TIP3   OH235042   1.613   0.242   9.199 -0.0458 -0.6466 -0.4126
 3616TIP3    H135043   1.566   0.280   9.125  1.1267 -0.4055 -1.0534
 3616TIP3    H235044   1.690   0.200   9.160  0.7487 -0.2609  0.6945
 3617TIP3   OH235045   6.564   2.545   8.766  0.0221  0.4073 -0.3049
 3617TIP3    H135046   6.505   2.613   8.799 -0.3824 -0.2224  0.2955
 3617TIP3    H235047   6.506   2.474   8.738  0.4889 -0.4378  0.7814
 3618TIP3   OH235048   2.627   3.017   7.885 -0.2168 -0.4534  0.7271
 3618TIP3    H135049   2.613   2.987   7.796  1.8826 -1.6434  0.7341
 3618TIP3    H235050   2.568   2.963   7.938 -0.8862 -0.2889  0.1629
 3619TIP3   OH235051   0.879   5.427   7.521  0.4270 -0.0664 -0.3343
 3619TIP3    H135052   0.907   5.508   7.480  0.0687  0.9183  1.2604
 3619TIP3    H235053   0.913   5.432   7.611  0.5739 -1.7803 -0.2501
 3620TIP3   OH235054   0.478   2.417   9.179 -0.1216 -0.2653 -0.1906
 3620TIP3    H135055   0.463   2.338   9.127  0.5154  0.8082 -2.0926
 3620TIP3    H235056   0.555   2.396   9.232 -0.3898 -1.1693 -0.1489
 3621TIP3   OH235057   1.855   4.258   8.104  0.2091 -0.0291 -0.4508
 3621TIP3    H135058   1.861   4.279   8.197  0.2360  0.9018 -0.6464
 3621TIP3    H235059   1.944   4.269   8.071  1.0324 -3.8190  0.0434
 3622TIP3   OH235060   5.516   7.286   9.460 -0.1399  0.2626  0.3503
 3622TIP3    H135061   5.519   7.228   9.384  1.5838  0.5053  0.1966
 3622TIP3    H235062   5.543   7.231   9.534  0.7279  0.6349  0.3327
 3623TIP3   OH235063   2.269   2.216   9.340 -0.0776  0.5332 -0.2293
 3623TIP3    H135064   2.210   2.256   9.276  0.6716  0.6914 -0.8394
 3623TIP3    H235065   2.332   2.167   9.287 -0.4206 -0.7018  0.4686
 3624TIP3   OH235066   3.872   1.416   9.578  0.8669 -0.0246 -0.5383
 3624TIP3    H135067   3.846   1.500   9.617  0.9090 -0.4323  0.3938
 3624TIP3    H235068   3.966   1.424   9.566  0.8757  0.0479 -0.4266
 3625TIP3   OH235069   0.412   7.081   7.931 -0.7128  0.3155  0.4327
 3625TIP3    H135070   0.502   7.064   7.959  1.1689  1.6711 -3.9378
 3625TIP3    H235071   0.406   7.177   7.926 -1.6685  0.2093 -1.2423
 3626TIP3   OH235072   7.213   4.370   7.061  0.0496  0.5360 -0.0046
 3626TIP3    H135073   7.178   4.284   7.086  0.9542  0.1685  0.0147
 3626TIP3    H235074   7.144   4.409   7.008 -0.4780 -0.0958  0.2043
 3627TIP3   OH235075   6.980   4.980   7.786 -0.2532 -0.2131 -0.8300
 3627TIP3    H135076   7.047   4.926   7.745 -1.3122 -2.6519  0.4361
 3627TIP3    H235077   7.027   5.027   7.855 -0.0522 -3.8939  1.8427
 3628TIP3   OH235078   6.887   0.253   6.734  0.1015 -0.5866 -0.1905
 3628TIP3    H135079   6.798   0.260   6.769  0.8739 -0.3784  1.8206
 3628TIP3    H235080   6.899   0.159   6.719 -0.2101 -0.6916  0.1999
 3629TIP3   OH235081   2.615   2.917   7.423  0.1986  0.2734 -0.4133
 3629TIP3    H135082   2.572   2.858   7.361  1.8160 -0.8237 -0.5694
 3629TIP3    H235083   2.561   2.996   7.423 -1.0488 -0.5403 -1.5579
 3630TIP3   OH235084   7.108   1.708   7.479  0.1308  0.0266 -0.0027
 3630TIP3    H135085   7.103   1.613   7.486  2.6795 -0.5911 -3.6009
 3630TIP3    H235086   7.202   1.727   7.473 -0.3667  2.5826 -1.0004
 3631TIP3   OH235087   3.078   2.105   9.287  0.1843 -0.1261 -0.2462
 3631TIP3    H135088   3.082   2.071   9.198 -0.4881 -1.4813  0.2051
 3631TIP3    H235089   3.016   2.179   9.282 -0.1336 -0.4270 -0.8369
 3632TIP3   OH235090   4.140   3.543   7.679  0.1813  0.1805  0.0364
 3632TIP3    H135091   4.153   3.634   7.651  0.5041 -0.0515 -0.5824
 3632TIP3    H235092   4.053   3.543   7.719  0.3315  0.8401  0.3721
 3633TIP3   OH235093   1.979   3.552   7.338  0.0002  0.6574  0.5116
 3633TIP3    H135094   2.037   3.564   7.263 -0.5400  1.0182  0.1370
 3633TIP3    H235095   1.940   3.466   7.325  0.4556  0.4146  0.7640
 3634TIP3   OH235096   1.057   0.746   9.487  0.4520  0.2837 -0.1091
 3634TIP3    H135097   1.153   0.752   9.478  0.6837  0.7982  2.1409
 3634TIP3    H235098   1.039   0.777   9.576 -1.8030 -0.0449 -0.3923
 3635TIP3   OH235099   4.743   6.419   7.442  0.1514  0.6821 -0.3810
 3635TIP3    H135100   4.828   6.446   7.405  1.6062 -2.2649  0.5346
 3635TIP3    H235101   4.746   6.449   7.533 -0.2111  1.3674 -0.5874
 3636TIP3   OH235102   6.686   7.268   8.172 -0.1912 -0.4968 -0.2537
 3636TIP3    H135103   6.702   7.274   8.078 -0.2248 -1.3404 -0.3183
 3636TIP3    H235104   6.773   7.272   8.212 -0.1037 -1.0758 -0.3783
 3637TIP3   OH235105   6.479   1.627   7.745  0.0305  0.4474  0.3274
 3637TIP3    H135106   6.424   1.551   7.726 -1.8460  1.5538  1.0739
 3637TIP3    H235107   6.519   1.608   7.829  0.2112 -0.0696  0.1238
 3638TIP3   OH235108   0.661   2.954   9.068  0.2150  0.2166  0.4598
 3638TIP3    H135109   0.723   3.026   9.053 -0.6888  1.4306  2.1562
 3638TIP3    H235110   0.707   2.894   9.127  0.5052  0.0747  0.0879
 3639TIP3   OH235111   5.273   0.510   8.593 -0.1968 -0.0540 -0.4969
 3639TIP3    H135112   5.200   0.449   8.602 -0.4489  0.4048  0.7487
 3639TIP3    H235113   5.342   0.473   8.649 -0.9721  1.6738  1.7640
 3640TIP3   OH235114   5.238   4.367   7.284  0.3611 -0.3384 -0.1286
 3640TIP3    H135115   5.167   4.304   7.272  0.4569 -0.8630  1.7745
 3640TIP3    H235116   5.302   4.322   7.338  1.6026  0.5507 -0.8037
 3641TIP3   OH235117   6.203   5.298   9.007  0.0463 -0.2831  0.3446
 3641TIP3    H135118   6.217   5.330   9.096  0.7039 -0.7358  0.4063
 3641TIP3    H235119   6.256   5.355   8.952  1.4186 -1.3877  0.4796
 3642TIP3   OH235120   4.831   6.754   8.178  0.1216 -0.4475  0.3241
 3642TIP3    H135121   4.860   6.845   8.173  1.7782 -0.9964 -1.2259
 3642TIP3    H235122   4.746   6.759   8.221 -0.1185  1.8873 -0.2513
 3643TIP3   OH235123   0.405   1.608   7.503  0.8963  0.4993  0.1008
 3643TIP3    H135124   0.439   1.519   7.494  0.6595  0.4287 -0.1100
 3643TIP3    H235125   0.419   1.648   7.417  0.1365  0.3578 -0.0966
 3644TIP3   OH235126   1.703   0.349   7.659 -0.2904  0.0520  0.2742
 3644TIP3    H135127   1.783   0.322   7.704 -0.6466  2.0036  2.2235
 3644TIP3    H235128   1.730   0.425   7.607 -0.7614  0.3914  0.5221
 3645TIP3   OH235129   3.467   1.008   7.017 -0.0909 -0.2727 -0.5428
 3645TIP3    H135130   3.461   1.088   7.068 -0.8000  1.5053 -3.2328
 3645TIP3    H235131   3.560   0.997   6.999  0.0854 -0.5180  0.4398
 3646TIP3   OH235132   4.351   6.537   7.130  0.4586  0.6073 -0.0467
 3646TIP3    H135133   4.314   6.532   7.043  1.4961 -0.7284 -0.4550
 3646TIP3    H235134   4.276   6.552   7.188 -0.7457 -1.8262 -0.8403
 3647TIP3   OH235135   2.013   5.100   8.146 -0.4686  0.2183 -0.0153
 3647TIP3    H135136   1.977   5.144   8.223 -0.7020 -0.3197  0.1930
 3647TIP3    H235137   1.990   5.008   8.159 -1.3735  0.2520 -1.2135
 3648TIP3   OH235138   0.567   0.779   7.120 -0.0159  0.2843 -0.3887
 3648TIP3    H135139   0.594   0.828   7.042  1.2653  1.2916  0.6446
 3648TIP3    H235140   0.527   0.844   7.177 -0.2286 -0.2890  0.1291
 3649TIP3   OH235141   0.190   7.344   9.267  0.8139 -0.2131  0.1852
 3649TIP3    H135142   0.266   7.339   9.209  1.4869  0.1529  1.0190
 3649TIP3    H235143   0.184   7.257   9.307  0.1031 -0.5979 -0.7052
 3650TIP3   OH235144   3.947   0.314   7.105 -0.0708 -0.0202 -0.3710
 3650TIP3    H135145   3.899   0.245   7.060 -0.7085 -0.1042  0.4173
 3650TIP3    H235146   3.940   0.390   7.047 -0.3725 -0.2899 -0.6886
 3651TIP3   OH235147   2.781   0.771   8.360  0.2767  0.5659  0.6646
 3651TIP3    H135148   2.823   0.707   8.302 -1.3174  2.0330 -2.4033
 3651TIP3    H235149   2.751   0.720   8.435  0.5149 -1.9869 -0.8534
 3652TIP3   OH235150   1.460   4.599   7.546  0.2956  0.4304 -0.6729
 3652TIP3    H135151   1.515   4.541   7.494 -0.6085 -1.3089  0.2108
 3652TIP3    H235152   1.507   4.682   7.548  1.4676 -0.1561 -2.2858
 3653TIP3   OH235153   5.733   0.990   7.296  0.6452  0.4223  0.3795
 3653TIP3    H135154   5.688   0.986   7.380  1.4163  1.9478  0.8998
 3653TIP3    H235155   5.787   1.069   7.301  1.2905  0.1292 -1.2600
 3654TIP3   OH235156   2.479   5.354   8.015 -0.5312 -0.5143  0.0843
 3654TIP3    H135157   2.415   5.289   8.044  0.7818 -1.5692  0.7713
 3654TIP3    H235158   2.525   5.380   8.094 -0.9328  1.1859 -0.2082
 3655TIP3   OH235159   1.754   1.532   7.668  0.5774  0.1872  0.3815
 3655TIP3    H135160   1.692   1.489   7.727 -1.1433 -0.9327 -2.0884
 3655TIP3    H235161   1.803   1.460   7.629  1.6281  0.9099  0.3218
 3656TIP3   OH235162   3.447   6.321   8.611  0.3279 -0.2090 -0.0414
 3656TIP3    H135163   3.373   6.369   8.650 -0.0148 -0.3374 -0.5282
 3656TIP3    H235164   3.428   6.320   8.517  0.6433 -0.7759 -0.1002
 3657TIP3   OH235165   2.437   3.365   8.733  0.0853 -0.5026 -0.1942
 3657TIP3    H135166   2.526   3.400   8.731  0.7686 -2.0836  0.3087
 3657TIP3    H235167   2.411   3.371   8.825 -0.1925 -0.3547 -0.2822
 3658TIP3   OH235168   5.275   2.149   7.330 -0.2417 -0.0600  0.1461
 3658TIP3    H135169   5.232   2.235   7.332 -0.4790 -0.1186 -1.3404
 3658TIP3    H235170   5.286   2.130   7.237  2.6757 -0.2303  0.4287
 3659TIP3   OH235171   5.874   7.394   8.473 -0.4696 -0.1120  0.1350
 3659TIP3    H135172   5.834   7.479   8.491  1.4100  0.8021  0.2516
 3659TIP3    H235173   5.907   7.364   8.558  1.1925  0.3300 -0.3166
 3660TIP3   OH235174   7.464   2.369   9.569 -0.4215 -0.2746 -0.2178
 3660TIP3    H135175   7.381   2.370   9.520 -0.1175 -0.5396 -0.7468
 3660TIP3    H235176   7.439   2.348   9.659 -0.8115 -1.5949 -0.6157
 3661TIP3   OH235177   3.235   7.044   7.824 -0.9056 -0.0141  0.3968
 3661TIP3    H135178   3.326   7.072   7.816 -0.7571  0.5368  3.0556
 3661TIP3    H235179   3.205   7.034   7.734  1.6218  0.2601 -0.5563
 3662TIP3   OH235180   4.026   5.605   7.040  0.4069 -0.3214 -0.0409
 3662TIP3    H135181   4.023   5.575   6.949 -0.1096 -1.4105  0.3089
 3662TIP3    H235182   3.936   5.595   7.071  0.4373  0.6722  0.4111
 3663TIP3   OH235183   7.021   2.491   8.588  0.2550  0.2132  0.0455
 3663TIP3    H135184   7.057   2.417   8.636 -0.8225  1.2903  2.7150
 3663TIP3    H235185   7.079   2.564   8.610 -0.6827  0.8879  0.3291
 3664TIP3   OH235186   2.338   6.930   8.237  0.3771 -0.0765 -0.1016
 3664TIP3    H135187   2.405   6.980   8.283 -0.8054 -0.5972  2.3248
 3664TIP3    H235188   2.359   6.839   8.256 -1.5875 -0.2247  1.6843
 3665TIP3   OH235189   1.203   1.451   7.830  0.1654 -0.3405 -1.4413
 3665TIP3    H135190   1.135   1.415   7.887  1.0812 -0.3645 -0.3257
 3665TIP3    H235191   1.155   1.502   7.765 -0.8715  0.8022  0.1421
 3666TIP3   OH235192   0.010   0.513   9.443  0.1659  0.0228  0.5426
 3666TIP3    H135193   0.070   0.542   9.375  0.5113  0.8259  1.1632
 3666TIP3    H235194   0.003   0.418   9.431 -1.9724  0.4253 -2.3606
 3667TIP3   OH235195   1.946   1.687   8.721  0.1544  0.7018  0.0542
 3667TIP3    H135196   1.948   1.691   8.817  0.3762  3.2525 -0.0013
 3667TIP3    H235197   2.013   1.622   8.699  0.2475  0.2196  1.5946
 3668TIP3   OH235198   3.016   5.096   8.574  0.2427 -0.0393  0.4179
 3668TIP3    H135199   3.047   5.112   8.663  1.0425 -0.2430  0.1836
 3668TIP3    H235200   2.950   5.163   8.559  1.1435  0.9107  0.6462
 3669TIP3   OH235201   5.910   2.097   7.805  0.0163  0.6144  0.2547
 3669TIP3    H135202   5.825   2.068   7.839 -0.1836 -0.1640 -0.8724
 3669TIP3    H235203   5.973   2.036   7.842 -0.1961 -0.2045 -0.7063
 3670TIP3   OH235204   0.994   4.445   6.707  0.3076 -0.1010 -0.6149
 3670TIP3    H135205   0.994   4.435   6.612 -1.1352  2.2975 -0.9579
 3670TIP3    H235206   0.974   4.537   6.721  2.1607 -0.0023  2.0388
 3671TIP3   OH235207   6.299   0.636   7.261 -0.1186  0.1854  0.3601
 3671TIP3    H135208   6.368   0.570   7.257 -0.6691 -0.5118  1.6572
 3671TIP3    H235209   6.277   0.642   7.354 -1.8799  0.2957 -0.0195
 3672TIP3   OH235210   3.847   6.047   9.530  0.4762  0.5197 -0.4033
 3672TIP3    H135211   3.786   6.016   9.462 -0.0660  0.8903 -0.0869
 3672TIP3    H235212   3.902   5.971   9.548 -1.6125 -0.7306  1.2368
 3673TIP3   OH235213   2.543   1.003   9.199 -0.1831 -0.1977 -0.4275
 3673TIP3    H135214   2.511   1.046   9.279  5.5214  2.3979  0.9831
 3673TIP3    H235215   2.548   0.910   9.222 -4.2928 -0.5422 -0.2241
 3674TIP3   OH235216   0.437   4.688   7.782  0.1772  0.7461 -0.3074
 3674TIP3    H135217   0.370   4.703   7.715  1.8838 -0.3297 -2.3732
 3674TIP3    H235218   0.506   4.751   7.760  3.0356 -2.8951 -2.9339
 3675TIP3   OH235219   4.901   6.241   9.371  0.3077  0.2301 -0.3821
 3675TIP3    H135220   4.962   6.264   9.301  0.9378 -1.1673 -0.3309
 3675TIP3    H235221   4.949   6.260   9.452  0.9412 -1.4194 -0.3383
 3676TIP3   OH235222   1.765   3.146   8.587 -0.0693 -0.3292 -0.3173
 3676TIP3    H135223   1.775   3.225   8.640  0.4271 -0.7394  0.2096
 3676TIP3    H235224   1.727   3.082   8.646 -1.2126 -0.2728 -0.9552
 3677TIP3   OH235225   2.549   7.173   6.595  0.3025 -0.7193  0.2334
 3677TIP3    H135226   2.602   7.129   6.528  2.1422  0.9504  0.4940
 3677TIP3    H235227   2.613   7.220   6.649 -1.2428 -0.9725  2.4045
 3678TIP3   OH235228   0.071   6.179   8.291 -0.0832 -0.3130 -0.1060
 3678TIP3    H135229  -0.023   6.188   8.279 -0.2406 -1.2930  0.2589
 3678TIP3    H235230   0.081   6.098   8.341  0.9117  0.2333  0.6161
 3679TIP3   OH235231   5.367   3.466   8.905  0.1855 -0.4301 -0.4647
 3679TIP3    H135232   5.300   3.415   8.950  1.0505 -0.9356  0.2989
 3679TIP3    H235233   5.449   3.443   8.950  0.5818  1.9016  0.1631
 3680TIP3   OH235234   0.756   0.516   9.127 -0.1943  0.1786 -0.7762
 3680TIP3    H135235   0.788   0.577   9.193 -2.2874 -0.2201  0.7145
 3680TIP3    H235236   0.810   0.438   9.138  0.9374  0.9034 -1.0778
 3681TIP3   OH235237   1.712   2.210   7.573 -0.1655 -0.2659  0.2124
 3681TIP3    H135238   1.658   2.285   7.597  0.2938  0.6351 -1.4396
 3681TIP3    H235239   1.662   2.164   7.506  0.3982 -0.3725 -0.1392
 3682TIP3   OH235240   0.726   6.820   9.152 -0.4885 -0.1814  0.2247
 3682TIP3    H135241   0.650   6.799   9.206 -1.1230 -0.4379 -0.7401
 3682TIP3    H235242   0.759   6.735   9.122  1.5892 -0.2562  2.4458
 3683TIP3   OH235243   7.078   2.291   8.787  0.5427  0.4557 -0.1610
 3683TIP3    H135244   7.059   2.207   8.746 -0.0384 -0.0714  1.1403
 3683TIP3    H235245   7.174   2.296   8.790  0.5803 -0.3700  0.1648
 3684TIP3   OH235246   3.956   6.589   7.064  0.5552 -0.8130  0.2508
 3684TIP3    H135247   4.048   6.593   7.036  0.3083  0.7403 -0.4544
 3684TIP3    H235248   3.938   6.496   7.074  1.7931 -1.2235 -1.0022
 3685TIP3   OH235249   6.553   6.323   6.916 -0.5329  0.4567  0.1417
 3685TIP3    H135250   6.476   6.267   6.906 -0.7596  0.4685  1.6348
 3685TIP3    H235251   6.610   6.275   6.976  0.6544  0.4430 -0.9527
 3686TIP3   OH235252   1.619   0.196   8.764 -0.2281  0.0906 -0.4710
 3686TIP3    H135253   1.547   0.222   8.707  1.2422 -0.8617 -2.8911
 3686TIP3    H235254   1.675   0.141   8.709  2.4563  0.9312  1.2402
 3687TIP3   OH235255   6.760   5.925   9.096 -0.1349 -0.0700 -0.5872
 3687TIP3    H135256   6.753   5.977   9.176 -0.8162  2.1971 -2.0210
 3687TIP3    H235257   6.839   5.957   9.053 -0.4813 -0.3430 -1.4492
 3688TIP3   OH235258   3.395   6.640   9.311 -0.1892  0.0661 -0.5236
 3688TIP3    H135259   3.485   6.651   9.342 -0.3760  0.8715 -0.2219
 3688TIP3    H235260   3.393   6.554   9.269  0.8260  0.2142 -0.8947
 3689TIP3   OH235261   1.362   1.288   8.306  0.8603 -0.1101 -0.3018
 3689TIP3    H135262   1.413   1.351   8.357  0.9295 -0.4205  0.0210
 3689TIP3    H235263   1.363   1.323   8.217  1.8489 -0.2297 -0.3571
 3690TIP3   OH235264   5.944   1.311   8.915 -0.0300  0.3273 -0.0777
 3690TIP3    H135265   5.879   1.350   8.973  0.3177  0.4032  0.2625
 3690TIP3    H235266   5.973   1.385   8.860  0.7457  0.6010  0.6747
 3691TIP3   OH235267   7.015   6.994   8.723 -0.1520  0.2596 -0.4104
 3691TIP3    H135268   7.039   7.011   8.815 -1.2364 -0.1244 -0.0334
 3691TIP3    H235269   6.919   6.999   8.723 -0.1586  0.3258 -1.5473
 3692TIP3   OH235270   5.620   5.751   8.820  0.7946  0.3625  0.0180
 3692TIP3    H135271   5.666   5.734   8.903  0.3279  0.0757  0.2250
 3692TIP3    H235272   5.597   5.844   8.824 -0.4313  0.0513  0.8423
 3693TIP3   OH235273   1.632   5.391   7.204 -0.0677  0.0135  0.0455
 3693TIP3    H135274   1.621   5.439   7.122 -0.2179 -0.7035 -0.3609
 3693TIP3    H235275   1.586   5.308   7.190  1.4205 -0.8674  0.1949
 3694TIP3   OH235276   7.247   6.829   9.160 -0.3922 -0.1250 -0.6874
 3694TIP3    H135277   7.179   6.812   9.094  0.4430  0.0306 -1.6134
 3694TIP3    H235278   7.293   6.746   9.169  0.1383  0.1283 -1.0545
 3695TIP3   OH235279   1.786   2.551   8.963 -0.2229  0.3820  0.2594
 3695TIP3    H135280   1.798   2.646   8.965  3.7475  0.1061 -1.2764
 3695TIP3    H235281   1.782   2.526   9.056  0.6668  1.9347  0.7594
 3696TIP3   OH235282   3.912   6.160   7.317 -0.2109  0.0855 -0.3365
 3696TIP3    H135283   3.893   6.193   7.229 -0.9982  0.1937 -0.1354
 3696TIP3    H235284   3.915   6.065   7.307  4.0247  0.1117 -1.3170
 3697TIP3   OH235285   2.002   1.061   7.664  0.3096 -0.0488 -0.1021
 3697TIP3    H135286   2.083   1.043   7.712  0.3003 -0.3008 -0.1796
 3697TIP3    H235287   2.031   1.091   7.578  0.3209 -0.6657 -0.3208
 3698TIP3   OH235288   1.436   1.785   7.373 -0.3671 -0.4667  0.2056
 3698TIP3    H135289   1.488   1.864   7.388 -1.3518  0.3263 -0.4406
 3698TIP3    H235290   1.501   1.717   7.356  0.4760  0.4967 -0.5701
 3699TIP3   OH235291   3.547   1.634   8.788  0.6863 -0.2902 -1.2556
 3699TIP3    H135292   3.508   1.643   8.700 -1.9032  1.2782 -0.0700
 3699TIP3    H235293   3.478   1.595   8.841  2.5468 -2.1616 -0.0518
 3700TIP3   OH235294   5.363   4.148   9.117  0.1207  0.0566  0.1445
 3700TIP3    H135295   5.326   4.205   9.049 -1.2940  1.2131  1.8037
 3700TIP3    H235296   5.444   4.191   9.143  0.2577  0.0350 -0.2357
 3701TIP3   OH235297   1.316   0.261   7.681  0.2551 -0.5523 -0.1067
 3701TIP3    H135298   1.242   0.254   7.741  0.0869  0.2723 -0.2079
 3701TIP3    H235299   1.372   0.329   7.720  1.3128 -1.6227  0.3282
 3702TIP3   OH235300   3.859   2.023   7.967  0.0252 -0.7155  0.2610
 3702TIP3    H135301   3.928   2.016   8.033  0.2488  1.1018  0.2729
 3702TIP3    H235302   3.863   2.114   7.938 -1.2243 -1.0342 -1.0103
 3703TIP3   OH235303   5.477   1.480   7.627  0.3701  0.0422 -0.3075
 3703TIP3    H135304   5.534   1.498   7.702  0.4544  0.4538 -0.4673
 3703TIP3    H235305   5.533   1.431   7.566  0.5325  0.3777 -0.4310
 3704TIP3   OH235306   1.308   3.701   8.379  0.2570 -0.2731 -0.4883
 3704TIP3    H135307   1.346   3.788   8.386 -1.8747  0.7196 -0.5710
 3704TIP3    H235308   1.316   3.679   8.286  0.5243 -0.0393 -0.5222
 3705TIP3   OH235309   4.051   3.175   7.696  0.2507  0.5780  0.2235
 3705TIP3    H135310   4.062   3.093   7.646  0.6874  1.3705 -1.0270
 3705TIP3    H235311   3.978   3.220   7.652 -1.0501  0.1809  1.8795
 3706TIP3   OH235312   6.604   2.080   7.429 -0.1701 -0.0511  0.8080
 3706TIP3    H135313   6.681   2.060   7.376 -0.0912  0.8852  0.5536
 3706TIP3    H235314   6.638   2.122   7.507 -0.4304  0.8283  0.4714
 3707TIP3   OH235315   5.033   2.610   7.209  0.2265  0.0572 -0.3704
 3707TIP3    H135316   5.065   2.638   7.295 -0.5857 -0.4630  0.1121
 3707TIP3    H235317   5.112   2.592   7.159  0.7553  1.6943 -0.1988
 3708TIP3   OH235318   6.748   7.359   7.093 -0.4356  0.1902  0.6412
 3708TIP3    H135319   6.743   7.288   7.029 -1.6439  0.5769  0.2614
 3708TIP3    H235320   6.725   7.437   7.043 -0.9960  0.5615  1.4533
 3709TIP3   OH235321   4.978   3.442   8.086  0.2889 -0.1513  0.6126
 3709TIP3    H135322   4.977   3.346   8.083  0.3804 -0.1489  0.5182
 3709TIP3    H235323   4.892   3.468   8.054  0.5656 -0.1763 -0.1810
 3710TIP3   OH235324   6.420   7.319   7.098  0.6531 -0.2267 -0.0719
 3710TIP3    H135325   6.415   7.233   7.140 -0.8016 -0.3107 -0.3610
 3710TIP3    H235326   6.374   7.377   7.158 -0.3971 -0.1164 -0.9570
 3711TIP3   OH235327   1.031   3.688   8.034 -0.0373  0.3442 -0.8155
 3711TIP3    H135328   0.938   3.680   8.056 -0.0836  0.7735 -0.8602
 3711TIP3    H235329   1.033   3.730   7.949  0.2333  2.1981  0.0565
 3712TIP3   OH235330   1.102   5.602   6.918  0.1098 -0.1716  0.9231
 3712TIP3    H135331   1.036   5.551   6.870  0.1285 -0.2946  1.0300
 3712TIP3    H235332   1.186   5.572   6.883  0.1271 -0.3237  1.0956
 3713TIP3   OH235333   3.565   5.381   7.998  0.0850 -0.1064  0.0656
 3713TIP3    H135334   3.503   5.310   8.016 -0.2590 -0.2103 -1.3946
 3713TIP3    H235335   3.592   5.412   8.084 -1.0368 -0.9022  0.7270
 3714TIP3   OH235336   5.336   1.894   7.833  0.3297  0.3621  0.1448
 3714TIP3    H135337   5.307   1.821   7.779 -1.2143  0.6342  0.5376
 3714TIP3    H235338   5.256   1.944   7.850  0.9169  0.7727  1.9359
 3715TIP3   OH235339   4.713   6.172   9.533 -0.2494 -0.2508  0.1860
 3715TIP3    H135340   4.758   6.087   9.531  2.0300  0.9167 -1.0035
 3715TIP3    H235341   4.747   6.220   9.458 -2.2772  1.3896  0.2137
 3716TIP3   OH235342   7.420   3.231   8.985  0.0582  0.0860  0.4061
 3716TIP3    H135343   7.508   3.237   8.948 -0.0440 -0.3406  0.0814
 3716TIP3    H235344   7.405   3.316   9.027 -0.6627  1.4866 -2.4119
 3717TIP3   OH235345   3.473   1.608   8.499 -0.1227  0.3274  0.3217
 3717TIP3    H135346   3.521   1.620   8.417  1.0993  2.2590  1.2549
 3717TIP3    H235347   3.385   1.642   8.480 -0.8405 -1.9752 -0.9854
 3718TIP3   OH235348   3.244   2.028   6.714  0.2977 -0.5318  0.3592
 3718TIP3    H135349   3.196   2.066   6.787  0.6491  0.8104 -0.0839
 3718TIP3    H235350   3.288   2.102   6.673  0.7184 -1.3729 -0.7572
 3719TIP3   OH235351   1.542   1.553   7.843 -0.3506  0.6741  0.1779
 3719TIP3    H135352   1.529   1.639   7.804 -0.9025  0.8470  0.7235
 3719TIP3    H235353   1.557   1.570   7.936  0.6582  0.2509  0.1095
 3720TIP3   OH235354   1.094   3.778   9.341  0.0743  0.2779 -0.5229
 3720TIP3    H135355   1.079   3.762   9.248  2.5803 -0.7707 -0.8159
 3720TIP3    H235356   1.114   3.692   9.378  1.3481  0.9798  0.5070
 3721TIP3   OH235357   0.536   1.344   7.663  0.1028 -0.3322 -0.2684
 3721TIP3    H135358   0.599   1.287   7.619 -0.6570 -0.1069 -1.7289
 3721TIP3    H235359   0.451   1.311   7.635 -0.4259 -0.2929  1.2431
 3722TIP3   OH235360   6.993   3.732   7.253 -0.0624 -0.0097 -0.1405
 3722TIP3    H135361   7.074   3.769   7.218  0.5191 -1.3277 -0.2622
 3722TIP3    H235362   6.997   3.750   7.347  0.1452  0.3253 -0.2094
 3723TIP3   OH235363   6.430   1.936   7.946  0.0967 -0.0887 -0.7199
 3723TIP3    H135364   6.500   1.908   7.886  1.1443  0.5766  0.1506
 3723TIP3    H235365   6.475   1.990   8.011 -1.5051  1.8833 -1.1612
 3724TIP3   OH235366   4.011   4.293   9.380 -0.4068  0.0480 -0.8400
 3724TIP3    H135367   4.029   4.312   9.472  0.3676 -1.9143 -0.5350
 3724TIP3    H235368   4.096   4.300   9.337 -0.3972 -0.9730 -1.0110
 3725TIP3   OH235369   5.990   1.112   9.305 -0.6551  0.2007 -0.3230
 3725TIP3    H135370   5.993   1.102   9.400 -2.1321  0.4305 -0.2207
 3725TIP3    H235371   5.975   1.024   9.271 -1.5846  0.3062 -0.2245
 3726TIP3   OH235372   2.553   1.446   9.354 -0.5280  0.1714  0.0205
 3726TIP3    H135373   2.626   1.385   9.341 -0.8785  0.0619 -1.6659
 3726TIP3    H235374   2.538   1.445   9.449  0.9036 -0.6749  0.2760
 3727TIP3   OH235375   6.499   5.227   8.412 -0.7914  0.1955 -0.3116
 3727TIP3    H135376   6.557   5.297   8.443 -1.2921  0.1795  0.7082
 3727TIP3    H235377   6.524   5.213   8.321  1.4192 -0.4331  0.3471
 3728TIP3   OH235378   0.257   4.285   7.447 -0.2456  0.0386  0.5323
 3728TIP3    H135379   0.273   4.194   7.474 -1.4020  0.2461  2.0224
 3728TIP3    H235380   0.167   4.303   7.474 -0.2445  1.4435 -0.3009
 3729TIP3   OH235381   6.225   6.463   6.938 -0.3501  0.0638 -0.0760
 3729TIP3    H135382   6.238   6.368   6.939 -0.8324 -0.0256 -1.3285
 3729TIP3    H235383   6.206   6.485   7.029  3.1594 -0.5245  0.9282
 3730TIP3   OH235384   0.009   4.597   9.254 -0.0905 -0.1079  0.2137
 3730TIP3    H135385   0.047   4.595   9.166  0.0043 -0.0203  0.2528
 3730TIP3    H235386  -0.075   4.553   9.244 -0.2370  0.2139  0.0067
 3731TIP3   OH235387   4.247   4.331   7.672  0.3180  0.1705  0.1830
 3731TIP3    H135388   4.239   4.291   7.585  0.3416  3.9267 -1.7680
 3731TIP3    H235389   4.173   4.296   7.722  1.0430 -3.0984 -0.7945
 3732TIP3   OH235390   1.794   5.814   8.077  0.0966 -0.1959 -0.1769
 3732TIP3    H135391   1.775   5.809   8.170  1.5769 -0.1120  0.1525
 3732TIP3    H235392   1.839   5.732   8.057 -0.6941 -0.4651 -0.9639
 3733TIP3   OH235393   3.839   2.179   8.724  0.4474  0.0925  0.3578
 3733TIP3    H135394   3.902   2.230   8.776 -0.2959  0.2636  1.1091
 3733TIP3    H235395   3.790   2.245   8.674  0.2415  0.0362  0.4832
 3734TIP3   OH235396   0.110   1.520   9.175 -0.3238  0.0143 -0.0967
 3734TIP3    H135397   0.200   1.553   9.175 -0.0076 -0.7806  1.3765
 3734TIP3    H235398   0.068   1.568   9.104  1.0738  0.9093 -0.3734
 3735TIP3   OH235399   7.025   5.797   7.912  0.6113  0.1978  0.0823
 3735TIP3    H135400   7.007   5.705   7.931  2.0016  0.1707  1.4721
 3735TIP3    H235401   7.097   5.795   7.849 -0.1824  0.3619 -0.8684
 3736TIP3   OH235402   3.446   7.013   8.427  0.0921 -0.2981  0.3511
 3736TIP3    H135403   3.520   6.993   8.484  1.1348  0.6747 -0.5961
 3736TIP3    H235404   3.425   7.104   8.447  2.5446  1.1791 -2.8797
 3737TIP3   OH235405   5.690   7.358   7.932  0.5943  0.6640 -0.3574
 3737TIP3    H135406   5.648   7.444   7.928  1.1424  0.9172 -0.8923
 3737TIP3    H235407   5.740   7.360   8.014 -0.6826  0.2294  0.4596
 3738TIP3   OH235408   1.844   4.892   8.960 -0.7293  0.3318 -0.0960
 3738TIP3    H135409   1.769   4.833   8.960 -0.5589  0.1181  0.0602
 3738TIP3    H235410   1.883   4.882   9.047  3.6657 -4.8117 -2.1680
 3739TIP3   OH235411   2.674   3.453   8.338  0.3184  0.2203  0.6563
 3739TIP3    H135412   2.714   3.510   8.404  0.5665 -0.2892  0.9545
 3739TIP3    H235413   2.585   3.437   8.370  0.6710 -0.6241  1.2674
 3740TIP3   OH235414   3.291   0.525   9.218  0.0933 -0.0553 -0.1516
 3740TIP3    H135415   3.349   0.595   9.248 -0.4073  0.8243 -1.1375
 3740TIP3    H235416   3.203   0.560   9.234 -0.2098 -1.5117  1.6638
 3741TIP3   OH235417   2.017   3.186   7.930  0.6247  0.3938 -0.1433
 3741TIP3    H135418   2.041   3.107   7.882  0.6140 -1.3222  2.4715
 3741TIP3    H235419   2.087   3.249   7.909  0.7823 -0.3551 -2.0692
 3742TIP3   OH235420   3.273   6.793   8.376  0.8384  0.2512 -0.1985
 3742TIP3    H135421   3.331   6.867   8.393  1.5907 -0.3619 -0.0270
 3742TIP3    H235422   3.219   6.787   8.454  2.1028 -0.5682  0.6524
 3743TIP3   OH235423   4.033   3.781   9.184 -0.0873 -0.5021  0.1182
 3743TIP3    H135424   3.941   3.753   9.181 -0.0169 -0.8179  0.6877
 3743TIP3    H235425   4.062   3.754   9.271  0.0694  1.0435  0.5733
 3744TIP3   OH235426   7.297   4.378   7.875  0.5617 -0.1379 -0.3217
 3744TIP3    H135427   7.253   4.330   7.805  0.5929 -0.9725  0.2261
 3744TIP3    H235428   7.317   4.463   7.836 -1.3555  0.2079 -0.6454
 3745TIP3   OH235429   1.624   1.593   7.321  0.9974  0.0371 -0.4676
 3745TIP3    H135430   1.630   1.570   7.228  2.3876  0.1645 -0.4199
 3745TIP3    H235431   1.619   1.509   7.366  0.5822 -0.0291 -0.6238
 3746TIP3   OH235432   3.018   2.582   7.864 -0.2834 -0.0560 -0.3843
 3746TIP3    H135433   3.112   2.565   7.859 -0.4329 -0.8907 -0.5148
 3746TIP3    H235434   3.011   2.663   7.915  0.3982 -1.3651  1.9423
 3747TIP3   OH235435   4.781   1.908   9.395 -0.2739 -0.2492 -0.3100
 3747TIP3    H135436   4.835   1.984   9.374 -1.2543  0.4246 -0.4790
 3747TIP3    H235437   4.729   1.893   9.315  1.7648 -2.7769 -1.3123
 3748TIP3   OH235438   6.714   5.133   7.845  0.2248  0.7126 -0.0196
 3748TIP3    H135439   6.639   5.110   7.900  0.2916 -0.5069 -0.4100
 3748TIP3    H235440   6.784   5.075   7.875  0.7249  1.1397 -0.3395
 3749TIP3   OH235441   6.768   0.569   9.485 -0.1493  0.3847 -0.1464
 3749TIP3    H135442   6.863   0.570   9.471  0.4569 -0.0175  3.0421
 3749TIP3    H235443   6.748   0.655   9.521  0.0244 -0.9719  3.6898
 3750TIP3   OH235444   3.221   4.584   8.782  0.5767  0.3048 -0.0378
 3750TIP3    H135445   3.300   4.604   8.833  0.7644 -0.7041  0.0751
 3750TIP3    H235446   3.154   4.565   8.848  0.0472  1.7510 -0.1134
 3751TIP3   OH235447   0.157   1.216   8.098 -0.0660 -0.3496 -0.8766
 3751TIP3    H135448   0.192   1.136   8.137  1.1958 -0.5024 -2.2293
 3751TIP3    H235449   0.192   1.216   8.008  0.3563  1.9392 -0.7714
 3752TIP3   OH235450   1.866   5.056   7.661  0.2081 -0.0425  0.2712
 3752TIP3    H135451   1.950   5.098   7.683  0.8224 -1.2971  0.3861
 3752TIP3    H235452   1.806   5.129   7.649  0.3290  0.8960  3.9744
 3753TIP3   OH235453   4.249   3.064   8.037  0.0321 -0.4048  0.3160
 3753TIP3    H135454   4.155   3.082   8.029  0.1899  0.4810  0.3720
 3753TIP3    H235455   4.288   3.149   8.057  0.5211 -1.1878  3.1039
 3754TIP3   OH235456   5.433   6.697   7.987 -0.1828 -0.0864 -0.0541
 3754TIP3    H135457   5.404   6.673   7.899 -1.0021  1.0529 -0.1209
 3754TIP3    H235458   5.408   6.789   7.996  0.1460 -0.1049  1.2701
 3755TIP3   OH235459   3.812   6.217   8.423 -1.0803 -0.5312 -0.1740
 3755TIP3    H135460   3.899   6.176   8.421 -0.9293 -0.2973  0.9142
 3755TIP3    H235461   3.754   6.147   8.453 -1.2612 -0.6560 -0.7953
 3756TIP3   OH235462   3.628   0.625   9.105 -0.2512 -0.0582  0.0573
 3756TIP3    H135463   3.569   0.644   9.178 -0.3141  0.3169 -0.0937
 3756TIP3    H235464   3.716   0.631   9.143 -0.3039 -1.2966  0.4566
 3757TIP3   OH235465   0.627   7.356   8.437 -0.2723  0.1655 -0.3297
 3757TIP3    H135466   0.576   7.427   8.477 -2.2761 -1.5586  0.3592
 3757TIP3    H235467   0.601   7.357   8.345  0.0060  0.5394 -0.4097
 3758TIP3   OH235468   3.638   0.163   7.238 -0.2605  0.6317 -0.1088
 3758TIP3    H135469   3.595   0.224   7.178 -3.2286  1.7722  2.8340
 3758TIP3    H235470   3.685   0.219   7.300 -1.7751 -0.0127  1.7384
 3759TIP3   OH235471   3.583   2.078   8.403  0.7309 -0.3364  0.2945
 3759TIP3    H135472   3.639   2.007   8.435  2.6735  0.8424 -0.2934
 3759TIP3    H235473   3.620   2.101   8.318  2.7540  3.9370  2.0387
 3760TIP3   OH235474   5.324   0.140   7.322 -0.2312  0.0340 -0.1557
 3760TIP3    H135475   5.352   0.053   7.295 -2.5319 -0.0294 -2.7034
 3760TIP3    H235476   5.337   0.195   7.244 -1.3052  1.3459  0.5450
 3761TIP3   OH235477   6.260   0.479   8.621 -0.5322  0.0445 -0.2511
 3761TIP3    H135478   6.301   0.460   8.537 -0.3646  0.7582 -0.3368
 3761TIP3    H235479   6.318   0.543   8.663 -0.2930 -0.7451  0.6788
 3762TIP3   OH235480   4.514   6.563   9.306 -0.1252  0.1787 -0.3819
 3762TIP3    H135481   4.601   6.531   9.279  0.7454 -0.2326  2.5956
 3762TIP3    H235482   4.453   6.501   9.266  1.1058 -0.8470 -0.7544
 3763TIP3   OH235483   4.659   0.157   7.634 -0.6236  0.3348  0.1867
 3763TIP3    H135484   4.625   0.084   7.583  1.6003 -1.4071  1.0084
 3763TIP3    H235485   4.722   0.116   7.695  4.5846  3.2439 -2.5548
 3764TIP3   OH235486   1.782   3.650   6.675  0.7413 -0.6102 -0.1659
 3764TIP3    H135487   1.807   3.676   6.586  1.5443 -0.2478  0.1647
 3764TIP3    H235488   1.800   3.726   6.729  0.2767 -0.8382  0.3197
 3765TIP3   OH235489   4.912   5.008   8.314  0.5936  0.1106 -0.0688
 3765TIP3    H135490   4.989   5.057   8.287  1.4609 -0.6196  1.0164
 3765TIP3    H235491   4.930   4.981   8.404 -1.1312  0.3295  0.3933
 3766TIP3   OH235492   4.134   5.706   7.421  0.2580  0.2171  0.4379
 3766TIP3    H135493   4.180   5.667   7.347 -2.3087  0.0642 -1.1927
 3766TIP3    H235494   4.148   5.645   7.493  0.8485 -0.8705 -0.5565
 3767TIP3   OH235495   7.292   0.131   8.950  0.0087  0.3444 -0.1002
 3767TIP3    H135496   7.208   0.094   8.925  0.9644 -2.0248 -0.0179
 3767TIP3    H235497   7.356   0.066   8.924  1.5816  0.6901  2.5478
 3768TIP3   OH235498   0.501   4.445   7.447 -0.5245  0.4037 -0.0440
 3768TIP3    H135499   0.549   4.432   7.529  0.2748 -1.0296 -0.6957
 3768TIP3    H235500   0.412   4.414   7.465 -0.5904  0.8984  0.5109
 3769TIP3   OH235501   4.893   6.380   8.690  0.2641 -0.1838 -0.1386
 3769TIP3    H135502   4.905   6.436   8.613 -1.2080  0.9289  0.3881
 3769TIP3    H235503   4.909   6.291   8.658  0.2956  0.3153 -1.5813
 3770TIP3   OH235504   7.063   3.982   8.779  0.2431  0.2891 -0.0417
 3770TIP3    H135505   7.116   3.968   8.701  0.9237 -1.0397  0.6197
 3770TIP3    H235506   7.033   3.895   8.804  0.4183  0.6158  1.4248
 3771TIP3   OH235507   1.266   2.513   7.794  0.3768  0.0625 -0.3348
 3771TIP3    H135508   1.356   2.543   7.805 -0.2512  2.3965 -1.1426
 3771TIP3    H235509   1.230   2.510   7.883  0.9092  0.1919 -0.1121
 3772TIP3   OH235510   2.904   2.169   8.100 -0.2650  0.3868 -0.1907
 3772TIP3    H135511   2.835   2.144   8.038  0.1819 -0.6020 -0.3105
 3772TIP3    H235512   2.903   2.265   8.100 -1.9043  0.3981  0.1113
 3773TIP3   OH235513   0.859   2.890   8.026 -0.0628 -0.3201  0.3571
 3773TIP3    H135514   0.947   2.920   8.046 -0.1409  0.3846 -0.3210
 3773TIP3    H235515   0.858   2.877   7.931 -0.6117 -0.5727  0.3914
 3774TIP3   OH235516   3.223   0.590   7.927  0.4703 -0.4559 -0.0205
 3774TIP3    H135517   3.302   0.579   7.874  0.2740  1.4833 -0.8052
 3774TIP3    H235518   3.234   0.676   7.968 -1.3410 -0.0256 -0.3552
 3775TIP3   OH235519   6.697   0.324   8.768 -0.3225 -0.4610 -0.3303
 3775TIP3    H135520   6.787   0.327   8.798  0.5030 -3.6291 -2.0525
 3775TIP3    H235521   6.645   0.346   8.845  1.8459  1.5845  0.6750
 3776TIP3   OH235522   3.675   6.938   6.567 -0.2730  0.2719 -0.0798
 3776TIP3    H135523   3.613   6.891   6.511 -1.0643  0.8978  0.2390
 3776TIP3    H235524   3.761   6.911   6.536 -0.6998 -1.2497 -0.0035
 3777TIP3   OH235525   0.269   2.704   8.122 -0.7599 -0.3352  0.2274
 3777TIP3    H135526   0.211   2.672   8.191  0.4463 -0.7607  1.0614
 3777TIP3    H235527   0.354   2.665   8.140  0.1015  1.1803 -0.2999
 3778TIP3   OH235528   6.703   3.966   7.283 -0.8512 -0.0521  0.0511
 3778TIP3    H135529   6.685   4.048   7.237 -2.2091 -0.4337 -0.1588
 3778TIP3    H235530   6.784   3.983   7.331  0.7483  0.3160 -2.5540
 3779TIP3   OH235531   1.857   3.702   7.546 -0.0988  0.4378 -0.8606
 3779TIP3    H135532   1.904   3.658   7.475  0.1272  0.0174 -0.4528
 3779TIP3    H235533   1.774   3.730   7.507 -0.8749 -1.6013 -0.7694
 3780TIP3   OH235534   6.886   1.853   7.620 -0.2370 -0.8939 -0.1571
 3780TIP3    H135535   6.904   1.947   7.621  0.2410 -0.9797  1.2452
 3780TIP3    H235536   6.962   1.814   7.576  0.3499 -0.7608  0.7274
 3781TIP3   OH235537   6.591   5.477   6.624 -0.3180  0.3525  0.0813
 3781TIP3    H135538   6.622   5.517   6.705 -1.8237 -0.1561  0.9368
 3781TIP3    H235539   6.635   5.392   6.621  0.7037  0.8816 -0.2959
 3782TIP3   OH235540   1.402   4.566   7.845  0.1226 -0.7662  0.4912
 3782TIP3    H135541   1.415   4.568   7.750 -0.2763  0.8673  0.4494
 3782TIP3    H235542   1.335   4.498   7.858  0.2459 -1.0679 -0.3768
 3783TIP3   OH235543   6.513   4.437   7.335 -0.4283  0.7377  0.0026
 3783TIP3    H135544   6.422   4.448   7.364 -0.0019 -1.3408  2.4524
 3783TIP3    H235545   6.505   4.402   7.246 -1.9242  2.3589 -0.5708
 3784TIP3   OH235546   5.021   3.600   8.851  0.0887  0.2861 -0.1564
 3784TIP3    H135547   4.960   3.665   8.817 -0.8201 -0.1357  0.6120
 3784TIP3    H235548   4.988   3.516   8.819  0.1644  0.0430  0.3806
 3785TIP3   OH235549   6.527   4.245   6.585 -0.2436 -0.4621 -0.4856
 3785TIP3    H135550   6.563   4.157   6.575 -0.0680 -0.3899 -0.4954
 3785TIP3    H235551   6.603   4.303   6.576 -0.0132 -0.4026  1.4217
 3786TIP3   OH235552   6.701   5.514   9.188 -0.0121 -0.4541 -0.1748
 3786TIP3    H135553   6.724   5.457   9.262  0.8753 -3.8691 -2.8464
 3786TIP3    H235554   6.768   5.582   9.189  0.8835 -1.2920  1.2452
 3787TIP3   OH235555   4.413   5.300   7.928  0.5337 -0.7340  0.1068
 3787TIP3    H135556   4.398   5.388   7.894  1.5264 -0.4873  0.2893
 3787TIP3    H235557   4.327   5.272   7.960  0.2843  0.3043  0.3846
 3788TIP3   OH235558   0.512   5.928   6.764 -0.4797 -0.5000 -0.3535
 3788TIP3    H135559   0.605   5.933   6.744 -0.6966  0.1254 -1.2797
 3788TIP3    H235560   0.495   6.006   6.818 -0.7058  0.0761 -1.2443
 3789TIP3   OH235561   3.325   0.859   8.697 -0.0371  0.5139 -0.1999
 3789TIP3    H135562   3.295   0.877   8.607  0.6860  1.7744 -0.2082
 3789TIP3    H235563   3.306   0.940   8.745 -0.3030 -0.1070  0.7673
 3790TIP3   OH235564   3.295   4.861   9.584  0.9508  0.1593  0.3647
 3790TIP3    H135565   3.203   4.879   9.604  0.8059 -1.1640  1.0100
 3790TIP3    H235566   3.338   4.946   9.589 -0.5320  1.1360 -1.7876
 3791TIP3   OH235567   1.928   5.447   9.145  0.4112  0.0892 -0.0382
 3791TIP3    H135568   1.907   5.535   9.177  1.3552 -0.2820  1.7844
 3791TIP3    H235569   1.900   5.389   9.216  2.2293 -0.8454 -0.0140
 3792TIP3   OH235570   3.867   1.266   9.029 -1.2972 -0.2293 -0.0832
 3792TIP3    H135571   3.925   1.343   9.026 -1.5860 -0.0306 -0.7447
 3792TIP3    H235572   3.870   1.238   9.120 -0.3353 -0.0844 -0.0576
 3793TIP3   OH235573   3.355   0.178   8.561  0.8150 -0.2588  0.3977
 3793TIP3    H135574   3.290   0.136   8.617 -0.2070  1.3789  0.5100
 3793TIP3    H235575   3.431   0.189   8.618  0.5438 -0.5364  0.8210
 3794TIP3   OH235576   7.292   5.198   8.902  0.5228  0.1358 -0.5856
 3794TIP3    H135577   7.360   5.250   8.858 -0.0527  1.4355  0.0239
 3794TIP3    H235578   7.210   5.233   8.868  0.1088  0.1618  0.4178
 3795TIP3   OH235579   5.517   6.087   7.058  0.5905  0.2692 -0.1269
 3795TIP3    H135580   5.456   6.014   7.058 -0.0844  0.7109  2.8838
 3795TIP3    H235581   5.592   6.056   7.110  1.1556  1.0771 -0.4366
 3796TIP3   OH235582   3.089   3.438   8.864 -0.1508  0.5427  0.5758
 3796TIP3    H135583   3.105   3.433   8.958  0.2042  0.7770  0.5343
 3796TIP3    H235584   3.170   3.476   8.829 -0.4258  0.8152  0.2245
 3797TIP3   OH235585   7.472   3.982   8.743 -0.1162 -0.0837 -0.2414
 3797TIP3    H135586   7.534   4.055   8.734  0.6043 -0.8599 -2.2293
 3797TIP3    H235587   7.433   3.974   8.656 -3.1000  0.3903  0.9607
 3798TIP3   OH235588   3.538   5.847   9.043 -0.0592  0.4296 -0.4028
 3798TIP3    H135589   3.613   5.903   9.023 -0.1527  0.2204 -1.4316
 3798TIP3    H235590   3.465   5.908   9.056  0.2235  0.6192  0.2831
 3799TIP3   OH235591   1.028   2.693   7.388 -0.3352  0.0518  0.6131
 3799TIP3    H135592   0.992   2.732   7.468 -1.2534  0.5636 -0.0312
 3799TIP3    H235593   0.996   2.749   7.318  2.2184  0.8932  0.0245
 3800TIP3   OH235594   0.480   1.066   9.512  0.7219  0.3555 -0.0282
 3800TIP3    H135595   0.563   1.018   9.511 -0.7795 -2.3787 -0.1055
 3800TIP3    H235596   0.449   1.062   9.421 -0.2287 -0.0053  0.3011
 3801TIP3   OH235597   7.508   6.483   7.740  0.3844  0.2415 -0.3232
 3801TIP3    H135598   7.544   6.506   7.826 -2.7497  5.2311  0.1001
 3801TIP3    H235599   7.442   6.417   7.759  0.0302  0.9659  1.1080
 3802TIP3   OH235600   2.217   4.786   7.696  0.0445  0.0124 -0.1764
 3802TIP3    H135601   2.207   4.857   7.632 -1.4102  0.6059  0.6657
 3802TIP3    H235602   2.309   4.789   7.721  0.3110  0.7049 -1.1785
 3803TIP3   OH235603   5.777   5.922   6.731  0.1716 -0.1147 -0.4020
 3803TIP3    H135604   5.787   6.017   6.731  1.5304 -0.2190 -1.6356
 3803TIP3    H235605   5.792   5.897   6.822  2.8323  0.6315 -0.5485
 3804TIP3   OH235606   1.411   6.544   7.542  0.3610 -0.0818 -0.3262
 3804TIP3    H135607   1.447   6.526   7.455  0.7509 -1.8808  0.1637
 3804TIP3    H235608   1.327   6.499   7.544  1.5220 -2.4400  1.0604
 3805TIP3   OH235609   6.085   5.548   8.948 -0.8165 -0.1839  0.1108
 3805TIP3    H135610   6.019   5.531   8.881 -1.4143 -2.0787  1.0863
 3805TIP3    H235611   6.084   5.468   9.002  0.8018  0.6082  1.3778
 3806TIP3   OH235612   2.135   1.047   6.946 -0.1244 -0.1603 -0.5348
 3806TIP3    H135613   2.177   0.975   6.899  3.2763  0.3067  1.4195
 3806TIP3    H235614   2.072   1.005   7.004 -1.4402 -1.0710 -2.5342
 3807TIP3   OH235615   0.951   5.067   7.246 -0.0922 -0.6970 -0.0536
 3807TIP3    H135616   0.970   5.160   7.233 -1.2730 -0.7064 -2.4757
 3807TIP3    H235617   0.942   5.058   7.341  3.0219  0.9859  0.5465
 3808TIP3   OH235618   4.114   1.200   7.895  0.7244  0.3305  0.1123
 3808TIP3    H135619   4.138   1.108   7.907  3.5292  0.7384 -1.3993
 3808TIP3    H235620   4.042   1.198   7.832 -0.2238 -0.8325  1.1657
 3809TIP3   OH235621   1.789   0.212   7.235  0.3797  0.1327  0.0077
 3809TIP3    H135622   1.839   0.256   7.303 -0.2893  0.6356  0.1924
 3809TIP3    H235623   1.740   0.282   7.192 -1.1114 -0.4505  0.6477
 3810TIP3   OH235624   6.572   6.166   9.302 -0.1450 -0.5303 -0.5670
 3810TIP3    H135625   6.485   6.202   9.320  1.1683  2.4470  0.5063
 3810TIP3    H235626   6.624   6.242   9.275  2.0038 -2.3193 -1.8296
 3811TIP3   OH235627   4.374   4.573   9.702  0.3413  0.1369  0.0905
 3811TIP3    H135628   4.375   4.492   9.753  0.1137 -0.3887 -0.7246
 3811TIP3    H235629   4.408   4.548   9.616 -0.4800  0.7386 -0.4225
 3812TIP3   OH235630   1.792   7.093   6.778  0.0695  0.3472  0.5101
 3812TIP3    H135631   1.734   7.017   6.785 -1.2531  1.3464  0.5683
 3812TIP3    H235632   1.734   7.168   6.774  1.3694  1.4229  1.0119
 3813TIP3   OH235633   1.094   4.362   8.494  0.0416  0.0091  0.1134
 3813TIP3    H135634   1.188   4.358   8.512 -0.3298 -1.1764  2.1891
 3813TIP3    H235635   1.055   4.390   8.577 -1.5934 -1.7593  0.0149
 3814TIP3   OH235636   6.081   2.208   8.159  0.1779  0.2882  0.4833
 3814TIP3    H135637   6.163   2.188   8.205 -0.2881 -1.4490  0.6264
 3814TIP3    H235638   6.106   2.213   8.067  0.3992 -0.6284  0.4814
 3815TIP3   OH235639   7.245   1.764   7.217  0.1050  0.0584  0.4041
 3815TIP3    H135640   7.195   1.712   7.279 -2.3322  1.3785 -0.3432
 3815TIP3    H235641   7.246   1.712   7.136 -1.0527  0.4834  0.0983
 3816TIP3   OH235642   0.622   5.728   8.569 -0.2175  0.5238  0.6348
 3816TIP3    H135643   0.657   5.799   8.622  0.8130  0.2360  0.3556
 3816TIP3    H235644   0.664   5.738   8.484 -0.1398 -0.3630  0.5610
 3817TIP3   OH235645   6.814   4.659   8.628 -0.1404 -0.8107  0.3416
 3817TIP3    H135646   6.880   4.628   8.691  0.1551  0.0195  0.4585
 3817TIP3    H235647   6.733   4.618   8.655  0.1199 -0.9862  0.8630
 3818TIP3   OH235648   6.665   1.483   9.637  0.3514 -0.7095  0.3255
 3818TIP3    H135649   6.719   1.561   9.646  1.2028 -1.1132 -0.9364
 3818TIP3    H235650   6.721   1.411   9.666 -0.1965 -0.9332  0.8575
 3819TIP3   OH235651   7.290   3.872   8.922 -0.8684 -0.0582  0.8769
 3819TIP3    H135652   7.209   3.921   8.903 -0.8377  0.6683  2.4240
 3819TIP3    H235653   7.349   3.894   8.851 -1.7858  0.0022  0.1181
 3820TIP3   OH235654   0.726   3.085   7.180 -0.3911 -0.8164 -0.2856
 3820TIP3    H135655   0.632   3.083   7.162 -0.6892 -0.8197  1.1499
 3820TIP3    H235656   0.759   3.154   7.122 -1.1978 -1.1145 -1.1270
 3821TIP3   OH235657   4.592   0.557   7.421 -0.5198 -0.3966  0.3052
 3821TIP3    H135658   4.525   0.489   7.432 -1.3722  0.1705 -1.1786
 3821TIP3    H235659   4.664   0.528   7.477 -0.5406 -2.9474 -0.8461
 3822TIP3   OH235660   4.191   4.234   7.416  0.1368  0.2002  0.0906
 3822TIP3    H135661   4.177   4.268   7.328 -2.5098 -1.0934 -0.0680
 3822TIP3    H235662   4.104   4.215   7.449  1.1173 -0.1702  2.6833
 3823TIP3   OH235663   0.661   0.167   9.359  0.4782  0.4185 -0.2797
 3823TIP3    H135664   0.755   0.149   9.360  0.3052 -0.7657 -1.7923
 3823TIP3    H235665   0.620   0.082   9.368 -0.5315  1.0842  2.2714
 3824TIP3   OH235666   2.843   7.310   7.896  0.3387  0.1457 -0.0050
 3824TIP3    H135667   2.936   7.320   7.916  0.4393 -1.3697  0.3773
 3824TIP3    H235668   2.840   7.292   7.802  0.4438  0.0685  0.0063
 3825TIP3   OH235669   0.489   1.784   7.684  0.9098 -0.3656 -0.2497
 3825TIP3    H135670   0.455   1.871   7.666  0.1021 -0.5553  0.3122
 3825TIP3    H235671   0.446   1.727   7.621 -0.7085 -0.7779  1.1457
 3826TIP3   OH235672   1.035   4.329   7.287  0.1573  0.1562  0.2790
 3826TIP3    H135673   1.086   4.407   7.309 -0.2785  0.3819  0.5023
 3826TIP3    H235674   1.058   4.311   7.196  0.6009  0.2790  0.3598
 3827TIP3   OH235675   3.221   5.321   9.414  0.7407 -0.0452  0.1110
 3827TIP3    H135676   3.307   5.301   9.450  1.0507  3.0075  1.3773
 3827TIP3    H235677   3.227   5.296   9.322  2.2023 -1.8660  0.6345
 3828TIP3   OH235678   6.415   3.904   7.957 -0.0601  0.2300 -0.2547
 3828TIP3    H135679   6.341   3.943   8.003 -1.5864 -1.4140 -1.2121
 3828TIP3    H235680   6.425   3.818   7.997  0.1691 -0.2612 -1.3569
 3829TIP3   OH235681   6.113   4.384   7.593  0.1662  0.1812  0.2453
 3829TIP3    H135682   6.160   4.402   7.512  1.2453  1.9372  1.1917
 3829TIP3    H235683   6.025   4.419   7.577  0.6973  1.5658  0.1666
 3830TIP3   OH235684   2.091   5.152   7.771  0.2772 -0.7025 -0.4763
 3830TIP3    H135685   2.089   5.247   7.770 -2.2824 -0.6917 -0.7417
 3830TIP3    H235686   2.098   5.128   7.863 -0.1637 -0.2442 -0.3234
 3831TIP3   OH235687   5.706   5.355   7.988 -0.1804  0.2216  0.1582
 3831TIP3    H135688   5.670   5.415   8.054 -0.1702  0.6429 -0.2130
 3831TIP3    H235689   5.716   5.272   8.034 -0.7203  0.3574  0.5323
 3832TIP3   OH235690   4.355   2.592   8.438  0.0672 -0.3708  0.1175
 3832TIP3    H135691   4.437   2.641   8.444  1.0936 -1.7497 -1.6773
 3832TIP3    H235692   4.311   2.628   8.361 -1.8430  1.4140  1.9027
 3833TIP3   OH235693   2.655   0.275   9.122 -0.0209  0.2888 -0.6302
 3833TIP3    H135694   2.746   0.263   9.095  0.0540  0.5544 -0.4934
 3833TIP3    H235695   2.648   0.224   9.203  0.3805  1.4074  0.1176
 3834TIP3   OH235696   3.106   1.652   6.924  0.0092 -0.4950  0.2182
 3834TIP3    H135697   3.032   1.601   6.890 -0.1665 -0.0127 -0.1248
 3834TIP3    H235698   3.157   1.675   6.847  0.4611 -0.7218  0.4427
 3835TIP3   OH235699   7.409   3.821   6.678 -0.2188 -0.2125 -0.3869
 3835TIP3    H135700   7.466   3.824   6.601  2.9380  0.0084  1.7638
 3835TIP3    H235701   7.333   3.874   6.654  1.7577  1.8556 -2.5643
 3836TIP3   OH235702   2.208   5.480   7.574 -0.6146  0.1019  0.4678
 3836TIP3    H135703   2.130   5.521   7.611 -1.3409  1.1509 -1.9855
 3836TIP3    H235704   2.252   5.439   7.648 -1.3284  2.9740  2.6413
 3837TIP3   OH235705   3.175   4.655   9.437 -0.3476 -0.6872  0.3614
 3837TIP3    H135706   3.231   4.577   9.437  0.9414  0.1486 -1.9773
 3837TIP3    H235707   3.204   4.706   9.513 -0.4859 -1.9636  1.2978
 3838TIP3   OH235708   2.007   6.199   7.998  0.5245 -0.0844  0.4285
 3838TIP3    H135709   1.931   6.256   8.013  1.3378  0.7321  1.6377
 3838TIP3    H235710   2.037   6.221   7.910  0.5067  0.9765  0.6788
 3839TIP3   OH235711   1.940   4.613   9.193 -0.0519 -0.8154 -0.0552
 3839TIP3    H135712   2.009   4.564   9.148  1.2067  0.8149 -0.0149
 3839TIP3    H235713   1.976   4.631   9.280 -0.4758  0.1374 -0.0629
 3840TIP3   OH235714   0.024   5.767   7.069 -0.1000  0.0220 -0.9694
 3840TIP3    H135715   0.011   5.673   7.071  1.4866 -0.2063 -0.3264
 3840TIP3    H235716  -0.001   5.797   7.157 -0.2570  0.1673 -1.0610
 3841TIP3   OH235717   0.201   6.860   7.223  0.2757  0.1667 -0.1392
 3841TIP3    H135718   0.204   6.834   7.131  1.3395  0.9941 -0.3588
 3841TIP3    H235719   0.158   6.946   7.221 -0.5245 -0.2223  0.2406
 3842TIP3   OH235720   4.488   1.385   9.751  0.3582  0.5061 -0.0097
 3842TIP3    H135721   4.572   1.356   9.786  0.4940  0.3780 -0.4348
 3842TIP3    H235722   4.443   1.304   9.725  0.1609  0.5822  0.0973
 3843TIP3   OH235723   6.101   2.383   7.460 -0.0718 -0.0875  0.3528
 3843TIP3    H135724   6.166   2.407   7.393  0.2389  0.3637  0.8118
 3843TIP3    H235725   6.087   2.464   7.509 -1.6488  0.0658 -0.2916
 3844TIP3   OH235726   2.345   2.054   9.102  0.2061  0.3593  0.2288
 3844TIP3    H135727   2.388   2.027   9.022  0.0527 -0.3500  0.3832
 3844TIP3    H235728   2.401   2.021   9.172 -0.0796  0.2843  0.4218
 3845TIP3   OH235729   0.917   4.937   8.831  0.3230 -0.1890  0.4941
 3845TIP3    H135730   0.941   5.024   8.800  1.0629 -0.3276  0.6481
 3845TIP3    H235731   0.933   4.879   8.757 -0.8360 -0.1115  0.1648
 3846TIP3   OH235732   3.303   7.373   7.961 -0.1523 -0.1878 -0.6295
 3846TIP3    H135733   3.257   7.388   7.879  1.0858 -0.3914 -1.3944
 3846TIP3    H235734   3.396   7.375   7.937  0.3189  1.5347  1.0711
 3847TIP3   OH235735   7.113   3.042   7.681  0.3191 -0.1212  0.1757
 3847TIP3    H135736   7.046   3.000   7.627  0.9328 -1.5363  0.4525
 3847TIP3    H235737   7.066   3.101   7.738 -1.0467 -2.8772  2.1073
 3848TIP3   OH235738   0.383   6.491   7.377  0.4634 -0.6091  0.2512
 3848TIP3    H135739   0.430   6.487   7.294  0.6532  4.7958 -0.2789
 3848TIP3    H235740   0.308   6.547   7.360 -1.4274 -2.0079  3.0879
 3849TIP3   OH235741   2.333   1.883   8.453  0.5995  0.4972 -0.2685
 3849TIP3    H135742   2.270   1.952   8.475 -0.1472 -0.3049  0.1804
 3849TIP3    H235743   2.290   1.802   8.482  1.0322 -0.2544 -1.6478
 3850TIP3   OH235744   6.895   5.415   9.360 -0.3856 -0.3002  0.4505
 3850TIP3    H135745   6.958   5.482   9.334 -0.2139 -0.1080  1.3119
 3850TIP3    H235746   6.886   5.427   9.455 -2.4335  0.2954  0.2277
 3851TIP3   OH235747   4.381   2.936   9.030  0.0609 -0.1162  0.3067
 3851TIP3    H135748   4.331   2.873   8.978 -1.7197  1.3869  0.1160
 3851TIP3    H235749   4.402   2.889   9.111 -1.4269 -0.8946  0.2723
 3852TIP3   OH235750   6.630   7.222   9.275 -0.5382  0.3205  0.7583
 3852TIP3    H135751   6.578   7.182   9.344  0.7677  1.1198  2.2949
 3852TIP3    H235752   6.709   7.168   9.271 -0.8541 -0.0669 -0.5606
 3853TIP3   OH235753   6.034   0.000   7.320 -0.5132  0.0376  0.3245
 3853TIP3    H135754   6.104  -0.034   7.377 -0.1341  1.0777  0.5025
 3853TIP3    H235755   6.073   0.076   7.277 -1.3007  0.1789 -0.1604
 3854TIP3   OH235756   4.422   4.651   7.610 -0.0724 -0.3695  0.5364
 3854TIP3    H135757   4.482   4.709   7.658  0.5707 -0.7209  0.1595
 3854TIP3    H235758   4.454   4.563   7.629 -0.2183 -0.5401 -0.0072
 3855TIP3   OH235759   1.501   5.630   7.896  0.5841  0.0591  0.2159
 3855TIP3    H135760   1.492   5.613   7.990 -0.7449  1.8589  0.4702
 3855TIP3    H235761   1.590   5.601   7.875  0.8109 -0.6358  1.9565
 3856TIP3   OH235762   6.484   5.692   7.987 -0.5253  0.0494  0.5601
 3856TIP3    H135763   6.570   5.734   7.993 -0.5494  0.5359 -1.7860
 3856TIP3    H235764   6.496   5.607   8.031  1.7885 -0.7748 -1.4334
 3857TIP3   OH235765   3.141   2.176   7.353  0.5659  0.1358 -0.0746
 3857TIP3    H135766   3.213   2.239   7.365  1.2218 -0.6614  0.3337
 3857TIP3    H235767   3.086   2.215   7.285  0.9011  1.1879  0.2331
 3858TIP3   OH235768   7.408   7.432   9.359 -0.0209 -0.2075 -0.6238
 3858TIP3    H135769   7.459   7.447   9.280  0.5778  0.4516 -0.1316
 3858TIP3    H235770   7.464   7.378   9.415 -1.0878 -2.0931 -1.2757
 3859TIP3   OH235771   1.153   0.239   9.545 -0.0722 -0.6920 -0.2863
 3859TIP3    H135772   1.087   0.169   9.540 -0.5577 -0.4499  1.8470
 3859TIP3    H235773   1.237   0.193   9.543 -0.3406 -1.1653 -0.9911
 3860TIP3   OH235774   3.906   7.376   7.140 -0.1109  0.3740 -0.1604
 3860TIP3    H135775   3.963   7.432   7.194 -2.3840  2.6675  0.0313
 3860TIP3    H235776   3.913   7.290   7.180  2.6535  0.7003  0.2578
 3861TIP3   OH235777   4.403   0.592   9.025 -0.2824  0.1659 -0.1389
 3861TIP3    H135778   4.373   0.655   8.960 -1.5010 -0.4564 -0.1995
 3861TIP3    H235779   4.401   0.508   8.980  1.9672  0.1153 -0.2690
 3862TIP3   OH235780   1.393   0.330   7.968  0.2181 -0.9846  0.5250
 3862TIP3    H135781   1.432   0.365   8.047 -2.1184 -0.5144  1.5580
 3862TIP3    H235782   1.339   0.256   7.998 -1.8913  0.1133 -0.3284
 3863TIP3   OH235783   3.491   6.434   7.341 -0.1007  0.0063  0.0382
 3863TIP3    H135784   3.512   6.341   7.343  1.2142  0.2894  0.3676
 3863TIP3    H235785   3.500   6.463   7.432  0.2879  0.6079 -0.1817
 3864TIP3   OH235786   4.097   5.918   9.649  0.6889  0.0445 -0.9853
 3864TIP3    H135787   4.183   5.878   9.642 -0.2008 -2.3765  0.5751
 3864TIP3    H235788   4.064   5.889   9.734 -2.2861 -0.4340 -2.1886
 3865TIP3   OH235789   1.641   5.726   7.429 -0.1093  0.2677  0.3612
 3865TIP3    H135790   1.644   5.792   7.498 -1.3584  0.8305 -0.0873
 3865TIP3    H235791   1.632   5.777   7.348  1.4225 -0.3752 -0.2478
 3866TIP3   OH235792   4.279   1.405   9.349 -0.5942 -0.1472  0.1327
 3866TIP3    H135793   4.266   1.310   9.340  1.2382 -0.3795 -0.6651
 3866TIP3    H235794   4.246   1.426   9.436  0.3600 -1.8320  0.9582
 3867TIP3   OH235795   0.420   3.583   7.232  0.0887  0.1555  0.3923
 3867TIP3    H135796   0.409   3.496   7.268 -1.5731 -0.8137 -2.1561
 3867TIP3    H235797   0.467   3.569   7.149 -1.0765  1.5188 -0.5524
 3868TIP3   OH235798   1.680   0.504   9.408 -0.5397  0.1571 -0.4577
 3868TIP3    H135799   1.668   0.452   9.329 -0.0913 -1.1989  0.3296
 3868TIP3    H235800   1.622   0.463   9.472  1.2174 -0.6060  0.7233
 3869TIP3   OH235801   1.349   3.148   6.676  0.1841  0.1585  0.0831
 3869TIP3    H135802   1.399   3.173   6.753 -1.2309 -1.4171  1.5703
 3869TIP3    H235803   1.410   3.095   6.624  1.9035  3.0545 -1.1509
 3870TIP3   OH235804   3.766   5.713   8.050  0.4491  0.2382 -0.0487
 3870TIP3    H135805   3.681   5.755   8.060  0.1259  0.0736 -1.6822
 3870TIP3    H235806   3.814   5.734   8.130 -1.4428 -0.4544  1.3425
 3871TIP3   OH235807   2.496   5.097   7.632 -0.2765 -0.2501  0.1763
 3871TIP3    H135808   2.577   5.131   7.671 -1.3458  3.3750 -0.3632
 3871TIP3    H235809   2.485   5.011   7.671  2.2207  0.3849  2.6442
 3872TIP3   OH235810   6.765   1.011   6.726  0.0713  0.0390  0.2815
 3872TIP3    H135811   6.734   1.060   6.650  1.8544  0.1832 -0.4015
 3872TIP3    H235812   6.725   0.925   6.717  0.1413  0.1045 -0.7477
 3873TIP3   OH235813   4.654   6.491   8.447 -0.1524  0.2660 -0.2476
 3873TIP3    H135814   4.630   6.418   8.505 -0.1034  1.0395  0.7809
 3873TIP3    H235815   4.739   6.467   8.412 -0.1204 -0.1581  0.1116
 3874TIP3   OH235816   4.861   4.732   7.210  0.3765  0.3676  0.2545
 3874TIP3    H135817   4.889   4.757   7.122 -1.5562  0.4390 -0.3708
 3874TIP3    H235818   4.787   4.788   7.230 -1.9633 -2.4330  0.1505
 3875TIP3   OH235819   1.974   4.168   7.822 -0.0972 -0.1444 -0.3278
 3875TIP3    H135820   2.048   4.109   7.835  1.3656  1.6383 -0.1939
 3875TIP3    H235821   1.949   4.155   7.730 -0.0164 -1.1652 -0.2188
 3876TIP3   OH235822   4.298   7.245   7.912 -0.3859  0.7016  0.1978
 3876TIP3    H135823   4.215   7.210   7.879  0.4386  0.3150 -1.5910
 3876TIP3    H235824   4.350   7.168   7.933  0.2961  0.8798 -0.7748
 3877TIP3   OH235825   4.140   1.607   9.271  0.5148  0.2451 -0.0840
 3877TIP3    H135826   4.197   1.533   9.294 -1.0436 -1.5609 -1.6963
 3877TIP3    H235827   4.188   1.655   9.204 -1.1285 -3.6130 -4.6412
 3878TIP3   OH235828   4.429   2.691   9.249 -0.0105  0.1759  0.5939
 3878TIP3    H135829   4.373   2.631   9.200  0.6618 -0.1885  0.2560
 3878TIP3    H235830   4.395   2.687   9.338 -0.9215  0.4567  0.2720
 3879TIP3   OH235831   1.097   7.487   9.429  0.3135 -0.5956  0.3777
 3879TIP3    H135832   1.175   7.504   9.482  0.7274  1.6880 -0.8019
 3879TIP3    H235833   1.125   7.422   9.365  0.9979 -0.4417  0.5116
 3880TIP3   OH235834   0.379   3.401   8.548  0.2800  0.1128  0.6564
 3880TIP3    H135835   0.427   3.399   8.466  2.3349  0.8141  1.7809
 3880TIP3    H235836   0.402   3.319   8.592  0.4848  0.4610  1.2165
 3881TIP3   OH235837   5.659   7.163   8.714  0.5205 -0.6352  0.3609
 3881TIP3    H135838   5.686   7.101   8.647 -0.1972 -1.3944  0.7442
 3881TIP3    H235839   5.728   7.228   8.716  0.6519 -0.7079 -0.9647
 3882TIP3   OH235840   6.294   4.008   9.098  0.0810  0.2988  0.2196
 3882TIP3    H135841   6.339   4.046   9.022 -0.3672  0.4841  0.0425
 3882TIP3    H235842   6.354   3.941   9.130  0.3436  0.3240 -0.2060
 3883TIP3   OH235843   2.166   2.647   9.053  0.3823 -0.1851 -0.1769
 3883TIP3    H135844   2.257   2.619   9.050  0.2930 -1.1464  2.7114
 3883TIP3    H235845   2.156   2.688   9.139 -1.8534  0.0726 -0.4988
 3884TIP3   OH235846   1.229   0.625   7.734 -0.0215 -0.5367  0.0395
 3884TIP3    H135847   1.298   0.561   7.715  0.0937 -0.4649  0.2149
 3884TIP3    H235848   1.270   0.710   7.718  0.8684 -0.3275  2.9033
 3885TIP3   OH235849   1.712   2.765   9.260 -0.4730 -0.7542  0.4566
 3885TIP3    H135850   1.759   2.682   9.265  0.2135 -0.2978  2.1714
 3885TIP3    H235851   1.643   2.757   9.326 -0.3728  0.0480  0.6664
 3886TIP3   OH235852   0.327   1.179   7.587 -0.0159  0.1053  0.0201
 3886TIP3    H135853   0.314   1.085   7.571 -0.9524  0.2950 -0.4470
 3886TIP3    H235854   0.320   1.219   7.500 -0.5938  0.6982  0.3297
 3887TIP3   OH235855   6.195   2.539   6.668 -0.3435 -0.7047  0.1211
 3887TIP3    H135856   6.123   2.559   6.728 -0.2757 -0.1777  0.0305
 3887TIP3    H235857   6.253   2.482   6.719 -1.4015 -2.1270 -0.1928
 3888TIP3   OH235858   7.343   2.470   7.719 -0.1349 -0.5433  0.4346
 3888TIP3    H135859   7.407   2.452   7.788 -1.0864 -1.2923  1.1457
 3888TIP3    H235860   7.368   2.410   7.648  0.5217 -0.1497  0.3227
 3889TIP3   OH235861   5.381   5.675   9.178  0.3364  0.1575 -0.3100
 3889TIP3    H135862   5.391   5.647   9.087 -1.5116  0.6107 -0.6819
 3889TIP3    H235863   5.364   5.769   9.173 -0.4556  0.0645  0.4525
 3890TIP3   OH235864   5.043   2.610   8.244 -0.3991 -0.0246 -0.2671
 3890TIP3    H135865   5.089   2.653   8.316 -1.0919  0.8878 -0.3578
 3890TIP3    H235866   5.105   2.614   8.171  0.0963 -0.4779  0.1142
 3891TIP3   OH235867   2.834   1.735   8.846  0.2241  0.2498  0.3087
 3891TIP3    H135868   2.740   1.721   8.857 -0.0894  0.1282 -2.0773
 3891TIP3    H235869   2.841   1.820   8.803  1.0569 -0.5128 -1.1291
 3892TIP3   OH235870   0.615   5.550   8.080  0.4380 -0.1170 -0.1124
 3892TIP3    H135871   0.610   5.465   8.035  0.1903 -0.4963  0.6182
 3892TIP3    H235872   0.663   5.531   8.161  0.7755  0.5329 -0.1556
 3893TIP3   OH235873   5.173   1.325   8.974 -0.0738  0.3789  0.1211
 3893TIP3    H135874   5.097   1.354   8.923 -1.8347 -0.1650  2.3026
 3893TIP3    H235875   5.197   1.402   9.026 -0.3712 -0.0032  0.8375
 3894TIP3   OH235876   6.942   5.770   8.712  0.0304  0.0439  0.2856
 3894TIP3    H135877   6.882   5.737   8.779  1.0846 -1.4587  0.5253
 3894TIP3    H235878   7.018   5.713   8.718  1.9998  2.5449  0.7580
 3895TIP3   OH235879   1.267   1.026   8.860 -0.2024  0.1459 -0.0202
 3895TIP3    H135880   1.330   0.961   8.890 -0.2902  1.1070  2.5579
 3895TIP3    H235881   1.319   1.094   8.818  0.4913  0.6179  1.5132
 3896TIP3   OH235882   6.467   4.441   7.818 -0.1868 -0.1965  0.5228
 3896TIP3    H135883   6.413   4.518   7.835 -1.3385 -1.1690  1.3667
 3896TIP3    H235884   6.555   4.477   7.803 -0.8309  1.3280  0.1524
 3897TIP3   OH235885   6.541   6.534   8.412 -0.1699  0.1689  0.1213
 3897TIP3    H135886   6.581   6.499   8.492 -0.9421 -1.4454 -0.1632
 3897TIP3    H235887   6.487   6.607   8.442  1.0460  0.8226  0.8039
 3898TIP3   OH235888   3.846   3.326   7.558  0.5024  0.5131  0.0768
 3898TIP3    H135889   3.756   3.353   7.575  0.4143  0.3533 -0.1393
 3898TIP3    H235890   3.878   3.390   7.495  0.3759  0.2655 -0.2387
 3899TIP3   OH235891   5.782   5.617   9.535 -0.2043 -0.3859  0.6324
 3899TIP3    H135892   5.787   5.711   9.520 -0.5450 -0.4355  0.1597
 3899TIP3    H235893   5.764   5.607   9.628 -1.8347  0.0757  0.3963
 3900TIP3   OH235894   3.992   7.101   9.010  0.2332  0.3343  0.1031
 3900TIP3    H135895   3.956   7.025   8.965  1.6592 -0.2360 -0.1154
 3900TIP3    H235896   4.056   7.137   8.950  1.6724 -0.0342  1.3432
 3901TIP3   OH235897   0.187   0.574   9.184 -0.4046 -0.0001  0.0603
 3901TIP3    H135898   0.114   0.583   9.122 -0.6388  0.4003  0.3885
 3901TIP3    H235899   0.229   0.660   9.183  0.0597 -0.2290 -0.1223
 3902TIP3   OH235900   2.668   5.435   8.201 -0.1228 -0.6111  0.1410
 3902TIP3    H135901   2.733   5.479   8.146  0.9706 -0.3942  1.5316
 3902TIP3    H235902   2.632   5.505   8.256  0.4034 -1.1385  1.1966
 3903TIP3   OH235903   1.495   5.406   8.602 -0.3957  0.0488  0.3625
 3903TIP3    H135904   1.403   5.423   8.622 -0.7214 -1.4644  0.2661
 3903TIP3    H235905   1.494   5.379   8.510 -0.0466 -1.3118  0.7470
 3904TIP3   OH235906   1.763   3.416   6.824  0.4929 -0.6414 -0.0258
 3904TIP3    H135907   1.771   3.482   6.755 -2.6584  1.1157  1.0431
 3904TIP3    H235908   1.817   3.448   6.895  2.6775 -1.7639 -1.0755
 3905TIP3   OH235909   5.170   6.795   8.253 -0.7960 -0.2266  0.5404
 3905TIP3    H135910   5.202   6.789   8.163  0.2857  2.4803  0.6563
 3905TIP3    H235911   5.093   6.851   8.247 -1.6479 -1.2953  1.1517
 3906TIP3   OH235912   1.642   5.119   7.433 -0.1858  0.1343 -0.7075
 3906TIP3    H135913   1.726   5.164   7.421  0.5259 -1.2596 -1.3056
 3906TIP3    H235914   1.620   5.087   7.345 -1.1009  0.0708 -0.4609
 3907TIP3   OH235915   6.666   6.308   8.617  0.5998  0.3497 -0.5179
 3907TIP3    H135916   6.576   6.321   8.645  0.4563  0.1810 -0.8838
 3907TIP3    H235917   6.701   6.242   8.677  0.5023  0.4721 -0.3274
 3908TIP3   OH235918   3.512   5.459   8.902  0.0145  0.3080  0.8133
 3908TIP3    H135919   3.550   5.425   8.983 -0.9945 -0.2835  1.0477
 3908TIP3    H235920   3.418   5.457   8.917 -0.2332 -0.6461 -0.7071
 3909TIP3   OH235921   7.079   6.513   7.559  0.2426 -0.1674  0.2995
 3909TIP3    H135922   7.086   6.445   7.491  1.3886 -0.7982  1.0038
 3909TIP3    H235923   7.113   6.592   7.517  0.2320 -0.3741 -0.1062
 3910TIP3   OH235924   6.521   4.112   6.867  0.1443 -0.7105 -0.2765
 3910TIP3    H135925   6.546   4.176   6.800  2.0157 -1.4759 -0.3799
 3910TIP3    H235926   6.426   4.116   6.870  0.1404  3.6263  1.2420
 3911TIP3   OH235927   2.786   2.042   8.317 -0.7740  0.4588 -0.0658
 3911TIP3    H135928   2.707   1.997   8.285 -1.5117  1.3598  0.4160
 3911TIP3    H235929   2.836   2.061   8.238  0.4576 -2.6793 -0.1927
 3912TIP3   OH235930   1.360   3.215   9.618  0.3635 -0.4214 -0.6140
 3912TIP3    H135931   1.386   3.160   9.545 -1.8062 -0.0872 -1.6967
 3912TIP3    H235932   1.414   3.185   9.691  0.9796 -2.2791 -1.7765
 3913TIP3   OH235933   4.133   6.270   8.471  0.4923  0.0730  0.2192
 3913TIP3    H135934   4.110   6.187   8.514 -0.7912  0.2952  0.0011
 3913TIP3    H235935   4.215   6.296   8.511  0.3006 -0.7106  1.1534
 3914TIP3   OH235936   1.571   4.257   7.659 -0.0703 -0.4461  0.0601
 3914TIP3    H135937   1.605   4.297   7.580 -1.0134  0.4784  0.0879
 3914TIP3    H235938   1.476   4.269   7.653 -0.0803  1.1657  2.0668
 3915TIP3   OH235939   5.553   1.651   8.775  0.4658 -0.3844  0.4851
 3915TIP3    H135940   5.552   1.619   8.685  1.4245 -0.9186  0.6648
 3915TIP3    H235941   5.462   1.677   8.791  0.5093  0.8924 -1.0501
 3916TIP3   OH235942   1.764   1.826   8.576  0.2933  0.1536  0.1484
 3916TIP3    H135943   1.786   1.754   8.634  1.3123  1.4969  1.5056
 3916TIP3    H235944   1.841   1.838   8.522 -0.5413 -0.8941 -1.3544
 3917TIP3   OH235945   7.052   1.351   9.230  0.3748  0.4251  0.3029
 3917TIP3    H135946   7.036   1.349   9.324 -0.4349  2.9306  0.3093
 3917TIP3    H235947   6.964   1.352   9.191  0.5173  3.6560 -0.1966
 3918TIP3   OH235948   5.211   6.169   8.567 -0.0093 -0.5846  0.0714
 3918TIP3    H135949   5.160   6.221   8.505  0.2924 -0.7300 -0.3034
 3918TIP3    H235950   5.300   6.205   8.562  0.2527 -1.2600 -0.3461
 3919TIP3   OH235951   5.590   7.068   9.252  0.2021 -0.1512  0.6486
 3919TIP3    H135952   5.597   6.974   9.235 -1.7028 -0.5034  1.5163
 3919TIP3    H235953   5.658   7.085   9.318  1.4229 -0.6246 -0.4475
 3920TIP3   OH235954   6.621   3.601   7.948  0.6223 -0.0978 -0.3908
 3920TIP3    H135955   6.701   3.653   7.956  0.1467  0.4479  1.5042
 3920TIP3    H235956   6.569   3.626   8.025 -0.6552 -1.6518 -0.6952
 3921TIP3   OH235957   6.561   1.312   8.668 -0.8236  0.2401 -0.4201
 3921TIP3    H135958   6.566   1.346   8.757  0.2085 -0.4773 -0.1927
 3921TIP3    H235959   6.487   1.359   8.629 -0.7703  1.1705  0.5478
 3922TIP3   OH235960   5.420   6.618   7.460  0.4463 -0.0790  0.7202
 3922TIP3    H135961   5.350   6.645   7.400  1.1032 -0.0154 -0.0276
 3922TIP3    H235962   5.421   6.522   7.453  1.3608 -0.0011 -0.3394
 3923TIP3   OH235963   5.041   6.357   7.472 -0.1674 -0.6899 -0.2259
 3923TIP3    H135964   5.104   6.423   7.500 -0.3015 -0.7607  0.2491
 3923TIP3    H235965   5.088   6.303   7.409 -0.1544  0.0546 -0.8619
 3924TIP3   OH235966   2.626   2.627   8.388 -0.2520 -0.0575  0.6178
 3924TIP3    H135967   2.634   2.643   8.294 -0.2127 -1.9781  0.2602
 3924TIP3    H235968   2.715   2.606   8.417 -0.6374 -2.0122  0.5321
 3925TIP3   OH235969   5.043   4.479   8.668 -0.6189  0.1332 -0.3045
 3925TIP3    H135970   5.049   4.521   8.582  0.2245 -1.8773 -1.2892
 3925TIP3    H235971   5.105   4.406   8.663 -0.4010  0.0754  2.0981
 3926TIP3   OH235972   0.575   0.973   7.872  0.0343  0.4603 -0.2481
 3926TIP3    H135973   0.579   1.001   7.963  0.8900 -1.5603  0.4030
 3926TIP3    H235974   0.664   0.945   7.851 -0.4020 -0.1885 -1.3329
 3927TIP3   OH235975   4.881   5.316   7.967 -0.5847 -0.2802 -0.7759
 3927TIP3    H135976   4.817   5.245   7.967  0.4529 -1.2632  0.8595
 3927TIP3    H235977   4.875   5.354   8.055  1.0156 -0.3401 -0.6170
 3928TIP3   OH235978   0.145   2.394   7.593  0.0358 -0.1103  0.0691
 3928TIP3    H135979   0.097   2.316   7.622 -0.6150  0.4898  0.6266
 3928TIP3    H235980   0.232   2.361   7.572 -0.3210 -1.0486 -0.0100
 3929TIP3   OH235981   0.164   0.015   8.691  0.1155  0.3420  0.0667
 3929TIP3    H135982   0.205   0.098   8.668 -0.8145  0.7471 -0.1770
 3929TIP3    H235983   0.227  -0.051   8.665  0.1322  0.8926 -1.3678
 3930TIP3   OH235984   0.135   0.429   8.774 -0.1034  0.0485  0.0122
 3930TIP3    H135985   0.184   0.509   8.756 -1.2175  0.8858  0.5276
 3930TIP3    H235986   0.175   0.394   8.854  0.7925 -0.2670 -0.5594
 3931TIP3   OH235987   2.915   2.437   8.077 -0.6305  0.5752 -0.3579
 3931TIP3    H135988   2.944   2.463   7.989  0.4314  1.1721  0.1474
 3931TIP3    H235989   2.843   2.496   8.097  1.1168  2.6150  0.3761
 3932TIP3   OH235990   1.926   3.934   8.474  0.4070 -0.5059 -0.1029
 3932TIP3    H135991   1.861   3.865   8.460 -0.2817 -0.6841  3.0900
 3932TIP3    H235992   2.010   3.889   8.468  0.0364 -1.2492  0.1676
 3933TIP3   OH235993   2.790   3.879   7.302 -0.2930  0.1674  0.0199
 3933TIP3    H135994   2.845   3.827   7.360 -0.3518 -2.5685 -2.1487
 3933TIP3    H235995   2.700   3.863   7.333 -0.1770  1.1619  0.9340
 3934TIP3   OH235996   2.561   7.271   7.990  0.3626 -0.0044 -0.5626
 3934TIP3    H135997   2.541   7.183   7.959  1.7104 -0.6470  0.2889
 3934TIP3    H235998   2.647   7.290   7.953  0.2747  0.7751 -0.3746
 3935TIP3   OH235999   5.646   5.351   8.341  0.1529  0.2580 -0.1866
 3935TIP3    H136000   5.610   5.265   8.323 -1.8482  1.1794 -0.8496
 3935TIP3    H236001   5.609   5.408   8.274  0.5320  1.8584  0.8828
 3936TIP3   OH236002   6.469   1.559   8.170 -0.2632 -0.2053  0.2564
 3936TIP3    H136003   6.406   1.627   8.147 -1.6621 -2.0387 -1.7786
 3936TIP3    H236004   6.538   1.568   8.104  0.1709  0.0083  0.7381
 3937TIP3   OH236005   3.817   6.193   9.204  0.1600 -0.6736  1.2289
 3937TIP3    H136006   3.884   6.131   9.233  0.7912 -0.5881 -0.0097
 3937TIP3    H236007   3.782   6.157   9.123  1.4944  1.2124 -0.2747
 3938TIP3   OH236008   6.789   5.073   9.366  0.3740 -0.0554 -0.7106
 3938TIP3    H136009   6.826   5.154   9.401  1.3932 -0.9473  0.3940
 3938TIP3    H236010   6.760   5.095   9.278 -2.0747  2.2611  0.5194
 3939TIP3   OH236011   3.147   1.710   7.186  0.1154 -0.0171 -0.4349
 3939TIP3    H136012   3.133   1.700   7.092 -2.6798 -0.3286 -0.0690
 3939TIP3    H236013   3.077   1.770   7.214  1.7813  1.2487  1.2435
 3940TIP3   OH236014   3.299   1.776   9.253  0.3172  0.2876 -0.2983
 3940TIP3    H136015   3.293   1.753   9.160  2.9315  1.9804 -1.0046
 3940TIP3    H236016   3.341   1.700   9.293  0.3466  0.0553 -0.7584
 3941TIP3   OH236017   7.422   0.946   8.166 -0.0426  0.2908 -0.0141
 3941TIP3    H136018   7.503   0.916   8.206 -0.4830 -0.9240  0.0255
 3941TIP3    H236019   7.356   0.933   8.234 -0.6007 -0.7073 -0.7102
 3942TIP3   OH236020   2.260   6.268   6.957  0.0812  0.3074 -0.1486
 3942TIP3    H136021   2.222   6.251   6.870 -1.9205 -0.7350  0.8781
 3942TIP3    H236022   2.271   6.364   6.959 -0.5026  0.4231 -1.2747
 3943TIP3   OH236023   4.408   5.018   9.337  0.2310  0.3049  0.2690
 3943TIP3    H136024   4.377   4.967   9.413  0.3642  0.3759  0.3720
 3943TIP3    H236025   4.501   5.032   9.355  0.8130 -1.6298 -1.0052
 3944TIP3   OH236026   6.428   5.247   7.788  0.0616 -0.3517 -0.2194
 3944TIP3    H136027   6.333   5.254   7.780 -0.0062 -2.2655 -1.7878
 3944TIP3    H236028   6.461   5.272   7.701  0.7475 -2.4591 -0.6197
 3945TIP3   OH236029   5.345   2.281   8.280  0.3765 -0.2441 -0.3387
 3945TIP3    H136030   5.322   2.238   8.363 -0.8132  1.0458  0.0505
 3945TIP3    H236031   5.440   2.284   8.280  0.4628 -1.9534  0.0794
 3946TIP3   OH236032   5.040   5.103   9.519  0.2521 -0.2390 -0.1872
 3946TIP3    H136033   5.000   5.034   9.572  2.1184 -1.0899  0.1631
 3946TIP3    H236034   4.965   5.150   9.482 -1.0818 -2.2379 -0.1904
 3947TIP3   OH236035   1.968   1.569   7.322 -0.3883  0.1196  0.5547
 3947TIP3    H136036   1.877   1.539   7.332  0.1511 -1.8976 -0.1895
 3947TIP3    H236037   1.964   1.633   7.251 -1.0920 -0.7703 -0.2474
 3948TIP3   OH236038   3.027   6.966   9.315 -0.2372 -0.7274 -0.5384
 3948TIP3    H136039   2.945   6.964   9.364  0.2416 -1.0907  0.2549
 3948TIP3    H236040   3.016   6.899   9.247  0.0543 -2.0295  0.6480
 3949TIP3   OH236041   1.594   5.217   8.773 -0.1106  0.3406  0.6744
 3949TIP3    H136042   1.554   5.289   8.725  2.0198  1.2505  0.1616
 3949TIP3    H236043   1.603   5.147   8.707  0.2960  0.6032  0.4434
 3950TIP3   OH236044   5.037   1.043   7.446 -0.2748  0.2961  0.2439
 3950TIP3    H136045   5.089   1.111   7.404 -0.8258  0.8971  0.5053
 3950TIP3    H236046   5.099   0.997   7.503  0.1897  0.3163 -0.2443
 3951TIP3   OH236047   5.529   1.987   8.459 -0.3244 -0.0863 -0.2812
 3951TIP3    H136048   5.447   1.960   8.417 -0.1002 -0.4305 -0.5025
 3951TIP3    H236049   5.587   1.912   8.449 -0.1387 -0.0295  0.3118
 3952TIP3   OH236050   6.811   0.549   7.232 -0.1335 -0.4566 -0.0662
 3952TIP3    H136051   6.812   0.605   7.154 -1.8485  1.3216  1.1141
 3952TIP3    H236052   6.859   0.599   7.298  1.1513 -1.8731  0.1297
 3953TIP3   OH236053   1.204   0.226   8.373 -0.2388  0.1358  0.3579
 3953TIP3    H136054   1.136   0.291   8.359 -0.1262  0.0095 -0.9502
 3953TIP3    H236055   1.156   0.143   8.383 -0.3234  0.1688  0.2381
 3954TIP3   OH236056   5.733   3.360   8.324  0.0141  0.4934  0.8770
 3954TIP3    H136057   5.674   3.404   8.385  0.9915  1.2592  1.2918
 3954TIP3    H236058   5.800   3.425   8.304  0.2244 -0.0505 -0.3069
 3955TIP3   OH236059   1.888   3.453   8.019  0.5158  0.1614 -0.1528
 3955TIP3    H136060   1.890   3.544   7.987 -0.4956 -0.0651 -0.8771
 3955TIP3    H236061   1.912   3.400   7.943 -1.8692 -0.3781 -0.5922
 3956TIP3   OH236062   3.129   5.086   8.869  0.0760 -0.2452  0.5809
 3956TIP3    H136063   3.151   5.144   8.942  1.6446  0.9978 -0.8211
 3956TIP3    H236064   3.195   5.017   8.872 -1.1833 -1.4866  1.6198
 3957TIP3   OH236065   0.445   6.876   7.345 -0.3681 -0.2537  0.0257
 3957TIP3    H136066   0.351   6.868   7.328 -1.1147 -1.9649  3.8469
 3957TIP3    H236067   0.455   6.963   7.384 -0.3117 -0.0186 -0.5025
 3958TIP3   OH236068   3.446   4.565   8.988  0.1035  0.1391 -0.2438
 3958TIP3    H136069   3.463   4.471   8.988  1.0427  0.2999 -0.7112
 3958TIP3    H236070   3.526   4.605   9.022 -0.2659  0.7754 -0.1044
 3959TIP3   OH236071   2.105   2.639   6.726 -0.3830  0.1776  0.2920
 3959TIP3    H136072   2.013   2.616   6.716 -0.1695 -0.0181 -1.6256
 3959TIP3    H236073   2.105   2.729   6.757 -1.2491  0.6214 -0.9393
 3960TIP3   OH236074   3.294   6.880   7.176 -0.5024  0.6422  0.2757
 3960TIP3    H136075   3.384   6.898   7.148 -0.8157  1.6044 -0.1627
 3960TIP3    H236076   3.245   6.869   7.094 -0.2042 -3.4342  0.4131
 3961TIP3   OH236077   3.727   4.371   8.285  0.4328  0.1883 -0.3069
 3961TIP3    H136078   3.803   4.410   8.242  0.1527 -1.2000 -2.1862
 3961TIP3    H236079   3.746   4.379   8.379  1.9132  1.7263 -0.6907
 3962TIP3   OH236080   5.531   0.748   8.291  0.2554  0.2164  0.1097
 3962TIP3    H136081   5.473   0.810   8.247  0.9626  0.4860 -0.4652
 3962TIP3    H236082   5.482   0.719   8.368 -0.0605  1.5497  0.4373
 3963TIP3   OH236083   1.984   0.417   8.514  0.4684  0.1259  0.1776
 3963TIP3    H136084   2.054   0.475   8.543  0.3983  0.0580  0.4866
 3963TIP3    H236085   1.942   0.388   8.595  1.1992 -1.2442  0.0891
 3964TIP3   OH236086   6.792   3.378   8.369  0.0362 -0.6687  0.3004
 3964TIP3    H136087   6.835   3.323   8.435  0.0399  0.5663  1.3710
 3964TIP3    H236088   6.847   3.456   8.363 -0.1493 -0.6136 -0.9372
 3965TIP3   OH236089   0.682   1.968   8.711  0.1708 -0.3655 -0.4537
 3965TIP3    H136090   0.679   2.061   8.731  0.5384 -0.4292 -0.0947
 3965TIP3    H236091   0.646   1.925   8.789 -1.3058 -0.4645 -1.1463
 3966TIP3   OH236092   2.659   5.698   8.761  0.1632 -0.0224 -0.2542
 3966TIP3    H136093   2.596   5.646   8.711  0.7935  0.7857 -1.9732
 3966TIP3    H236094   2.632   5.688   8.852 -1.4140 -1.0556 -0.7999
 3967TIP3   OH236095   4.305   4.125   8.269 -0.2421 -0.3917  0.0317
 3967TIP3    H136096   4.266   4.194   8.216  0.6672 -0.5981 -0.9355
 3967TIP3    H236097   4.244   4.051   8.260 -0.5138 -0.1611 -0.0429
 3968TIP3   OH236098   2.382   3.760   7.134 -0.6464 -0.1777  0.6009
 3968TIP3    H136099   2.453   3.708   7.096 -0.1164  0.1364  1.1526
 3968TIP3    H236100   2.419   3.799   7.213 -2.5000 -3.0130  3.0747
 3969TIP3   OH236101   2.791   3.557   8.551 -0.3432  0.0229 -0.0920
 3969TIP3    H136102   2.814   3.584   8.640 -0.9732  0.4585 -0.0492
 3969TIP3    H236103   2.873   3.525   8.513 -0.3318 -1.4984  1.1019
 3970TIP3   OH236104   2.940   7.314   9.136  0.4012 -0.1409  0.1329
 3970TIP3    H136105   2.877   7.335   9.067  1.1520  1.1872 -0.1781
 3970TIP3    H236106   2.887   7.283   9.209 -0.5709  0.4685 -0.3053
 3971TIP3   OH236107   0.740   6.289   9.037  0.4284 -0.0138  0.4125
 3971TIP3    H136108   0.802   6.239   9.089  0.2297  0.5315  1.1873
 3971TIP3    H236109   0.754   6.259   8.947  1.6979 -0.0104  0.5921
 3972TIP3   OH236110   3.427   0.591   6.619 -0.1080 -0.0876  0.2203
 3972TIP3    H136111   3.446   0.513   6.567  2.0656  0.3658  0.2027
 3972TIP3    H236112   3.501   0.650   6.601 -1.0235  1.4445  1.2251
 3973TIP3   OH236113   1.224   7.384   8.358 -0.3714 -0.4760 -0.5133
 3973TIP3    H136114   1.170   7.463   8.355 -0.1096 -0.3272 -2.0606
 3973TIP3    H236115   1.289   7.397   8.289 -0.3203 -2.0255 -0.7977
 3974TIP3   OH236116   0.207   1.163   8.766  0.0111  0.2073  0.3067
 3974TIP3    H136117   0.167   1.186   8.850  0.7124 -0.5554  0.8643
 3974TIP3    H236118   0.179   1.233   8.706 -0.4771  0.7731  1.1746
 3975TIP3   OH236119   7.308   0.613   7.733 -0.0291 -0.2187 -0.1111
 3975TIP3    H136120   7.223   0.651   7.757 -0.4655 -0.4190 -1.3031
 3975TIP3    H236121   7.372   0.674   7.769 -0.7042  0.8759 -0.7228
 3976TIP3   OH236122   1.510   6.258   7.016  0.3695  0.0244  0.1518
 3976TIP3    H136123   1.549   6.337   7.054  1.2987 -0.7092  0.7742
 3976TIP3    H236124   1.548   6.186   7.066  1.2874 -0.9684 -1.8582
 3977TIP3   OH236125   5.814   6.898   7.461  0.1171 -0.3106 -0.3359
 3977TIP3    H136126   5.810   6.805   7.484 -0.3837  0.1638  1.7871
 3977TIP3    H236127   5.907   6.919   7.462  0.1401 -0.2456  1.9478
 3978TIP3   OH236128   3.320   1.754   7.915  0.2434  0.3149 -0.4284
 3978TIP3    H136129   3.372   1.822   7.959  1.3538  0.4191 -1.8142
 3978TIP3    H236130   3.276   1.708   7.986  0.9918  1.2607  0.6918
 3979TIP3   OH236131   1.363   1.463   7.103  0.2524 -0.2619  0.3649
 3979TIP3    H136132   1.283   1.467   7.051  0.5870 -0.4843 -0.1753
 3979TIP3    H236133   1.383   1.370   7.109  1.9177 -0.1229 -1.7887
 3980TIP3   OH236134   0.838   1.220   7.272  0.0756 -0.7699  0.1148
 3980TIP3    H136135   0.830   1.207   7.367 -0.5185 -0.7942  0.0639
 3980TIP3    H236136   0.861   1.312   7.262  0.0179 -0.7372  0.2764
 3981TIP3   OH236137   4.120   2.200   8.831 -0.4024 -0.4911 -0.3902
 3981TIP3    H136138   4.168   2.240   8.902  0.5899 -0.2668 -1.1599
 3981TIP3    H236139   4.188   2.164   8.773 -0.9357  2.1409 -2.9066
 3982TIP3   OH236140   1.078   4.255   9.436  0.3825 -0.2728 -0.4509
 3982TIP3    H136141   1.145   4.313   9.474  0.2576 -0.3410 -0.1290
 3982TIP3    H236142   1.120   4.169   9.433 -0.8241 -1.1819  3.0943
 3983TIP3   OH236143   2.509   6.983   9.728 -0.3496  0.3929 -0.3325
 3983TIP3    H136144   2.477   7.069   9.700  0.2796  0.3125 -1.3526
 3983TIP3    H236145   2.604   6.991   9.726 -0.2760 -0.4990 -1.0415
 3984TIP3   OH236146   3.075   7.064   9.649 -0.0312  0.0531 -0.0984
 3984TIP3    H136147   3.086   7.139   9.590  0.7814 -0.4879 -0.6451
 3984TIP3    H236148   3.126   6.994   9.609 -1.7748 -1.1897 -0.2688
 3985TIP3   OH236149   0.730   3.594   6.892 -0.5740 -0.0946  0.4764
 3985TIP3    H136150   0.725   3.686   6.865 -2.0747 -0.1248  0.5862
 3985TIP3    H236151   0.712   3.545   6.812 -1.6175 -0.2514  0.8010
 3986TIP3   OH236152   3.421   4.577   7.662 -0.0898 -0.4860  0.1517
 3986TIP3    H136153   3.455   4.604   7.577  1.3891 -1.3349  0.4272
 3986TIP3    H236154   3.437   4.483   7.665  0.5595 -0.3582  1.6269
 3987TIP3   OH236155   7.407   6.879   7.363  0.6123  0.1794 -0.0456
 3987TIP3    H136156   7.426   6.858   7.271  0.6923 -1.3552  0.2998
 3987TIP3    H236157   7.383   6.795   7.402 -1.3464  1.1289  0.8945
 3988TIP3   OH236158   2.568   6.290   7.649  0.0885 -0.1811  0.6968
 3988TIP3    H136159   2.558   6.250   7.562  0.9285  1.3568 -0.1556
 3988TIP3    H236160   2.565   6.216   7.710  0.5219 -1.4273 -0.7280
 3989TIP3   OH236161   5.370   0.526   8.857 -0.2438  0.3752 -0.3839
 3989TIP3    H136162   5.281   0.498   8.879 -0.2010  1.0959  0.7553
 3989TIP3    H236163   5.424   0.449   8.873 -0.6558 -0.0769 -1.1124
 3990TIP3   OH236164   5.504   2.638   8.139  0.5239  0.2982 -0.1897
 3990TIP3    H136165   5.569   2.645   8.069  0.8735  2.0504  0.2528
 3990TIP3    H236166   5.478   2.729   8.155  0.8384  0.0006  2.2928
 3991TIP3   OH236167   6.251   7.524   8.491 -0.9605  0.1748 -0.3211
 3991TIP3    H136168   6.318   7.578   8.533 -3.0155  1.7247  1.1333
 3991TIP3    H236169   6.240   7.449   8.550 -0.4973 -0.1251 -0.6036
 3992TIP3   OH236170   4.757   2.839   9.712  0.0482  0.0887  0.2394
 3992TIP3    H136171   4.777   2.867   9.801  1.9268 -0.9100  0.1695
 3992TIP3    H236172   4.706   2.912   9.675  0.5587  1.1881  1.6177
 3993TIP3   OH236173   0.567   7.033   7.677 -0.3765 -0.1813 -0.1101
 3993TIP3    H136174   0.528   7.058   7.760 -3.1189 -4.2778  0.1620
 3993TIP3    H236175   0.620   6.956   7.698  0.1590 -0.3590 -1.9295
 3994TIP3   OH236176   4.315   5.605   9.516  0.4888 -0.1888 -0.0845
 3994TIP3    H136177   4.360   5.686   9.542  1.4159 -1.0085  0.9604
 3994TIP3    H236178   4.353   5.582   9.431  0.8757 -0.0100  0.0377
 3995TIP3   OH236179   5.436   4.141   8.265 -0.4549  0.4655 -0.3764
 3995TIP3    H136180   5.525   4.141   8.229 -0.1320  0.2143  0.3906
 3995TIP3    H236181   5.405   4.230   8.254 -0.4376  0.3563 -1.4310
 3996TIP3   OH236182   5.814   7.302   7.495  0.1286  0.3762 -0.7345
 3996TIP3    H136183   5.909   7.289   7.496  0.1468  0.2874  1.5940
 3996TIP3    H236184   5.779   7.228   7.545 -1.0525  1.0404 -0.5335
 3997TIP3   OH236185   3.060   4.448   7.419 -0.2803 -0.3462  0.1513
 3997TIP3    H136186   3.038   4.371   7.472 -1.6168 -0.8793 -1.1061
 3997TIP3    H236187   3.153   4.438   7.399 -0.1859 -1.0677  0.8757
 3998TIP3   OH236188   4.500   1.104   9.747 -0.9675  0.3350 -0.2541
 3998TIP3    H136189   4.538   1.111   9.834 -0.8880  1.3571 -0.3583
 3998TIP3    H236190   4.559   1.044   9.700 -0.9492 -0.1293  0.3563
 3999TIP3   OH236191   3.332   4.952   9.330 -0.1076  0.4406  0.2269
 3999TIP3    H136192   3.325   4.862   9.362  0.1173 -0.9271 -3.1621
 3999TIP3    H236193   3.243   4.975   9.305  0.0182  0.7013  0.0179
 4000TIP3   OH236194   7.265   0.145   8.349  0.3605  0.0016  0.3559
 4000TIP3    H136195   7.282   0.204   8.276  0.4337  1.2206  1.3241
 4000TIP3    H236196   7.188   0.182   8.393 -0.3726 -1.3542  0.2550
 4001TIP3   OH236197   0.940   0.323   9.191 -0.5925 -0.2853  0.1765
 4001TIP3    H136198   1.008   0.368   9.242 -0.8201 -0.3522  0.5372
 4001TIP3    H236199   0.935   0.235   9.229  2.1964 -1.8784 -2.5631
 4002TIP3   OH236200   1.981   5.365   7.414  0.2236 -0.3281  0.1432
 4002TIP3    H136201   1.936   5.420   7.478  0.9301  0.1137  0.2828
 4002TIP3    H236202   2.074   5.386   7.426  0.3468  0.1238 -1.3474
 4003TIP3   OH236203   5.615   5.992   8.370 -0.1721  0.0390 -0.3386
 4003TIP3    H136204   5.527   6.012   8.401  0.0138  0.9336 -0.3508
 4003TIP3    H236205   5.628   6.050   8.295  0.2296 -0.4633 -0.6591
 4004TIP3   OH236206   4.691   7.093   7.151 -0.4560  0.0241 -0.2206
 4004TIP3    H136207   4.742   7.173   7.162 -1.2146  0.1668  3.6086
 4004TIP3    H236208   4.730   7.031   7.213 -0.4547 -2.3922 -2.4426
 4005TIP3   OH236209   2.469   6.314   8.642  0.1743  0.0929 -0.5044
 4005TIP3    H136210   2.487   6.275   8.728 -0.7348  0.9084  0.0752
 4005TIP3    H236211   2.441   6.403   8.662  0.6201  0.5197 -1.7061
 4006TIP3   OH236212   1.800   2.947   7.294  0.1660  0.7863 -0.0628
 4006TIP3    H136213   1.741   2.872   7.282  0.1138  0.8409 -0.1452
 4006TIP3    H236214   1.807   2.986   7.207  2.2069 -0.6290 -0.6038
 4007TIP3   OH236215   7.201   1.468   8.206  0.0451  0.2354 -0.0775
 4007TIP3    H136216   7.240   1.383   8.227 -1.0042 -0.4342 -0.7664
 4007TIP3    H236217   7.107   1.455   8.217 -0.2682  0.8151 -1.8216
 4008TIP3   OH236218   1.276   6.233   8.867 -0.2332 -0.4295  0.1927
 4008TIP3    H136219   1.219   6.279   8.929 -2.6722 -3.3702  0.3804
 4008TIP3    H236220   1.363   6.237   8.906  0.0280  4.6494 -0.3035
 4009TIP3   OH236221   3.485   3.035   8.454  0.3267  0.5082  0.0525
 4009TIP3    H136222   3.441   2.980   8.519 -1.9735  1.4103 -0.6515
 4009TIP3    H236223   3.488   2.981   8.375 -1.8707  1.2727 -0.6188
 4010TIP3   OH236224   4.913   5.468   7.318 -0.2518 -0.4610 -0.3004
 4010TIP3    H136225   5.004   5.495   7.304 -0.0306 -0.8063  0.4192
 4010TIP3    H236226   4.872   5.475   7.232  0.3328  0.1614 -0.5377
 4011TIP3   OH236227   7.244   0.617   9.144 -0.3271  0.0684 -0.0120
 4011TIP3    H136228   7.151   0.614   9.122 -0.5199  1.8638  0.3936
 4011TIP3    H236229   7.249   0.585   9.234 -0.5709  0.0436 -0.0068
 4012TIP3   OH236230   1.917   1.159   6.780 -0.5253 -0.0307  0.5010
 4012TIP3    H136231   1.850   1.173   6.714 -0.6624 -1.6908  0.2562
 4012TIP3    H236232   1.960   1.077   6.755  0.7234  0.3100  1.3870
 4013TIP3   OH236233   7.240   3.822   8.563 -0.1731 -0.2565 -0.5057
 4013TIP3    H136234   7.249   3.727   8.572  0.5887 -0.0361  1.8803
 4013TIP3    H236235   7.317   3.848   8.512  1.7945 -0.6253  2.0316
 4014TIP3   OH236236   5.525   0.408   9.188 -0.0123 -0.2578  0.4028
 4014TIP3    H136237   5.600   0.397   9.247 -1.9653 -0.3969  3.0677
 4014TIP3    H236238   5.542   0.349   9.115  3.0428  0.6776  0.2169
 4015TIP3   OH236239   7.095   1.446   7.479 -0.4386  0.2774  0.3963
 4015TIP3    H136240   7.170   1.400   7.516  0.3559 -0.0831 -1.5297
 4015TIP3    H236241   7.036   1.377   7.450 -0.4157  0.4997 -0.2068
 4016TIP3   OH236242   2.916   0.476   7.580 -0.1089  0.1440 -0.4948
 4016TIP3    H136243   2.895   0.393   7.623  0.0022  0.7640  0.8088
 4016TIP3    H236244   2.951   0.532   7.650 -0.8065  1.5198 -1.1877
 4017TIP3   OH236245   7.090   2.304   7.015  0.4027  0.4534  0.6196
 4017TIP3    H136246   7.112   2.396   7.003  1.4070  0.3883  1.7457
 4017TIP3    H236247   7.030   2.303   7.090 -0.2707  0.2561  0.0888
 4018TIP3   OH236248   3.587   6.864   7.183  0.2024 -0.0958 -0.1128
 4018TIP3    H136249   3.576   6.844   7.090 -0.1518 -0.5343  0.0177
 4018TIP3    H236250   3.632   6.787   7.218 -1.1248 -0.6739  0.3925
 4019TIP3   OH236251   0.689   1.301   9.029 -0.3234 -0.3144 -0.3954
 4019TIP3    H136252   0.749   1.249   9.082  1.0085 -0.3668 -1.8649
 4019TIP3    H236253   0.629   1.340   9.092  0.4350 -1.3143  1.0138
 4020TIP3   OH236254   6.360   5.836   9.706  0.5440  0.9824  0.5338
 4020TIP3    H136255   6.409   5.900   9.757 -0.0942  0.6265  1.6384
 4020TIP3    H236256   6.279   5.823   9.756 -0.8471  1.7858 -1.3598
 4021TIP3   OH236257   1.116   4.843   8.439  0.4464  0.0542  0.3151
 4021TIP3    H136258   1.084   4.896   8.366  0.9405 -0.7350 -0.4983
 4021TIP3    H236259   1.210   4.858   8.441  0.3612  0.5321  1.1888
 4022TIP3   OH236260   0.161   1.456   6.464  0.1796  0.3384  0.0097
 4022TIP3    H136261   0.187   1.419   6.379 -1.3599  1.2242 -0.8876
 4022TIP3    H236262   0.196   1.545   6.463 -0.6065  0.6536 -0.0922
 4023TIP3   OH236263   1.459   4.877   7.260 -0.3171 -0.3755 -0.2382
 4023TIP3    H136264   1.457   4.970   7.236 -0.6402  0.1760  1.6876
 4023TIP3    H236265   1.420   4.831   7.186 -1.7888  1.2172 -0.5137
 4024TIP3   OH236266   0.336   4.463   8.649  0.7383 -0.2620  0.2296
 4024TIP3    H136267   0.273   4.412   8.599  0.1918 -0.4440  1.0767
 4024TIP3    H236268   0.422   4.429   8.623  0.3737 -2.2935  1.4670
 4025TIP3   OH236269   6.854   1.186   7.655 -0.6921 -0.2472  0.6682
 4025TIP3    H136270   6.829   1.096   7.634 -1.5805  0.2022 -0.2662
 4025TIP3    H236271   6.929   1.176   7.714 -1.3969 -1.6023  1.3879
 4026TIP3   OH236272   4.921   3.233   9.868 -0.5556  0.5855 -0.1511
 4026TIP3    H136273   5.012   3.250   9.845 -0.8419  1.5500 -0.6212
 4026TIP3    H236274   4.876   3.315   9.851 -1.9406 -0.4777 -2.1274
 4027TIP3   OH236275   0.016   4.472   6.680 -0.0121  0.1321  0.4723
 4027TIP3    H136276   0.094   4.416   6.678  0.8431  1.2960  0.5891
 4027TIP3    H236277   0.041   4.548   6.733  0.4090  2.7827 -3.1321
 4028TIP3   OH236278   2.846   1.780   7.966  0.1811 -0.0109  0.0853
 4028TIP3    H136279   2.890   1.827   8.037 -2.0223  0.2807  1.3662
 4028TIP3    H236280   2.856   1.836   7.890  0.7841  0.7054  0.6720
 4029TIP3   OH236281   3.322   3.736   8.551  0.3651 -0.4533 -0.7907
 4029TIP3    H136282   3.240   3.772   8.584  1.0221  0.5492 -0.2180
 4029TIP3    H236283   3.318   3.749   8.456  0.6392  1.3053 -0.5961
 4030TIP3   OH236284   2.616   0.616   8.869 -0.3918  0.6162  0.0266
 4030TIP3    H136285   2.532   0.620   8.824  0.8054 -0.0931 -2.4212
 4030TIP3    H236286   2.657   0.701   8.850  0.7813 -0.2818 -1.7011
 4031TIP3   OH236287   3.453   1.107   9.327 -0.5467  0.1166  0.0929
 4031TIP3    H136288   3.493   1.089   9.242  0.1795 -1.8963  0.7852
 4031TIP3    H236289   3.366   1.142   9.305 -1.3356 -2.5361 -1.5728
 4032TIP3   OH236290   5.677   2.787   8.767  0.2385  0.1338  0.0287
 4032TIP3    H136291   5.767   2.768   8.740  0.2574 -0.9090  0.7839
 4032TIP3    H236292   5.627   2.709   8.742 -0.5808  0.9027 -0.8565
 4033TIP3   OH236293   3.730   3.156   8.304  0.1005 -0.7725  0.1416
 4033TIP3    H136294   3.700   3.066   8.294 -0.3225 -0.6900  0.6602
 4033TIP3    H236295   3.650   3.209   8.306  0.3695 -0.0794 -2.7192
 4034TIP3   OH236296   7.499   5.444   8.738 -0.5039  0.8645 -0.0543
 4034TIP3    H136297   7.519   5.444   8.645  0.0375  2.2865  0.0206
 4034TIP3    H236298   7.580   5.474   8.780 -0.2931 -1.0532  1.0131
 4035TIP3   OH236299   5.831   4.721   8.386 -0.3360  0.1339  0.8491
 4035TIP3    H136300   5.878   4.638   8.379 -0.6511  0.0886 -2.1075
 4035TIP3    H236301   5.748   4.698   8.426 -0.8865 -1.2669 -0.9552
 4036TIP3   OH236302   4.383   1.069   7.938  0.5177 -0.3405  0.3695
 4036TIP3    H136303   4.326   1.139   7.972  2.0015  0.0996  2.1048
 4036TIP3    H236304   4.353   0.990   7.985 -0.1083 -0.5896 -0.4133
 4037TIP3   OH236305   7.168   6.794   8.040 -0.3697 -0.4459  0.2434
 4037TIP3    H136306   7.128   6.848   8.108 -0.2688 -0.9906  0.7445
 4037TIP3    H236307   7.260   6.821   8.040 -0.3593 -0.4776  0.3607
 4038TIP3   OH236308   1.155   2.537   8.046 -0.0905  0.4934 -0.9354
 4038TIP3    H136309   1.192   2.617   8.083 -1.2414  1.3291 -1.5153
 4038TIP3    H236310   1.060   2.552   8.047 -0.2761 -0.4949 -1.8786
 4039TIP3   OH236311   0.951   1.940   7.320  0.3143  0.4835  0.2518
 4039TIP3    H136312   0.875   1.973   7.272 -0.2396 -0.8954  0.1211
 4039TIP3    H236313   0.914   1.895   7.396  0.8814 -1.3206 -0.4824
 4040TIP3   OH236314   6.365   4.805   8.744 -0.0353  0.3283  0.2607
 4040TIP3    H136315   6.393   4.808   8.836 -0.0555  1.0561  0.2527
 4040TIP3    H236316   6.393   4.889   8.708 -0.4633  0.2494 -0.2751
 4041TIP3   OH236317   4.538   3.434   9.593  0.4917  0.4652 -0.4469
 4041TIP3    H136318   4.550   3.480   9.510  0.4382  2.6406  0.6889
 4041TIP3    H236319   4.601   3.475   9.652 -0.8660  0.3783  1.1303
 4042TIP3   OH236320   5.800   0.763   7.513 -0.1632 -0.1015 -0.6145
 4042TIP3    H136321   5.710   0.761   7.545 -0.0946 -1.4794 -0.4398
 4042TIP3    H236322   5.817   0.673   7.486  2.5383 -0.9743  3.2091
 4043TIP3   OH236323   0.611   0.794   8.201  0.1253 -0.5136 -0.1593
 4043TIP3    H136324   0.618   0.753   8.287 -1.9617 -2.3539 -0.7761
 4043TIP3    H236325   0.619   0.721   8.139 -0.7383  0.4125 -1.4194
 4044TIP3   OH236326   6.131   3.747   8.035  0.2599 -0.2729  0.4168
 4044TIP3    H136327   6.161   3.659   8.013  2.3441  0.7174 -0.9364
 4044TIP3    H236328   6.208   3.791   8.069  0.0729  1.9383 -1.7614
 4045TIP3   OH236329   5.791   6.163   9.616  0.2705  0.2726  0.2921
 4045TIP3    H136330   5.761   6.222   9.548  2.8263  0.6961 -0.6010
 4045TIP3    H236331   5.723   6.097   9.623 -1.3039  1.7105 -0.7518
 4046TIP3   OH236332   0.124   7.171   7.031 -0.3091 -0.8310  0.0277
 4046TIP3    H136333   0.089   7.137   7.113 -1.3876 -1.8307 -0.8039
 4046TIP3    H236334   0.095   7.108   6.965  1.3967 -0.6118 -0.9928
 4047TIP3   OH236335   6.605   2.305   9.453  0.1252  0.1856  0.4637
 4047TIP3    H136336   6.512   2.285   9.447  0.2788 -0.5608  0.5378
 4047TIP3    H236337   6.625   2.300   9.547  0.0362  1.3401  0.5680
 4048TIP3   OH236338   3.299   5.132   7.647 -0.0326  0.2229  0.4583
 4048TIP3    H136339   3.303   5.089   7.732 -0.8153  0.7532  0.7778
 4048TIP3    H236340   3.272   5.222   7.667 -0.6051  0.2473 -0.3767
 4049TIP3   OH236341   4.635   0.906   9.629 -0.8048  0.2926 -0.1053
 4049TIP3    H136342   4.604   0.819   9.652  1.0343  0.1815  2.3174
 4049TIP3    H236343   4.718   0.891   9.584 -1.3272  0.7867 -1.2936
 4050TIP3   OH236344   5.484   0.651   9.536 -0.1101  0.5195  0.0472
 4050TIP3    H136345   5.410   0.709   9.552 -0.8016 -0.7346  1.6734
 4050TIP3    H236346   5.453   0.589   9.470  0.2622  1.2735 -0.8703
 4051TIP3   OH236347   0.593   5.211   9.035 -0.1855 -0.0074  0.1588
 4051TIP3    H136348   0.549   5.132   9.067  0.7025 -0.1145  1.1447
 4051TIP3    H236349   0.682   5.183   9.015  0.3829  0.9138  1.3001
 4052TIP3   OH236350   2.114   0.015   8.652 -0.4162  0.0013 -0.2734
 4052TIP3    H136351   2.083   0.023   8.562 -0.7634  0.2548 -0.1305
 4052TIP3    H236352   2.202  -0.023   8.643 -1.5300 -2.7359 -0.5922
 4053TIP3   OH236353   3.082   5.931   7.477 -0.6278  0.0004  0.1201
 4053TIP3    H136354   2.987   5.944   7.468 -0.6001 -0.3982 -0.8297
 4053TIP3    H236355   3.120   5.988   7.410 -0.0168  2.3136  2.2609
 4054TIP3   OH236356   0.545   0.678   7.607 -0.4864 -0.5492  0.6191
 4054TIP3    H136357   0.585   0.652   7.525 -1.0051  0.1436  0.1331
 4054TIP3    H236358   0.511   0.596   7.644  0.4224 -0.9778  0.5292
 4055TIP3   OH236359   5.874   1.882   6.684 -0.4824  0.8356  0.1399
 4055TIP3    H136360   5.869   1.975   6.661 -0.6312  0.4536 -1.5549
 4055TIP3    H236361   5.798   1.868   6.740 -0.4189  1.7505  0.4775
 4056TIP3   OH236362   5.429   6.583   8.770  0.3929 -0.3883  0.0113
 4056TIP3    H136363   5.465   6.583   8.682  0.4138  0.3354  0.0169
 4056TIP3    H236364   5.343   6.541   8.761  0.1402  0.2224 -0.4590
 4057TIP3   OH236365   0.172   2.322   8.984  0.5118  0.5512 -0.1904
 4057TIP3    H136366   0.107   2.270   8.936 -2.1266  0.8120  2.7938
 4057TIP3    H236367   0.252   2.269   8.982 -0.3682 -0.8183 -2.1463
 4058TIP3   OH236368   0.326   7.379   8.557 -0.2415  0.2092  0.4316
 4058TIP3    H136369   0.259   7.387   8.489 -0.9127  0.8981  1.1450
 4058TIP3    H236370   0.295   7.307   8.612 -0.9082  1.1263  1.2920
 4059TIP3   OH236371   6.142   4.581   8.794  0.2107 -0.5368 -0.0969
 4059TIP3    H136372   6.210   4.537   8.845  1.8480  1.3417 -0.5598
 4059TIP3    H236373   6.073   4.602   8.858  1.2329 -0.1877  0.9125
 4060TIP3   OH236374   1.375   6.324   9.204 -0.0737 -0.1531 -0.3270
 4060TIP3    H136375   1.418   6.394   9.253  0.5890 -0.4877 -0.4262
 4060TIP3    H236376   1.306   6.369   9.155 -0.4032  0.2642  0.4954
 4061TIP3   OH236377   3.956   2.918   8.220  0.3736  0.3911  0.5471
 4061TIP3    H136378   3.962   3.002   8.176  0.9793 -0.0764 -0.2858
 4061TIP3    H236379   4.040   2.875   8.202 -0.3204 -0.8212  0.0455
 4062TIP3   OH236380   4.806   1.656   7.660 -0.1367  0.4412 -0.9083
 4062TIP3    H136381   4.780   1.564   7.653 -0.8891  0.6298 -0.7061
 4062TIP3    H236382   4.726   1.705   7.638 -0.4527  1.0385  1.3207
 4063TIP3   OH236383   3.650   2.167   9.085 -0.0295 -0.2908 -0.0030
 4063TIP3    H136384   3.661   2.257   9.054  1.0621 -0.0962  0.9119
 4063TIP3    H236385   3.555   2.156   9.092 -0.1547  1.1069  0.7576
 4064TIP3   OH236386   0.958   5.902   8.883  0.1995 -0.5689 -0.4601
 4064TIP3    H136387   0.928   5.905   8.792  1.7828 -1.0035 -1.0236
 4064TIP3    H236388   0.927   5.817   8.915 -1.2090 -0.0040 -0.2629
 4065TIP3   OH236389   3.535   4.828   7.787 -0.4540  0.4442 -0.1029
 4065TIP3    H136390   3.464   4.865   7.840 -1.0821 -0.8633  0.0083
 4065TIP3    H236391   3.496   4.752   7.745  0.8491 -0.2165 -0.1592
 4066TIP3   OH236392   3.841   0.916   7.896  0.0449 -0.3472  0.1045
 4066TIP3    H136393   3.773   0.974   7.863 -2.5282 -2.8356  0.6808
 4066TIP3    H236394   3.806   0.882   7.978  2.2712 -1.3127  0.7251
 4067TIP3   OH236395   6.367   6.732   8.752  0.5920 -0.3566 -0.0114
 4067TIP3    H136396   6.323   6.799   8.700 -0.2721 -1.0001 -0.1422
 4067TIP3    H236397   6.297   6.691   8.803  1.5018  0.6745  2.1798
 4068TIP3   OH236398   1.979   0.888   8.063  0.3919 -0.7130 -0.3848
 4068TIP3    H136399   1.918   0.941   8.114 -1.5859  0.6815 -3.8362
 4068TIP3    H236400   2.063   0.933   8.073  0.0467 -0.3677  1.3279
 4069TIP3   OH236401   0.037   0.453   8.254  0.0589 -0.0546  0.4501
 4069TIP3    H136402   0.031   0.528   8.194  0.4585  1.0592  1.7420
 4069TIP3    H236403  -0.016   0.385   8.213  1.9665 -0.0997 -2.2031
 4070TIP3   OH236404   0.670   5.646   7.781 -0.2933 -0.1023  0.1047
 4070TIP3    H136405   0.598   5.675   7.837 -0.1487  2.2627 -0.8283
 4070TIP3    H236406   0.738   5.618   7.843 -1.1705 -0.2639  1.0272
 4071TIP3   OH236407   4.447   5.552   7.543  0.0243  0.0772  0.2027
 4071TIP3    H136408   4.476   5.475   7.591 -0.8997  0.4757  1.4766
 4071TIP3    H236409   4.457   5.529   7.451 -0.3580 -1.6214  0.5493
 4072TIP3   OH236410   4.888   3.870   9.536  0.0063  0.1171  0.3799
 4072TIP3    H136411   4.886   3.799   9.473 -0.2856  0.5764 -0.1403
 4072TIP3    H236412   4.981   3.895   9.540  0.0157  0.1432  0.0586
 4073TIP3   OH236413   6.147   0.591   8.038 -0.4419  0.7430 -0.2133
 4073TIP3    H136414   6.079   0.650   8.070 -0.2651  0.7380  0.1731
 4073TIP3    H236415   6.227   0.643   8.041  0.0417 -0.0316  1.8067
 4074TIP3   OH236416   3.700   3.447   8.734  0.1695 -0.0692 -0.1559
 4074TIP3    H136417   3.774   3.388   8.746  1.2657  1.1592 -0.6299
 4074TIP3    H236418   3.732   3.532   8.764 -1.3190  0.3327  0.3622
 4075TIP3   OH236419   5.999   5.805   8.924  0.2604 -0.1746  0.2066
 4075TIP3    H136420   6.030   5.837   8.840 -0.4299 -0.9717 -0.3752
 4075TIP3    H236421   6.041   5.720   8.935 -1.4888 -1.1815 -0.5064
 4076TIP3   OH236422   7.357   4.201   8.081  0.5396  0.2456 -0.1313
 4076TIP3    H136423   7.375   4.248   8.162  0.2903  0.0433  0.0432
 4076TIP3    H236424   7.363   4.268   8.012 -0.0595  0.5842  0.1404
 4077TIP3   OH236425   6.948   7.274   8.268  0.2230  0.0103 -0.4733
 4077TIP3    H136426   6.969   7.366   8.251  1.6304 -0.5138 -1.8250
 4077TIP3    H236427   7.022   7.241   8.319 -0.7491 -0.1604  0.8893
 4078TIP3   OH236428   2.724   6.857   9.120  0.1277  0.2630 -0.4330
 4078TIP3    H136429   2.742   6.823   9.207  1.6115 -0.2501 -0.9170
 4078TIP3    H236430   2.702   6.780   9.068 -0.1913  0.5017 -0.6620
 4079TIP3   OH236431   3.191   1.430   7.057  0.1126  0.7639  0.3099
 4079TIP3    H136432   3.161   1.492   6.991  0.9945 -0.2394 -1.0857
 4079TIP3    H236433   3.220   1.485   7.130 -0.6184  1.9162 -0.2462
 4080TIP3   OH236434   2.282   6.848   9.153  0.0366  0.4155 -0.2991
 4080TIP3    H136435   2.186   6.849   9.155  0.0572  1.4247  0.4827
 4080TIP3    H236436   2.309   6.880   9.239  1.0744  1.3614 -0.9490
 4081TIP3   OH236437   0.889   0.903   7.488  0.4109 -0.0659  0.0654
 4081TIP3    H136438   0.886   0.824   7.543  1.0269 -0.5073 -0.5136
 4081TIP3    H236439   0.800   0.937   7.490  0.0085 -1.0752 -0.0861
 4082TIP3   OH236440   0.650   4.375   9.342  0.3318  0.4661 -0.0581
 4082TIP3    H136441   0.589   4.437   9.303 -0.3765  0.5430  1.1319
 4082TIP3    H236442   0.708   4.430   9.396  1.9263  0.4826 -1.6983
 4083TIP3   OH236443   3.630   4.036   9.383 -0.2942 -0.2337 -0.4993
 4083TIP3    H136444   3.724   4.040   9.370 -0.1491 -1.6680 -0.0544
 4083TIP3    H236445   3.614   4.087   9.462  0.1088  0.0186 -0.5813
 4084TIP3   OH236446   0.446   3.132   8.714 -0.7329 -0.0569 -0.3725
 4084TIP3    H136447   0.510   3.183   8.763  0.7220 -2.3454  0.2518
 4084TIP3    H236448   0.398   3.083   8.780 -0.2366 -1.5221 -1.0582
 4085TIP3   OH236449   6.643   1.053   8.725 -0.4844  0.3435 -0.3191
 4085TIP3    H136450   6.591   1.134   8.726 -2.0078 -0.5778 -0.4225
 4085TIP3    H236451   6.683   1.049   8.812 -0.8794  0.9344 -0.1035
 4086TIP3   OH236452   1.306   6.890   8.265  0.0518 -0.1656 -0.0624
 4086TIP3    H136453   1.339   6.925   8.348 -0.7225  2.1808 -0.6581
 4086TIP3    H236454   1.214   6.871   8.282 -0.0283  0.0101 -0.3043
 4087TIP3   OH236455   5.191   5.422   9.559  0.3091 -0.0226  0.1828
 4087TIP3    H136456   5.250   5.363   9.511 -0.2993  0.1267 -0.7705
 4087TIP3    H236457   5.126   5.363   9.598  0.4303 -0.0882  0.2870
 4088TIP3   OH236458   3.908   7.309   8.213 -0.4223  0.0864  0.1654
 4088TIP3    H136459   3.880   7.375   8.150 -1.2122 -1.0928 -0.7825
 4088TIP3    H236460   3.981   7.349   8.260 -0.8167  1.5715 -0.4361
 4089TIP3   OH236461   2.000   6.044   7.614 -0.2258  0.0117  0.8381
 4089TIP3    H136462   2.060   6.118   7.599  0.0504 -0.2235  0.7743
 4089TIP3    H236463   1.976   6.015   7.527 -0.3068  0.0012  0.8639
 4090TIP3   OH236464   1.181   0.293   7.430 -0.6202 -0.5056 -0.1343
 4090TIP3    H136465   1.230   0.272   7.509 -0.1886 -2.6890 -0.9138
 4090TIP3    H236466   1.246   0.329   7.370 -0.4281 -1.2248 -0.3623
 4091TIP3   OH236467   0.181   7.455   7.546  0.3284 -0.1059 -0.1215
 4091TIP3    H136468   0.230   7.530   7.514  0.6241 -0.4785 -0.5625
 4091TIP3    H236469   0.246   7.403   7.594  0.1387 -0.0991  0.1421
 4092TIP3   OH236470   0.617   4.430   8.590  0.0379  0.2040  0.1507
 4092TIP3    H136471   0.609   4.350   8.641 -0.4462 -0.6296 -1.1618
 4092TIP3    H236472   0.696   4.473   8.622  0.0632 -0.5840  1.1584
 4093TIP3   OH236473   6.193   5.451   7.765 -0.9237 -0.2664 -0.0026
 4093TIP3    H136474   6.201   5.438   7.671 -1.0481 -0.6678  0.0413
 4093TIP3    H236475   6.106   5.418   7.787 -0.9659 -0.0108  0.2281
 4094TIP3   OH236476   3.559   1.877   9.545 -0.5369 -0.6547  0.3020
 4094TIP3    H136477   3.624   1.822   9.501  0.2864  0.7530 -0.2947
 4094TIP3    H236478   3.600   1.899   9.629 -0.3976 -0.0616  0.0785
 4095TIP3   OH236479   1.494   3.727   9.399 -0.2369  0.3146 -0.4149
 4095TIP3    H136480   1.461   3.652   9.449  1.6770  0.6029  1.4260
 4095TIP3    H236481   1.588   3.709   9.388  0.0200  1.8657 -0.9991
 4096TIP3   OH236482   3.184   7.136   8.316 -0.0419  0.4480 -0.4283
 4096TIP3    H136483   3.104   7.084   8.321  0.0159  0.4351  0.5481
 4096TIP3    H236484   3.252   7.072   8.293 -0.6596  0.8569 -3.9739
 4097TIP3   OH236485   4.527   6.273   7.830  0.3684  0.4954  0.5878
 4097TIP3    H136486   4.615   6.308   7.821 -0.2711  2.1628  0.4636
 4097TIP3    H236487   4.520   6.207   7.761  1.8839 -0.4842  1.3449
 4098TIP3   OH236488   0.472   3.018   7.783  0.1733 -0.1872  0.7367
 4098TIP3    H136489   0.546   3.033   7.842  0.1184 -0.3809  0.8573
 4098TIP3    H236490   0.401   2.992   7.841 -0.0295  0.1407  0.6336
 4099TIP3   OH236491   7.557   7.470   9.127  0.5617  0.5893 -0.0909
 4099TIP3    H136492   7.636   7.419   9.144  0.6220  0.8794  0.5168
 4099TIP3    H236493   7.552   7.475   9.032 -0.2530 -1.8145 -0.2552
 4100TIP3   OH236494   3.032   4.071   6.926  0.7820 -0.1059  0.5512
 4100TIP3    H136495   3.081   4.153   6.918 -0.9078  0.9297  0.2755
 4100TIP3    H236496   2.991   4.076   7.012 -0.4607  0.0127 -0.0320
 4101TIP3   OH236497   6.241   4.014   8.156 -0.4101 -0.0916  0.6193
 4101TIP3    H136498   6.299   4.081   8.192 -0.5335 -0.9033  2.4289
 4101TIP3    H236499   6.153   4.048   8.168 -0.4271 -0.0691  0.4391
 4102TIP3   OH236500   5.241   2.544   8.082 -0.0120 -0.1562  0.2927
 4102TIP3    H136501   5.330   2.564   8.111 -0.2076  0.0639  0.7519
 4102TIP3    H236502   5.242   2.558   7.987  0.0908  1.1627  0.4772
 4103TIP3   OH236503   3.265   5.879   7.955 -0.9622  0.2850 -0.3382
 4103TIP3    H136504   3.213   5.934   8.013 -0.0237  0.7938  0.0211
 4103TIP3    H236505   3.239   5.907   7.867 -2.4473 -0.5471 -0.2032
 4104TIP3   OH236506   3.504   3.928   7.913  0.1387  0.1610 -0.5075
 4104TIP3    H136507   3.411   3.951   7.912  0.1262  0.3372  1.2498
 4104TIP3    H236508   3.548   4.011   7.895 -0.0277 -0.0896 -2.2215
 4105TIP3   OH236509   7.328   5.608   7.690  1.3395  0.2917 -0.5784
 4105TIP3    H136510   7.379   5.534   7.658 -0.2270 -1.0661 -0.0857
 4105TIP3    H236511   7.353   5.617   7.782 -0.6257 -1.6769  0.2448
 4106TIP3   OH236512   1.577   3.307   8.170 -0.3177 -0.2036 -0.3691
 4106TIP3    H136513   1.606   3.261   8.248  2.8881  1.6564 -0.2844
 4106TIP3    H236514   1.621   3.262   8.098 -2.6874 -1.4605 -1.1449
 4107TIP3   OH236515   2.042   3.390   8.526 -0.3639 -0.4020  0.4799
 4107TIP3    H136516   2.086   3.454   8.582  0.9084 -0.2642 -0.6334
 4107TIP3    H236517   2.062   3.418   8.437  0.6014 -2.5817 -0.0377
 4108TIP3   OH236518   4.628   4.258   8.746 -0.0318 -0.3982  0.3579
 4108TIP3    H136519   4.614   4.168   8.716  1.2217 -0.7779  0.8435
 4108TIP3    H236520   4.626   4.251   8.842 -2.4866  0.5412  0.4499
 4109TIP3   OH236521   7.384   3.736   6.926 -0.1853 -0.0460  0.1919
 4109TIP3    H136522   7.402   3.755   6.834 -0.6462 -1.2407 -0.1594
 4109TIP3    H236523   7.344   3.816   6.959 -1.1982 -0.0323 -0.9958
 4110TIP3   OH236524   0.677   0.635   7.333  0.4613 -0.5352 -0.0819
 4110TIP3    H136525   0.652   0.701   7.268 -1.2034 -1.7580 -0.7625
 4110TIP3    H236526   0.769   0.653   7.351  0.4094  1.1355 -1.2278
 4111TIP3   OH236527   5.456   2.157   9.593 -0.3908  0.3757 -0.4910
 4111TIP3    H136528   5.375   2.108   9.606  0.0133 -0.0596  0.4187
 4111TIP3    H236529   5.427   2.240   9.555 -1.2932  0.3154  0.0293
 4112TIP3   OH236530   4.258   0.881   6.864 -0.6164  0.0894  0.5925
 4112TIP3    H136531   4.271   0.931   6.945  1.0613  0.2415  0.2552
 4112TIP3    H236532   4.229   0.794   6.894 -2.1217  0.7627  1.2344
 4113TIP3   OH236533   2.886   2.328   9.222  0.2191 -0.9254 -0.1163
 4113TIP3    H136534   2.797   2.310   9.252  0.2955 -2.0421 -0.5009
 4113TIP3    H236535   2.874   2.372   9.138  0.0199 -0.9780 -0.1165
 4114TIP3   OH236536   7.053   3.702   8.026  0.0632 -0.2897  0.1931
 4114TIP3    H136537   6.979   3.747   7.985 -2.0348 -3.1473  0.5909
 4114TIP3    H236538   7.066   3.748   8.109 -2.0201 -0.3436  0.6107
 4115TIP3   OH236539   6.244   7.071   7.740  0.2409 -0.2073 -0.9804
 4115TIP3    H136540   6.159   7.031   7.756 -0.1577  0.7184 -0.7053
 4115TIP3    H236541   6.277   7.095   7.826  1.3037 -1.5525 -0.9794
 4116TIP3   OH236542   0.492   2.879   7.018 -0.3869 -0.1976 -0.7277
 4116TIP3    H136543   0.506   2.936   7.094 -0.1173 -2.1728  0.7921
 4116TIP3    H236544   0.507   2.936   6.943  0.9858  1.4465  0.6896
 4117TIP3   OH236545   6.008   2.584   7.830  0.4554  0.0437 -0.2288
 4117TIP3    H136546   5.938   2.520   7.828  2.9598 -3.0395  1.4862
 4117TIP3    H236547   5.993   2.640   7.753 -2.0027 -2.4672 -1.7307
 4118TIP3   OH236548   3.224   1.528   7.381  0.0104  0.3773 -0.1462
 4118TIP3    H136549   3.233   1.576   7.463 -0.0416 -1.3351  0.9136
 4118TIP3    H236550   3.207   1.595   7.315  1.2726  1.9230  1.0201
 4119TIP3   OH236551   7.125   6.012   8.050  0.0114  0.6822  0.2315
 4119TIP3    H136552   7.106   5.919   8.040  1.0385  0.4396  0.4516
 4119TIP3    H236553   7.039   6.053   8.062 -0.4674 -0.2006 -0.0742
 4120TIP3   OH236554   6.764   2.897   7.851 -0.2117  0.1669  0.1125
 4120TIP3    H136555   6.739   2.817   7.896 -0.1291  0.5112  0.7948
 4120TIP3    H236556   6.800   2.868   7.767  0.4956 -0.5531  0.6524
 4121TIP3   OH236557   0.716   4.990   8.419  0.2341  0.1515  0.3628
 4121TIP3    H136558   0.753   4.902   8.427 -0.4367 -0.2128 -0.3829
 4121TIP3    H236559   0.694   5.015   8.509 -1.5104 -1.3180  0.4175
 4122TIP3   OH236560   1.359   4.380   8.498  0.1522  0.0152 -0.0217
 4122TIP3    H136561   1.324   4.383   8.409 -1.3805 -0.6786  0.5289
 4122TIP3    H236562   1.419   4.305   8.497  1.1915  0.8273 -0.8046
 4123TIP3   OH236563   6.039   6.090   8.508 -0.1718 -1.4700 -0.1188
 4123TIP3    H136564   6.083   6.103   8.424 -0.5192 -0.9119 -0.2238
 4123TIP3    H236565   5.946   6.098   8.487 -0.2462  2.6655  0.8598
 4124TIP3   OH236566   3.533   0.400   6.422 -0.4043 -0.5369  0.1204
 4124TIP3    H136567   3.511   0.376   6.332  0.3911 -1.3401  0.1261
 4124TIP3    H236568   3.622   0.437   6.416 -0.2026 -0.9272  0.6190
 4125TIP3   OH236569   4.364   4.944   9.083 -0.2192  0.3211  0.0330
 4125TIP3    H136570   4.363   4.991   9.166 -1.5466  0.3948 -0.0067
 4125TIP3    H236571   4.279   4.901   9.079  0.3257 -0.7137 -0.7124
 4126TIP3   OH236572   5.540   2.551   8.698 -0.0430 -0.2303  0.3670
 4126TIP3    H136573   5.478   2.577   8.629 -1.5357 -2.1372  0.9062
 4126TIP3    H236574   5.599   2.489   8.656 -0.0954 -0.3577  0.4824
 4127TIP3   OH236575   1.340   3.589   7.765  0.1941 -0.4582 -0.0761
 4127TIP3    H136576   1.290   3.522   7.812 -0.4658 -0.3147 -0.5618
 4127TIP3    H236577   1.414   3.609   7.823 -0.1927 -0.8325  0.5535
 4128TIP3   OH236578   7.001   4.027   7.761 -0.1050  0.5660  0.4089
 4128TIP3    H136579   6.983   4.061   7.849  1.5955 -1.1219  1.4806
 4128TIP3    H236580   6.956   3.943   7.758 -0.1218  0.5956 -0.3559
 4129TIP3   OH236581   5.887   1.977   9.419  0.3410  0.2382 -0.1070
 4129TIP3    H136582   5.958   1.930   9.463  0.9370  1.1399 -0.0785
 4129TIP3    H236583   5.840   1.909   9.370  0.4697 -0.5675  0.8535
 4130TIP3   OH236584   5.279   5.609   8.221  0.0997 -0.0290 -0.2736
 4130TIP3    H136585   5.222   5.682   8.198 -0.7690 -0.9234 -1.0676
 4130TIP3    H236586   5.230   5.559   8.285 -0.1113 -0.9031 -1.0951
 4131TIP3   OH236587   1.660   6.544   7.676 -0.4313 -0.2737 -0.1261
 4131TIP3    H136588   1.658   6.558   7.771  0.0909 -0.9120 -0.0159
 4131TIP3    H236589   1.571   6.564   7.647 -1.0720 -1.7080  0.7500
 4132TIP3   OH236590   2.303   4.875   8.090 -0.1718 -0.0219  0.0986
 4132TIP3    H136591   2.241   4.808   8.062 -1.4143  1.3644 -0.5706
 4132TIP3    H236592   2.288   4.884   8.184 -1.1028  0.4086 -0.0866
 4133TIP3   OH236593   2.132   2.532   7.683 -1.1936 -0.3360 -0.7192
 4133TIP3    H136594   2.054   2.561   7.729  0.1826 -2.2815  3.2963
 4133TIP3    H236595   2.131   2.436   7.691  2.1735 -0.3991  0.8148
 4134TIP3   OH236596   1.766   2.828   8.997 -0.2904  0.2633  0.1801
 4134TIP3    H136597   1.732   2.837   9.086 -2.8064  2.3704 -0.8830
 4134TIP3    H236598   1.831   2.897   8.989 -0.5820  0.5353  0.1580
 4135TIP3   OH236599   1.773   7.342   8.918  0.0474  0.4442  0.3242
 4135TIP3    H136600   1.762   7.309   8.829 -1.1294 -2.7118  1.5057
 4135TIP3    H236601   1.862   7.318   8.943  0.8903  2.5841 -0.3754
 4136TIP3   OH236602   6.797   2.614   8.402 -0.7823  0.0947  0.1804
 4136TIP3    H136603   6.719   2.559   8.415 -0.0399 -1.2648 -0.7899
 4136TIP3    H236604   6.862   2.578   8.463 -0.8459  1.1204  0.8715
 4137TIP3   OH236605   1.709   3.056   7.595 -0.2729  0.4730  0.3852
 4137TIP3    H136606   1.644   2.993   7.566 -0.7730  0.8824  0.6089
 4137TIP3    H236607   1.793   3.017   7.569 -0.5787 -0.2283  0.4226
 4138TIP3   OH236608   4.875   4.765   7.527 -0.4027  0.3980  0.0540
 4138TIP3    H136609   4.839   4.768   7.438  0.8214 -1.9776 -0.6023
 4138TIP3    H236610   4.943   4.698   7.523 -0.1213  0.4202  2.7326
 4139TIP3   OH236611   7.270   0.271   9.201  0.0338  0.5388 -0.2214
 4139TIP3    H136612   7.297   0.216   9.128  2.0285  0.1550  0.7252
 4139TIP3    H236613   7.277   0.360   9.167 -0.7232  0.3161 -0.9934
 4140TIP3   OH236614   1.172   6.397   7.556  0.6568 -0.4003  0.4634
 4140TIP3    H136615   1.116   6.320   7.560  2.0854 -1.4940 -0.0854
 4140TIP3    H236616   1.174   6.430   7.646  0.0768 -1.0122  0.7099
 4141TIP3   OH236617   1.779   0.425   6.809 -0.4217 -0.2001 -0.2104
 4141TIP3    H136618   1.870   0.397   6.798  0.0708  1.3358 -0.2774
 4141TIP3    H236619   1.729   0.362   6.757  0.6082 -0.9922 -0.2847
 4142TIP3   OH236620   5.954   6.629   8.211  0.0801  0.6925 -0.1119
 4142TIP3    H136621   5.945   6.544   8.254  1.4002 -0.0417 -1.2333
 4142TIP3    H236622   5.879   6.680   8.243 -1.0852 -1.0872  0.0920
 4143TIP3   OH236623   3.688   5.366   9.174  0.0307  0.0932  0.1703
 4143TIP3    H136624   3.760   5.317   9.214  0.7674 -0.0688 -1.2826
 4143TIP3    H236625   3.696   5.454   9.211  1.5935  0.3407 -0.6499
 4144TIP3   OH236626   2.825   6.818   6.323  0.2777 -0.1451 -0.0065
 4144TIP3    H136627   2.907   6.798   6.367  1.7071  0.4046 -2.2569
 4144TIP3    H236628   2.782   6.733   6.312  0.7877 -0.5042  0.6920
 4145TIP3   OH236629   5.256   6.697   8.474  0.2445 -0.9810 -0.2862
 4145TIP3    H136630   5.185   6.641   8.506 -0.5275 -0.7205 -1.4661
 4145TIP3    H236631   5.226   6.728   8.388  1.3894 -0.1144 -0.4096
 4146TIP3   OH236632   2.630   5.264   8.580  0.0248  0.1230  0.1203
 4146TIP3    H136633   2.561   5.230   8.524 -0.2316  0.7978  0.0089
 4146TIP3    H236634   2.702   5.284   8.521 -0.6054  1.7815 -0.1540
 4147TIP3   OH236635   4.938   3.813   7.976  0.3947  0.1896  0.5798
 4147TIP3    H136636   4.856   3.769   7.999 -0.2062  1.7763  1.7042
 4147TIP3    H236637   4.984   3.824   8.059  1.5621 -0.3089  0.0110
 4148TIP3   OH236638   1.443   2.350   9.702 -0.3577  0.0641 -0.6374
 4148TIP3    H136639   1.377   2.318   9.641 -0.6238 -2.2010  0.7220
 4148TIP3    H236640   1.446   2.284   9.772 -0.5569  2.7981  2.1938
 4149TIP3   OH236641   3.063   1.603   8.759  0.8807 -0.7665  0.2582
 4149TIP3    H136642   2.989   1.655   8.790  0.9704 -1.4042  1.6377
 4149TIP3    H236643   3.118   1.666   8.712 -0.0339 -0.0753  0.0800
 4150TIP3   OH236644   1.832   2.053   8.011 -0.1813  0.3544  0.2289
 4150TIP3    H136645   1.857   2.085   7.924  2.1200  0.5828  0.9073
 4150TIP3    H236646   1.797   2.130   8.055  1.8112  1.1145  0.5880
 4151TIP3   OH236647   2.931   3.687   8.812 -0.2511  0.4122  0.1760
 4151TIP3    H136648   2.840   3.687   8.843 -0.2183 -0.0327  0.2806
 4151TIP3    H236649   2.966   3.603   8.841 -0.1380  0.1016 -0.8109
 4152TIP3   OH236650   0.869   7.489   8.451 -0.5719  0.4177 -0.7066
 4152TIP3    H136651   0.793   7.432   8.443  0.4352 -1.0226 -0.4975
 4152TIP3    H236652   0.833   7.574   8.474 -2.0870 -0.3527 -0.0930
 4153TIP3   OH236653   0.629   5.754   7.285  0.0067 -0.0776  0.9871
 4153TIP3    H136654   0.700   5.753   7.348  0.3080 -2.3751  0.6938
 4153TIP3    H236655   0.639   5.837   7.238  0.8794  0.8253  2.6922
 4154TIP3   OH236656   5.436   3.888   9.081  0.2715  0.4069 -0.7682
 4154TIP3    H136657   5.412   3.980   9.091 -0.2935  0.1809  0.0568
 4154TIP3    H236658   5.514   3.877   9.135 -0.8675 -0.0558  0.8518
 4155TIP3   OH236659   5.784   6.943   8.023  0.7013 -0.1473 -0.2548
 4155TIP3    H136660   5.770   6.874   8.088  0.1406 -0.7642 -1.0015
 4155TIP3    H236661   5.698   6.983   8.011  0.5001 -0.9096 -1.5511
 4156TIP3   OH236662   0.871   0.576   9.369  0.1980 -0.0502 -0.7256
 4156TIP3    H136663   0.952   0.601   9.414  0.5069  1.8213 -2.1673
 4156TIP3    H236664   0.839   0.500   9.418  0.7286  1.5121  2.3387
 4157TIP3   OH236665   0.072   5.324   9.126  0.0635 -0.0273 -0.2300
 4157TIP3    H136666   0.077   5.396   9.062  1.7749 -1.2375 -1.5740
 4157TIP3    H236667   0.128   5.256   9.088  2.0042 -0.4375  3.0397
 4158TIP3   OH236668   0.731   1.597   8.324  0.3851  0.3346 -0.0649
 4158TIP3    H136669   0.789   1.560   8.257  0.1698  1.6405 -1.0107
 4158TIP3    H236670   0.775   1.578   8.407  0.7909 -1.0875 -0.5804
 4159TIP3   OH236671   1.115   4.129   6.234  0.3778  0.2121 -0.4528
 4159TIP3    H136672   1.078   4.198   6.178  1.4254  0.2200 -1.1498
 4159TIP3    H236673   1.064   4.051   6.212 -1.1328  0.8110  0.6704
 4160TIP3   OH236674   4.119   2.668   7.722 -0.3979 -0.1271 -0.4829
 4160TIP3    H136675   4.028   2.658   7.693 -0.0213 -1.8573 -1.1848
 4160TIP3    H236676   4.142   2.758   7.696 -0.8560 -0.7712 -3.5325
 4161TIP3   OH236677   5.410   4.262   7.883  0.4002  0.1749 -0.0587
 4161TIP3    H136678   5.348   4.191   7.864 -1.2375  1.3832  0.5443
 4161TIP3    H236679   5.379   4.301   7.964  0.3335  2.5182 -1.1011
 4162TIP3   OH236680   2.939   0.241   9.752  0.1268  0.1107 -0.3978
 4162TIP3    H136681   3.027   0.208   9.739 -0.7758 -1.5572 -2.9990
 4162TIP3    H236682   2.935   0.322   9.701 -0.5002 -1.1390 -2.4307
 4163TIP3   OH236683   7.505   0.642   8.435  0.5845 -0.3384  0.0572
 4163TIP3    H136684   7.517   0.552   8.404 -1.4781 -0.6868  0.1458
 4163TIP3    H236685   7.469   0.632   8.524 -1.1372  0.5023 -0.4950
 4164TIP3   OH236686   5.392   7.188   8.905  0.0076 -0.0509 -0.5487
 4164TIP3    H136687   5.400   7.169   8.811 -1.3428 -0.4145 -0.6065
 4164TIP3    H236688   5.391   7.102   8.947 -1.7131 -0.0099 -0.4287
 4165TIP3   OH236689   0.717   3.881   7.787 -0.1633  0.0253  0.0982
 4165TIP3    H136690   0.644   3.886   7.849 -0.4106 -0.9075 -0.0995
 4165TIP3    H236691   0.766   3.962   7.801 -0.9457  0.4236  0.5979
 4166TIP3   OH236692   2.940   4.412   7.098 -0.2888  0.9148  0.2422
 4166TIP3    H136693   2.849   4.383   7.089 -0.0897  0.1903  0.5095
 4166TIP3    H236694   2.951   4.430   7.192 -0.2199  1.2336  0.1764
 4167TIP3   OH236695   0.988   5.340   7.228 -0.0102  0.0804 -0.0724
 4167TIP3    H136696   0.970   5.348   7.322 -1.4015 -3.2687  0.0885
 4167TIP3    H236697   0.941   5.413   7.189 -0.4777  0.8059  1.7255
 4168TIP3   OH236698   4.776   7.378   8.542 -0.1802  0.1070 -0.0421
 4168TIP3    H136699   4.701   7.352   8.489  1.0792 -0.2877 -1.7124
 4168TIP3    H236700   4.739   7.434   8.610 -1.9785 -0.0901 -0.8133
 4169TIP3   OH236701   3.511   7.318   7.720  0.0327  0.2115 -0.1987
 4169TIP3    H136702   3.432   7.312   7.666 -0.0862 -3.0600  0.1162
 4169TIP3    H236703   3.532   7.227   7.742  1.6571  1.2054  3.0054
 4170TIP3   OH236704   0.541   7.095   8.522 -0.2351 -0.7399  0.1436
 4170TIP3    H136705   0.553   7.185   8.493 -2.0845 -0.7998 -0.9756
 4170TIP3    H236706   0.606   7.083   8.591  0.8924  1.0397 -0.5395
 4171TIP3   OH236707   0.074   6.745   8.186 -0.0832  0.2536 -0.0247
 4171TIP3    H136708   0.163   6.767   8.214  0.3211 -1.4085  0.0541
 4171TIP3    H236709   0.032   6.713   8.266 -1.1870  2.1759  0.2352
 4172TIP3   OH236710   3.807   4.627   7.906  0.1997  0.3513 -0.2595
 4172TIP3    H136711   3.788   4.591   7.820  1.6917  1.2919 -1.0253
 4172TIP3    H236712   3.862   4.562   7.949  0.5297  0.4537 -0.5276
 4173TIP3   OH236713   3.648   6.909   9.131 -0.0766 -0.1170  0.2186
 4173TIP3    H136714   3.564   6.954   9.124 -0.0198 -0.1628 -0.8517
 4173TIP3    H236715   3.638   6.852   9.208 -1.7181 -1.5726 -1.0021
 4174TIP3   OH236716   5.230   6.716   9.715 -0.0011  0.1754  0.3631
 4174TIP3    H136717   5.177   6.790   9.745  1.4385  1.4622 -0.1308
 4174TIP3    H236718   5.169   6.662   9.664 -1.4344  0.1926  1.9685
 4175TIP3   OH236719   4.757   1.026   7.410 -0.1163  0.2117 -0.5804
 4175TIP3    H136720   4.852   1.039   7.410 -0.2966  2.0799  1.3411
 4175TIP3    H236721   4.740   0.973   7.488 -0.7536  1.3148  0.0627
 4176TIP3   OH236722   5.407   4.248   7.462 -0.8577  0.5673  0.0896
 4176TIP3    H136723   5.368   4.161   7.468  0.6397 -0.2797 -1.4699
 4176TIP3    H236724   5.499   4.235   7.486 -0.4897  1.6019 -0.6835
 4177TIP3   OH236725   6.592   7.205   9.653 -0.1926 -0.1710 -0.1536
 4177TIP3    H136726   6.518   7.267   9.649  0.3704  0.4826 -0.5829
 4177TIP3    H236727   6.669   7.260   9.643  0.2982 -1.0355 -1.3254
 4178TIP3   OH236728   3.465   1.431   8.183 -0.1527  0.3934  0.0569
 4178TIP3    H136729   3.372   1.426   8.204  0.3497  1.3492  3.1768
 4178TIP3    H236730   3.500   1.346   8.209 -0.0251  0.3167 -0.3571
 4179TIP3   OH236731   1.207   0.187   6.603 -0.1204  0.4365 -0.0425
 4179TIP3    H136732   1.182   0.276   6.623  0.7134  0.8845 -0.8723
 4179TIP3    H236733   1.269   0.163   6.672  0.4605  0.8941 -0.3896
 4180TIP3   OH236734   1.221   3.718   7.242 -0.5247  0.1316  0.6723
 4180TIP3    H136735   1.208   3.656   7.170  1.7403  1.2540 -0.8204
 4180TIP3    H236736   1.139   3.767   7.246 -1.3810 -1.2007  0.1282
 4181TIP3   OH236737   5.370   2.556   8.920 -0.0596 -0.3763  0.2091
 4181TIP3    H136738   5.403   2.571   8.832 -0.8887 -1.5099 -0.3307
 4181TIP3    H236739   5.335   2.640   8.948  0.4796  0.0674 -0.4269
 4182TIP3   OH236740   5.707   2.380   8.580 -0.6809 -0.3061 -0.1034
 4182TIP3    H136741   5.734   2.289   8.567  1.1825  0.1670  0.0874
 4182TIP3    H236742   5.688   2.413   8.492 -0.3182 -0.6036 -0.2958
 4183TIP3   OH236743   0.786   4.708   9.248 -0.3257  0.4137 -0.2598
 4183TIP3    H136744   0.799   4.751   9.163  0.2714 -1.0387 -0.9309
 4183TIP3    H236745   0.706   4.656   9.236 -1.5564  1.9547  0.8338
 4184TIP3   OH236746   5.942   4.724   8.950  0.3927 -0.4901 -0.3065
 4184TIP3    H136747   5.886   4.691   8.880  0.5678  2.1896 -1.8649
 4184TIP3    H236748   5.885   4.780   9.002  0.7671 -0.7497  0.3954
 4185TIP3   OH236749   1.812   7.094   7.578  0.1128  0.3215 -0.0705
 4185TIP3    H136750   1.827   7.004   7.607  0.7405  0.8294  1.2662
 4185TIP3    H236751   1.844   7.148   7.651 -3.1844  1.5925  0.5837
 4186TIP3   OH236752   6.005   3.749   9.219  0.6548  0.0232 -0.1081
 4186TIP3    H136753   5.976   3.772   9.131 -0.3509 -0.2214  0.1491
 4186TIP3    H236754   5.998   3.654   9.224 -0.5060  0.1213  0.6279
 4187TIP3   OH236755   2.017   5.254   8.976 -0.5704 -0.2131 -0.1121
 4187TIP3    H136756   2.010   5.318   9.046  1.1636  0.7931 -0.7823
 4187TIP3    H236757   1.928   5.222   8.963 -1.1048  0.3884  1.7699
 4188TIP3   OH236758   0.564   0.739   9.058  0.2852  0.0244  0.0041
 4188TIP3    H136759   0.516   0.775   9.132  0.0214 -0.6540  0.1754
 4188TIP3    H236760   0.580   0.648   9.082  1.1526  0.0839 -0.3044
 4189TIP3   OH236761   5.434   4.324   8.580  0.4968 -0.4321  0.0415
 4189TIP3    H136762   5.357   4.320   8.524  1.8505 -0.0839 -1.9706
 4189TIP3    H236763   5.455   4.232   8.598 -0.9271 -0.5153  1.4772
 4190TIP3   OH236764   5.676   0.650   6.780  0.2202 -0.4144 -0.3792
 4190TIP3    H136765   5.592   0.646   6.735 -0.3807 -1.3001  0.7855
 4190TIP3    H236766   5.683   0.740   6.811 -0.3980 -0.3973 -0.2917
 4191TIP3   OH236767   0.041   1.207   9.338  0.5603 -0.0749 -0.6368
 4191TIP3    H136768  -0.008   1.142   9.389  1.0989 -1.3510 -1.6740
 4191TIP3    H236769  -0.004   1.290   9.355 -0.4736 -0.7995  0.3237
 4192TIP3   OH236770   0.322   1.333   9.454 -0.2977  0.3474  0.4467
 4192TIP3    H136771   0.379   1.264   9.488  0.0664 -0.3956 -1.5522
 4192TIP3    H236772   0.236   1.314   9.492  0.4090  0.5311  2.2039
 4193TIP3   OH236773   3.315   5.034   8.463 -0.5261 -0.9041  0.2629
 4193TIP3    H136774   3.362   4.965   8.509  0.6226 -0.3669 -0.0489
 4193TIP3    H236775   3.236   5.049   8.515 -0.6812 -2.2812  0.4486
 4194TIP3   OH236776   6.771   2.324   8.553  0.1100 -0.2404 -0.0431
 4194TIP3    H136777   6.841   2.385   8.574 -0.5130  0.5914 -0.3098
 4194TIP3    H236778   6.713   2.327   8.630  0.2918 -0.8225  0.1219
 4195TIP3   OH236779   5.401   4.476   7.624  0.4259 -0.0799  0.0252
 4195TIP3    H136780   5.387   4.395   7.575 -1.6347  0.7782 -0.9168
 4195TIP3    H236781   5.357   4.462   7.707 -1.4717  0.6399 -0.8089
 4196TIP3   OH236782   2.333   1.021   9.021 -0.4309 -0.0004 -0.6031
 4196TIP3    H136783   2.260   1.017   9.083 -0.5538 -2.0083 -0.8358
 4196TIP3    H236784   2.411   1.023   9.077 -0.5657 -1.0626 -0.3616
 4197TIP3   OH236785   3.515   0.783   8.919  0.4901  0.5118  0.6993
 4197TIP3    H136786   3.493   0.733   8.840 -1.5267  1.3886  0.6506
 4197TIP3    H236787   3.552   0.719   8.979 -2.0611 -1.1087  0.6569
 4198TIP3   OH236788   5.235   0.414   8.089 -0.2193 -0.0464  0.0398
 4198TIP3    H136789   5.238   0.450   8.178 -0.5089 -0.9607  0.4276
 4198TIP3    H236790   5.178   0.338   8.096 -1.0640  0.4602 -1.1540
 4199TIP3   OH236791   0.665   3.712   8.812 -0.6266 -0.6162 -0.3972
 4199TIP3    H136792   0.651   3.770   8.887 -0.1037  0.4777 -1.1219
 4199TIP3    H236793   0.750   3.738   8.778 -0.6509 -1.4229 -1.0986
 4200TIP3   OH236794   4.890   1.541   7.372 -1.3317 -0.2027 -0.0466
 4200TIP3    H136795   4.910   1.544   7.466  0.4264  2.3800 -0.3835
 4200TIP3    H236796   4.969   1.503   7.332 -0.9536  1.1551 -0.6428
 4201TIP3   OH236797   2.118   7.492   8.995  0.0051 -0.3952 -0.1246
 4201TIP3    H136798   2.050   7.529   8.938  0.2260  0.6258  0.2549
 4201TIP3    H236799   2.172   7.567   9.020 -0.1077 -0.8088  1.4662
 4202TIP3   OH236800   1.176   1.918   9.377  0.6840 -0.4065  0.2964
 4202TIP3    H136801   1.160   1.884   9.288 -0.1751  0.1917  0.2155
 4202TIP3    H236802   1.217   1.844   9.423  0.3833 -0.9985 -0.3556
 4203TIP3   OH236803   4.345   6.912   9.034 -0.1691  0.1786  0.0636
 4203TIP3    H136804   4.325   6.984   9.093  1.8279 -1.2093  2.6544
 4203TIP3    H236805   4.266   6.858   9.034 -0.3351  0.3961  1.2072
 4204TIP3   OH236806   6.199   4.726   9.151  0.5442  0.1374 -0.2565
 4204TIP3    H136807   6.118   4.741   9.104  0.2224  0.2626  0.3266
 4204TIP3    H236808   6.230   4.814   9.173 -0.4964  0.0501  1.7459
 4205TIP3   OH236809   5.156   6.169   7.682 -0.0719  0.1989 -0.2072
 4205TIP3    H136810   5.128   6.245   7.630 -1.0163  0.0663  0.0945
 4205TIP3    H236811   5.241   6.145   7.646 -1.2930 -0.7565 -2.6479
 4206TIP3   OH236812   7.410   1.979   7.133  0.7376  0.2856  0.4596
 4206TIP3    H136813   7.434   2.014   7.048  1.4541  0.6439  0.7924
 4206TIP3    H236814   7.350   1.907   7.114  2.0787 -0.6566 -0.4470
 4207TIP3   OH236815   6.568   6.920   7.415  0.2787 -0.4847  0.0702
 4207TIP3    H136816   6.591   6.965   7.334 -1.2044 -0.7963 -0.5629
 4207TIP3    H236817   6.650   6.881   7.446  0.8154 -0.5879 -1.4218
 4208TIP3   OH236818   6.042   5.974   9.359  0.6193  0.1309  0.1601
 4208TIP3    H136819   6.064   6.006   9.447  0.2392  0.4057  0.1543
 4208TIP3    H236820   6.122   5.929   9.330  0.3521 -1.0562  1.1492
 4209TIP3   OH236821   4.164   1.196   8.410  0.3284 -0.0622  0.4953
 4209TIP3    H136822   4.147   1.147   8.491  0.1549 -1.9582 -0.6443
 4209TIP3    H236823   4.092   1.173   8.352 -0.0450  2.0031  0.0533
 4210TIP3   OH236824   5.537   5.100   8.333  0.4306 -0.2988  0.0439
 4210TIP3    H136825   5.567   5.087   8.423  0.6969  2.1455  0.3671
 4210TIP3    H236826   5.443   5.081   8.337  0.7882 -2.2314  0.3284
 4211TIP3   OH236827   5.389   6.838   8.875 -0.4123 -0.3620 -0.3174
 4211TIP3    H136828   5.402   6.743   8.876  1.0911 -0.1709  0.8370
 4211TIP3    H236829   5.347   6.855   8.790 -0.3388 -1.9950 -0.7249
 4212TIP3   OH236830   5.247   2.812   8.919 -0.0111 -0.3014  0.2176
 4212TIP3    H136831   5.264   2.901   8.891 -0.9311  0.3178  1.5477
 4212TIP3    H236832   5.190   2.776   8.851 -0.8047  0.6080  0.3809
 4213TIP3   OH236833   6.862   2.475   7.882  0.5684  0.5344 -0.4953
 4213TIP3    H136834   6.803   2.430   7.943  1.9051  1.7712  1.8713
 4213TIP3    H236835   6.937   2.416   7.874  0.5162  0.4969 -0.6947
 4214TIP3   OH236836   2.086   5.039   6.736  0.0093  0.1430  0.2666
 4214TIP3    H136837   2.152   4.972   6.716  0.0991  0.9420 -2.4731
 4214TIP3    H236838   2.136   5.109   6.779  0.5511 -0.1104  0.0655
 4215TIP3   OH236839   2.671   6.591   7.483 -0.6845 -0.6823  0.3093
 4215TIP3    H136840   2.619   6.618   7.407 -1.1314 -0.4153  0.7088
 4215TIP3    H236841   2.613   6.533   7.533 -0.9645  0.4087  1.2776
 4216TIP3   OH236842   2.498   5.736   9.835 -0.4461  0.0871 -0.1658
 4216TIP3    H136843   2.543   5.810   9.874  0.3152 -0.3906 -0.1079
 4216TIP3    H236844   2.568   5.687   9.790 -0.7050 -1.2276  0.7895
 4217TIP3   OH236845   6.000   3.223   7.645  0.2497 -0.0609 -0.0490
 4217TIP3    H136846   5.996   3.188   7.556 -0.3222 -0.7880  0.2517
 4217TIP3    H236847   6.084   3.269   7.649  0.1796  0.1768 -1.0297
 4218TIP3   OH236848   0.840   4.903   8.025  0.2029 -0.3297 -0.3603
 4218TIP3    H136849   0.751   4.889   8.057  0.3754  0.1992  0.3792
 4218TIP3    H236850   0.891   4.833   8.065  0.6032  0.8911  1.3633
 4219TIP3   OH236851   1.353   4.303   7.966  0.6774  0.1924  0.4561
 4219TIP3    H136852   1.312   4.234   7.915  0.5279  1.3940 -1.1089
 4219TIP3    H236853   1.446   4.292   7.951  0.8713 -1.2190  2.3052
 4220TIP3   OH236854   3.292   7.260   7.495  0.2369 -0.4478 -0.4682
 4220TIP3    H136855   3.324   7.189   7.439  2.0911 -0.4747  0.5474
 4220TIP3    H236856   3.267   7.217   7.576 -0.2957 -0.1291 -0.4593
 4221TIP3   OH236857   4.070   6.735   7.742 -0.5709  0.2385 -0.2185
 4221TIP3    H136858   4.012   6.730   7.818 -0.2392 -0.6122 -0.0037
 4221TIP3    H236859   4.078   6.828   7.723 -1.2455  0.4143  0.3391
 4222TIP3   OH236860   1.128   1.382   7.519 -0.0911 -0.4424  0.2091
 4222TIP3    H136861   1.112   1.400   7.427  1.1239  0.7547  0.2066
 4222TIP3    H236862   1.202   1.437   7.542 -0.6556 -0.3706  2.0197
 4223TIP3   OH236863   4.027   4.122   8.167 -0.4987 -0.4181 -0.2942
 4223TIP3    H136864   4.005   4.121   8.261  1.0547  0.9262  0.1212
 4223TIP3    H236865   3.942   4.126   8.123 -1.2324  1.4952  1.1455
 4224TIP3   OH236866   6.591   1.294   7.338  0.0630  0.2792 -0.1871
 4224TIP3    H136867   6.534   1.239   7.392 -0.0775  0.9973  0.4171
 4224TIP3    H236868   6.644   1.343   7.401 -1.8192  2.9940 -0.5533
 4225TIP3   OH236869   2.809   1.967   6.992  0.0952  0.1366  0.2790
 4225TIP3    H136870   2.842   2.054   6.969  1.9173 -0.9637 -1.5870
 4225TIP3    H236871   2.737   1.953   6.930  1.5630 -0.6958 -1.3307
 4226TIP3   OH236872   5.162   6.752   9.209 -0.7312 -0.0427  0.7339
 4226TIP3    H136873   5.133   6.694   9.138  0.5611  0.5785 -0.3631
 4226TIP3    H236874   5.217   6.696   9.264  0.3320  0.0325 -0.1961
 4227TIP3   OH236875   1.870   2.609   9.487 -0.0170  0.0624 -0.4087
 4227TIP3    H136876   1.806   2.679   9.503  0.4418  0.5290 -0.5806
 4227TIP3    H236877   1.868   2.556   9.567 -1.0425 -0.2829 -0.6388
 4228TIP3   OH236878   4.878   6.643   9.321 -0.1654 -0.0860  0.6133
 4228TIP3    H136879   4.792   6.684   9.331  0.3385  1.4403 -0.8964
 4228TIP3    H236880   4.859   6.556   9.285 -1.1121 -0.1761  1.2951
 4229TIP3   OH236881   2.488   0.928   8.105  0.4131  0.6890  0.5525
 4229TIP3    H136882   2.472   0.951   8.197  0.2209  1.7240  0.2802
 4229TIP3    H236883   2.534   0.845   8.108 -1.9958 -0.7078  1.5037
 4230TIP3   OH236884   3.134   3.584   7.852  0.1654 -0.0187 -1.0061
 4230TIP3    H136885   3.217   3.542   7.827 -0.1922 -0.6816 -1.1115
 4230TIP3    H236886   3.067   3.525   7.818 -0.3433 -0.0604  0.0374
 4231TIP3   OH236887   6.139   1.299   7.410 -0.1066 -0.6765  0.0570
 4231TIP3    H136888   6.150   1.206   7.393  0.2981 -0.9379  1.5882
 4231TIP3    H236889   6.190   1.342   7.341  1.4349 -1.6523  0.5335
 4232TIP3   OH236890   1.920   5.470   7.166 -0.0884 -0.0655  0.1107
 4232TIP3    H136891   1.825   5.483   7.173  0.0309  0.0824  2.0887
 4232TIP3    H236892   1.943   5.421   7.245  1.2614 -1.6442 -1.1899
 4233TIP3   OH236893   5.522   0.417   6.530  0.2113  0.2245 -0.4632
 4233TIP3    H136894   5.454   0.432   6.464 -0.2077  0.2690 -0.0225
 4233TIP3    H236895   5.494   0.469   6.605 -0.4324 -1.4702  0.5222
 4234TIP3   OH236896   1.221   3.562   6.810  0.2141  0.0239 -0.4748
 4234TIP3    H136897   1.297   3.592   6.760  1.0913 -1.1765  0.0978
 4234TIP3    H236898   1.200   3.477   6.772 -0.4547  0.0501 -0.1857
 4235TIP3   OH236899   1.512   5.677   8.438 -0.2321 -0.0654 -0.3131
 4235TIP3    H136900   1.425   5.710   8.418 -0.5998  0.2292  1.5778
 4235TIP3    H236901   1.498   5.587   8.467 -0.0137  0.1819  0.6035
 4236TIP3   OH236902   5.853   4.298   8.601  0.6579 -0.3721 -0.2146
 4236TIP3    H136903   5.916   4.288   8.673 -0.3079 -0.2539  0.6667
 4236TIP3    H236904   5.789   4.361   8.634  0.9161  0.7109 -1.6954
 4237TIP3   OH236905   5.920   1.461   7.071 -0.6323 -0.2895 -0.1242
 4237TIP3    H136906   5.941   1.441   6.980 -0.9793  1.1692 -0.5494
 4237TIP3    H236907   5.876   1.546   7.067  0.2448  0.2834  1.5031
 4238TIP3   OH236908   1.194   3.458   8.409 -0.2724  0.2413 -0.5783
 4238TIP3    H136909   1.115   3.482   8.458 -1.0837 -2.0657 -0.6134
 4238TIP3    H236910   1.251   3.534   8.416 -1.5446  1.0934  1.4601
 4239TIP3   OH236911   1.314   2.768   7.180  0.4376  0.3377 -0.2054
 4239TIP3    H136912   1.303   2.743   7.089  0.5552 -0.5901  0.0269
 4239TIP3    H236913   1.230   2.807   7.205  0.3907  0.5468 -0.6922
 4240TIP3   OH236914   0.619   1.615   6.410 -0.1024 -0.3973 -0.4985
 4240TIP3    H136915   0.667   1.537   6.383  0.6281 -1.5789  3.5333
 4240TIP3    H236916   0.528   1.587   6.413  0.1280 -1.0651  0.7029
 4241TIP3   OH236917   0.042   0.136   7.936 -0.3958 -0.0141 -0.2620
 4241TIP3    H136918  -0.017   0.084   7.992 -0.0680  1.3502  1.4474
 4241TIP3    H236919   0.085   0.196   7.997  0.5769  1.0235 -1.9113
 4242TIP3   OH236920   2.760   1.237   8.530 -0.1690  0.0131 -0.2174
 4242TIP3    H136921   2.720   1.154   8.503 -0.2762  0.0012 -0.0206
 4242TIP3    H236922   2.698   1.275   8.592 -0.1927  0.3113 -0.4162
 4243TIP3   OH236923   1.880   2.328   8.522  0.2248 -0.3975 -0.1229
 4243TIP3    H136924   1.859   2.410   8.566 -0.6945 -0.9436  0.4930
 4243TIP3    H236925   1.976   2.330   8.512  0.4334 -0.1050  1.6116
 4244TIP3   OH236926   1.283   5.722   7.546  0.1325 -0.1844 -0.1303
 4244TIP3    H136927   1.334   5.720   7.465 -0.1519 -0.6051 -0.2990
 4244TIP3    H236928   1.297   5.636   7.585 -1.1579 -0.6392 -0.6179
 4245TIP3   OH236929   2.837   1.408   9.169  0.1384  0.2652 -0.4801
 4245TIP3    H136930   2.919   1.389   9.122 -0.5979 -0.9150 -1.3502
 4245TIP3    H236931   2.777   1.438   9.100 -0.2517  0.8741  0.1135
 4246TIP3   OH236932   4.651   4.548   9.212 -0.4638 -0.6418 -0.5132
 4246TIP3    H136933   4.606   4.534   9.295  0.3442  0.2541  0.0809
 4246TIP3    H236934   4.742   4.526   9.230 -0.1712  0.1422 -0.9944
 4247TIP3   OH236935   5.526   5.278   6.978  0.2623 -0.4948  0.0756
 4247TIP3    H136936   5.458   5.332   7.018 -1.2193 -0.5799 -2.1093
 4247TIP3    H236937   5.510   5.190   7.012 -1.6992 -0.7901 -1.3989
 4248TIP3   OH236938   6.452   2.150   7.196 -0.3198 -0.5106  0.1632
 4248TIP3    H136939   6.504   2.127   7.119 -1.5861  0.2630 -0.9786
 4248TIP3    H236940   6.509   2.132   7.271  1.4100 -0.0772 -1.0025
 4249TIP3   OH236941   0.177   0.784   9.466  0.0481 -0.1657 -0.3355
 4249TIP3    H136942   0.098   0.807   9.514  0.3657 -0.1535  0.1895
 4249TIP3    H236943   0.178   0.688   9.468 -0.3150 -0.1868 -0.9447
 4250TIP3   OH236944   2.143   1.089   7.430 -0.0806 -0.1413 -0.1594
 4250TIP3    H136945   2.156   1.183   7.418  0.9363 -0.4086 -1.3198
 4250TIP3    H236946   2.223   1.058   7.472  0.3446 -0.7516 -1.3670
 4251TIP3   OH236947   1.117   7.363   6.790 -0.2917 -0.1738 -0.0962
 4251TIP3    H136948   1.094   7.443   6.744 -0.2489  0.1810  0.4947
 4251TIP3    H236949   1.037   7.309   6.785 -0.2772 -0.1532 -0.6034
 4252TIP3   OH236950   4.122   2.657   9.299  0.4096  0.3588  0.5096
 4252TIP3    H136951   4.131   2.570   9.337  0.3354  0.1992  0.1602
 4252TIP3    H236952   4.155   2.649   9.209  1.7966  1.0359  0.9231
 4253TIP3   OH236953   6.053   1.494   9.330 -0.1785 -0.1500 -0.2274
 4253TIP3    H136954   6.030   1.553   9.258  0.5818  0.8310  0.3125
 4253TIP3    H236955   6.110   1.429   9.289 -0.5000 -0.1391 -0.7031
 4254TIP3   OH236956   2.060   6.168   7.165 -0.0321 -1.0135  0.0192
 4254TIP3    H136957   2.129   6.188   7.102 -1.1272  0.1429 -0.8407
 4254TIP3    H236958   1.980   6.160   7.113 -0.1617 -5.5150  0.5585
 4255TIP3   OH236959   2.642   6.900   8.252 -0.1306  0.4704 -0.4984
 4255TIP3    H136960   2.651   6.876   8.159 -0.0863  1.5747 -0.7978
 4255TIP3    H236961   2.648   6.996   8.252  0.0860  0.4658  0.6780
 4256TIP3   OH236962   6.769   6.942   8.344  0.1172  0.8231  0.2003
 4256TIP3    H136963   6.813   6.886   8.280  0.4179  0.3772  0.7864
 4256TIP3    H236964   6.683   6.960   8.305  0.3585  0.6964 -0.4032
 4257TIP3   OH236965   3.523   5.077   8.210  0.5130  0.3226  0.4536
 4257TIP3    H136966   3.487   5.002   8.258 -0.7035  0.9798  0.5951
 4257TIP3    H236967   3.450   5.137   8.201  2.0213  2.6443  2.5396
 4258TIP3   OH236968   3.390   0.753   8.309  0.3964  0.7690  0.0465
 4258TIP3    H136969   3.355   0.830   8.354 -0.6567  0.8463 -0.8679
 4258TIP3    H236970   3.367   0.766   8.217  1.2791 -0.0604 -0.3089
 4259TIP3   OH236971   0.348   0.074   8.015 -0.1510 -0.0626  0.2273
 4259TIP3    H136972   0.367   0.081   8.108 -1.8799  0.9835  0.5462
 4259TIP3    H236973   0.287   0.146   7.998 -2.0054 -1.8579 -1.1333
 4260TIP3   OH236974   2.950   6.517   8.269  0.4372 -0.2287 -0.0180
 4260TIP3    H136975   2.870   6.468   8.248  0.2272  0.0322  0.1682
 4260TIP3    H236976   2.961   6.505   8.364  0.8019 -0.5335 -0.0921
 4261TIP3   OH236977   0.198   5.528   8.822  0.4398 -0.4940  0.0650
 4261TIP3    H136978   0.261   5.553   8.754 -0.1789  1.4174  0.1319
 4261TIP3    H236979   0.250   5.481   8.887  1.6834  0.4882 -0.1762
 4262TIP3   OH236980   6.373   0.867   7.903  0.7764 -0.4543  0.5079
 4262TIP3    H136981   6.429   0.831   7.833 -0.6262 -1.1239 -0.3087
 4262TIP3    H236982   6.325   0.938   7.861 -0.4521 -1.1861  0.6308
 4263TIP3   OH236983   4.451   5.111   8.775 -0.0760 -0.2018 -0.1371
 4263TIP3    H136984   4.472   5.018   8.766  0.7721 -0.1390  0.9917
 4263TIP3    H236985   4.471   5.132   8.867 -1.7995  0.7145  0.0695
 4264TIP3   OH236986   6.645   3.845   7.752 -0.2048  0.0027 -0.2544
 4264TIP3    H136987   6.600   3.898   7.819  2.4225 -0.3119  1.9461
 4264TIP3    H236988   6.579   3.782   7.724 -1.4391  0.0316  2.2280
 4265TIP3   OH236989   4.157   6.587   7.339 -0.0342  0.1639  0.4527
 4265TIP3    H136990   4.084   6.532   7.366  0.1294  0.4286  1.4737
 4265TIP3    H236991   4.219   6.583   7.412  0.8659  0.1411 -0.2881
 4266TIP3   OH236992   6.950   3.165   8.488 -0.2417 -0.4004 -0.3996
 4266TIP3    H136993   6.939   3.173   8.393 -0.3224  2.0721 -0.2347
 4266TIP3    H236994   7.042   3.140   8.500  0.1708  0.7119 -1.1110
 4267TIP3   OH236995   6.244   2.412   7.044 -0.5778  1.1490 -0.7290
 4267TIP3    H136996   6.308   2.352   7.004  0.7955  1.3682  0.9963
 4267TIP3    H236997   6.161   2.391   7.001  0.4978  0.3487 -2.5500
 4268TIP3   OH236998   0.755   3.130   7.461  0.4200 -0.3800  0.6923
 4268TIP3    H136999   0.845   3.154   7.479  1.0035 -2.3039  0.5182
 4268TIP3    H237000   0.751   3.123   7.365 -0.1896  0.6255  0.6263
 4269TIP3   OH237001   3.128   7.221   9.431 -0.4708 -0.1756  0.2753
 4269TIP3    H137002   3.220   7.248   9.428  0.4241 -2.4391  3.0066
 4269TIP3    H237003   3.127   7.137   9.385 -1.4173  0.2412 -0.5052
 4270TIP3   OH237004   6.097   0.113   6.658  0.5286  0.2399 -0.7545
 4270TIP3    H137005   6.058   0.086   6.741  1.5039 -1.5344 -0.8291
 4270TIP3    H237006   6.070   0.205   6.648 -0.8386  0.0558  0.7706
 4271TIP3   OH237007   7.211   5.942   6.884 -0.4924 -0.3003 -0.2356
 4271TIP3    H137008   7.158   6.022   6.877  2.3132  1.7457  0.0168
 4271TIP3    H237009   7.186   5.891   6.807 -2.6481  0.5746 -0.2118
 4272TIP3   OH237010   2.596   4.822   8.426 -0.2482  0.0871  0.0413
 4272TIP3    H137011   2.628   4.900   8.472  1.9454 -0.3629 -0.6091
 4272TIP3    H237012   2.547   4.773   8.493 -0.1192  1.1365  0.9312
 4273TIP3   OH237013   5.013   1.220   9.708 -0.2235 -0.2272  0.4168
 4273TIP3    H137014   5.051   1.134   9.690 -2.2037 -1.3736  1.3606
 4273TIP3    H237015   5.073   1.282   9.666  0.0963 -2.1637 -2.2812
 4274TIP3   OH237016   6.678   1.464   8.285 -0.5674 -0.2304  0.1196
 4274TIP3    H137017   6.593   1.434   8.254 -1.4225  1.4362  0.6926
 4274TIP3    H237018   6.664   1.557   8.307  0.4997 -0.7023  3.3534
 4275TIP3   OH237019   3.161   2.400   8.433 -0.4042  0.0220  0.9628
 4275TIP3    H137020   3.085   2.342   8.434 -0.4306  0.0608  1.3183
 4275TIP3    H237021   3.236   2.341   8.446 -0.2162 -0.2327 -1.0195
 4276TIP3   OH237022   0.972   6.693   6.826 -0.6376  0.6596  0.2687
 4276TIP3    H137023   0.998   6.615   6.874  0.2274  0.1500 -0.9693
 4276TIP3    H237024   0.916   6.660   6.755 -2.0414  1.4047  0.9829
 4277TIP3   OH237025   7.449   2.844   7.305 -0.1434  0.3126  0.1170
 4277TIP3    H137026   7.527   2.891   7.332 -0.4650  0.3774  0.9611
 4277TIP3    H237027   7.473   2.804   7.221  1.1726 -0.6069  0.8969
 4278TIP3   OH237028   6.298   6.720   6.544 -0.1757  0.4791  0.0304
 4278TIP3    H137029   6.236   6.787   6.517 -0.8464  0.1374  0.6726
 4278TIP3    H237030   6.263   6.638   6.508 -0.4278  0.1989  0.8816
 4279TIP3   OH237031   4.912   0.543   8.460  0.2166 -0.0806 -0.1058
 4279TIP3    H137032   4.973   0.608   8.494  0.2654  0.4740 -1.2147
 4279TIP3    H237033   4.925   0.466   8.515  1.0038  0.4549  0.4652
 4280TIP3   OH237034   4.863   6.278   6.759 -0.2246  0.2903 -0.8695
 4280TIP3    H137035   4.915   6.348   6.799 -0.5699 -0.2440  0.5630
 4280TIP3    H237036   4.773   6.311   6.759 -0.2568  0.2025 -0.9883
 4281TIP3   OH237037   0.026   0.186   9.152 -0.1642 -0.1236  0.3298
 4281TIP3    H137038   0.008   0.092   9.152  0.2511 -0.2068  0.9732
 4281TIP3    H237039   0.107   0.195   9.102  0.0620 -0.1627  0.6873
 4282TIP3   OH237040   5.437   3.111   7.063 -0.0667  0.2171 -0.0470
 4282TIP3    H137041   5.375   3.100   7.135  1.7520  1.1249  1.7694
 4282TIP3    H237042   5.483   3.027   7.057  1.1178  0.7238  1.2566
 4283TIP3   OH237043   2.331   5.351   7.772 -0.2697 -0.1335  0.5293
 4283TIP3    H137044   2.331   5.256   7.759  0.1152 -0.1543  0.6754
 4283TIP3    H237045   2.398   5.366   7.838 -0.6641  0.1963  0.8580
 4284TIP3   OH237046   6.063   6.759   9.243  0.1196 -0.1038  0.2913
 4284TIP3    H137047   6.007   6.685   9.265 -0.0474  0.5179  2.1551
 4284TIP3    H237048   6.150   6.721   9.230  0.1032 -0.6269  1.5360
 4285TIP3   OH237049   6.955   4.268   7.236 -0.4488 -0.0793  0.1219
 4285TIP3    H137050   6.910   4.324   7.173  0.0635  0.0858 -0.1002
 4285TIP3    H237051   6.993   4.198   7.183 -1.0637 -0.6277  0.3967
 4286TIP3   OH237052   1.749   3.733   9.631  0.2912 -0.7312 -0.4299
 4286TIP3    H137053   1.840   3.721   9.658 -0.0409  1.6933  2.1720
 4286TIP3    H237054   1.740   3.827   9.616 -2.2029 -0.6085  1.2325
 4287TIP3   OH237055   5.221   4.811   8.326  0.2575  0.4507 -0.2778
 4287TIP3    H137056   5.192   4.842   8.240  1.6738  1.0502 -0.5835
 4287TIP3    H237057   5.221   4.890   8.380 -0.9285  0.0190  0.3849
 4288TIP3   OH237058   6.146   2.667   7.103 -0.1277 -0.5026  0.5065
 4288TIP3    H137059   6.197   2.590   7.081 -0.4076 -0.5321 -0.0664
 4288TIP3    H237060   6.077   2.670   7.037 -0.2284  0.1355  0.6276
 4289TIP3   OH237061   0.938   6.734   8.727  0.4402 -0.6404  0.1177
 4289TIP3    H137062   0.976   6.820   8.742  0.1152 -0.8529  2.5427
 4289TIP3    H237063   0.993   6.694   8.660  1.9001  0.6337  0.5168
 4290TIP3   OH237064   5.721   6.210   8.130 -0.3131  0.2818  0.1663
 4290TIP3    H137065   5.782   6.154   8.082 -0.4413 -0.9801  1.4168
 4290TIP3    H237066   5.722   6.293   8.081  1.1746 -0.2249 -0.7569
 4291TIP3   OH237067   4.129   6.738   9.004 -0.2552  0.6205  0.1902
 4291TIP3    H137068   4.048   6.721   8.955  0.2946  1.6374 -1.1206
 4291TIP3    H237069   4.171   6.652   9.011 -0.3757  0.4341 -1.0918
 4292TIP3   OH237070   6.992   4.511   7.381  0.6292  0.3544 -0.0290
 4292TIP3    H137071   6.991   4.418   7.360 -1.2491  0.4575 -0.5413
 4292TIP3    H237072   6.939   4.552   7.313  1.2627  1.7954  0.2987
 4293TIP3   OH237073   2.141   4.696   8.001  1.0607 -0.2153 -0.4355
 4293TIP3    H137074   2.053   4.669   8.027  1.4354 -1.1926 -0.1318
 4293TIP3    H237075   2.155   4.652   7.918  1.6405 -0.8731  0.0058
 4294TIP3   OH237076   3.702   7.416   8.638 -0.2046  0.1883  0.1132
 4294TIP3    H137077   3.704   7.479   8.566  2.2615 -1.6889 -1.6582
 4294TIP3    H237078   3.636   7.352   8.612  0.1407 -0.0722 -0.1457
 4295TIP3   OH237079   4.922   2.181   9.569  0.5011  0.0725 -0.0673
 4295TIP3    H137080   4.965   2.145   9.491  2.7428  2.6315 -0.1733
 4295TIP3    H237081   4.876   2.258   9.536  1.7215  1.3559  1.0864
 4296TIP3   OH237082   2.282   0.279   7.752  0.1759  0.1278 -0.0731
 4296TIP3    H137083   2.288   0.188   7.781 -0.5123 -0.2493 -1.0617
 4296TIP3    H237084   2.354   0.288   7.689 -0.0307  0.1398 -0.3066
 4297TIP3   OH237085   5.249   5.451   8.489  0.4983 -0.4781 -0.2318
 4297TIP3    H137086   5.322   5.437   8.548  1.9753 -0.8896 -2.0791
 4297TIP3    H237087   5.205   5.366   8.483  1.1785 -0.7951 -0.7831
 4298TIP3   OH237088   5.769   5.566   9.792 -0.1771  0.7057  0.5505
 4298TIP3    H137089   5.690   5.610   9.824  0.1632  0.7166  1.4012
 4298TIP3    H237090   5.837   5.591   9.855  0.9725  2.2340 -1.1957
 4299TIP3   OH237091   7.403   0.822   7.234  0.2318  0.2573 -0.1618
 4299TIP3    H137092   7.374   0.749   7.180  0.4262 -0.6477  0.9132
 4299TIP3    H237093   7.373   0.900   7.188 -0.0099 -0.5022 -1.3169
 4300TIP3   OH237094   0.454   5.568   7.175  0.1763  0.8082  0.5431
 4300TIP3    H137095   0.416   5.613   7.100  0.8707 -1.3744 -1.2101
 4300TIP3    H237096   0.502   5.637   7.222  1.1258  1.9469 -1.9431
 4301TIP3   OH237097   7.517   0.074   6.943 -0.0778 -0.2367  0.1123
 4301TIP3    H137098   7.458   0.042   7.012  0.3341 -0.4306  0.3811
 4301TIP3    H237099   7.464   0.136   6.893 -0.1785  0.4276  1.0194
 4302TIP3   OH237100   6.612   1.863   7.750 -0.2213 -0.0548  0.5100
 4302TIP3    H137101   6.562   1.782   7.741  0.7981 -0.6740  0.2595
 4302TIP3    H237102   6.693   1.847   7.701  0.2891  0.8685  1.0192
 4303TIP3   OH237103   3.069   2.830   7.967  0.5812 -0.2046 -0.5141
 4303TIP3    H137104   3.007   2.897   7.938  0.5663  0.9436  1.9257
 4303TIP3    H237105   3.031   2.797   8.049  2.7305 -0.1161  0.5694
 4304TIP3   OH237106   0.256   7.060   8.499 -0.6477 -0.4089  0.3977
 4304TIP3    H137107   0.351   7.075   8.503 -0.7600  0.0234  1.7446
 4304TIP3    H237108   0.223   7.087   8.585 -1.9916 -0.6178 -0.0265
 4305TIP3   OH237109   6.355   5.349   8.675  0.0206  0.0327  0.6163
 4305TIP3    H137110   6.270   5.307   8.685 -1.9826  3.0252 -1.9640
 4305TIP3    H237111   6.400   5.295   8.609 -0.9432 -0.2051  0.1310
 4306TIP3   OH237112   0.558   0.159   8.612 -0.0284 -0.5495 -0.2051
 4306TIP3    H137113   0.584   0.206   8.691  2.5039 -1.3442 -0.4840
 4306TIP3    H237114   0.630   0.172   8.551  0.3861 -3.8982 -0.6279
 4307TIP3   OH237115   5.760   1.763   7.684  0.5076 -0.5076 -0.1403
 4307TIP3    H137116   5.733   1.688   7.630 -2.5696 -1.4443  2.3559
 4307TIP3    H237117   5.812   1.724   7.754  2.1763  0.3074 -0.8896
 4308TIP3   OH237118   0.993   1.492   8.053 -0.2095  0.3289 -0.0686
 4308TIP3    H137119   1.029   1.409   8.086 -0.1475  1.0267  1.7253
 4308TIP3    H237120   0.908   1.468   8.017  0.6872 -0.8339 -1.5514
 4309TIP3   OH237121   2.177   2.943   8.099 -0.2295  0.0907 -0.1680
 4309TIP3    H137122   2.207   3.033   8.096 -2.1301  0.7450 -1.8017
 4309TIP3    H237123   2.108   2.942   8.166  1.7749 -0.9219  2.0435
 4310TIP3   OH237124   1.513   0.405   9.604 -0.1146  0.1302 -0.1357
 4310TIP3    H137125   1.446   0.471   9.624  0.5710  0.7229  0.2619
 4310TIP3    H237126   1.466   0.322   9.608 -1.0410  0.5966 -0.8595
 4311TIP3   OH237127   1.794   6.654   9.428  0.5730  0.0673  0.4238
 4311TIP3    H137128   1.727   6.711   9.465 -0.9794 -0.6941 -1.0445
 4311TIP3    H237129   1.812   6.691   9.341  1.0487 -0.5157  0.2629
 4312TIP3   OH237130   0.267   0.102   8.308  0.4705  0.3169 -0.2507
 4312TIP3    H137131   0.272   0.129   8.400 -0.6883  0.7081 -0.2855
 4312TIP3    H237132   0.225   0.016   8.311 -0.6857  0.8507 -0.4697
 4313TIP3   OH237133   2.856   2.793   8.133  0.1744  0.6131 -0.2601
 4313TIP3    H137134   2.795   2.720   8.144 -0.8688  1.6468  1.0221
 4313TIP3    H237135   2.826   2.860   8.194  2.6979  1.1195  0.5591
 4314TIP3   OH237136   0.044   2.924   8.874 -0.7868  0.3108 -0.1855
 4314TIP3    H137137   0.047   2.963   8.961 -2.5599 -0.4630  0.2654
 4314TIP3    H237138   0.082   2.836   8.885 -0.2093  0.5304 -0.3920
 4315TIP3   OH237139   6.762   1.545   9.153 -0.4308 -0.5370 -0.1883
 4315TIP3    H137140   6.713   1.587   9.224  0.4013  0.2470 -0.0603
 4315TIP3    H237141   6.779   1.616   9.091 -0.2016 -0.9841 -0.6356
 4316TIP3   OH237142   6.743   3.995   8.870 -0.4496 -0.0148  0.1028
 4316TIP3    H137143   6.800   3.923   8.896 -0.3039 -0.7982 -2.1925
 4316TIP3    H237144   6.656   3.956   8.860 -0.9713  0.7258  1.4676
 4317TIP3   OH237145   5.139   0.788   8.023 -0.5305  0.2043  0.4810
 4317TIP3    H137146   5.073   0.762   8.087 -2.7084  0.0210 -1.6811
 4317TIP3    H237147   5.110   0.747   7.941  1.2017  1.7389 -0.9982
 4318TIP3   OH237148   6.199   4.931   6.572 -0.2972 -0.6224 -0.1074
 4318TIP3    H137149   6.279   4.878   6.575  0.3056  0.2496 -0.2584
 4318TIP3    H237150   6.229   5.017   6.544 -0.9377  0.3520  1.9888
 4319TIP3   OH237151   2.030   4.025   6.920 -0.2083 -0.0923  0.5317
 4319TIP3    H137152   1.951   4.077   6.933  1.4401  2.6290  0.5582
 4319TIP3    H237153   2.014   3.977   6.839 -1.5292  1.1736 -0.0026
 4320TIP3   OH237154   7.453   3.889   8.399 -0.0492  0.1492  0.0308
 4320TIP3    H137155   7.465   3.930   8.314 -0.3701  0.7554  0.2682
 4320TIP3    H237156   7.538   3.852   8.420 -0.1090 -0.4763 -0.7927
 4321TIP3   OH237157   0.982   6.912   9.199  0.0182  0.4326 -0.1053
 4321TIP3    H137158   0.967   6.836   9.142  0.0110 -1.3087  2.0924
 4321TIP3    H237159   0.901   6.921   9.249  1.4571 -0.9075  2.6950
 4322TIP3   OH237160   1.964   6.880   8.145 -0.0922  0.5339  0.3392
 4322TIP3    H137161   2.026   6.905   8.077 -0.3101  0.3596  0.0728
 4322TIP3    H237162   1.988   6.790   8.168 -0.8139  0.1253 -0.4269
 4323TIP3   OH237163   3.741   6.687   8.324  0.0735  0.2638  0.2011
 4323TIP3    H137164   3.800   6.730   8.386 -0.6635  2.5010 -0.5302
 4323TIP3    H237165   3.677   6.643   8.379  0.6491  0.4100  1.0152
 4324TIP3   OH237166   6.037   1.654   9.082 -0.8970 -0.6888  0.7336
 4324TIP3    H137167   6.012   1.629   8.993  1.6942 -1.8143  0.2428
 4324TIP3    H237168   6.070   1.744   9.073  1.4839 -1.5627  0.0346
 4325TIP3   OH237169   2.926   6.648   7.413  0.0014 -0.4743  0.1070
 4325TIP3    H137170   2.910   6.668   7.321 -0.4220  0.2110  0.3275
 4325TIP3    H237171   2.841   6.624   7.449  0.4879 -2.7608 -0.1486
 4326TIP3   OH237172   5.031   3.799   9.189 -0.0458  0.1412  0.2455
 4326TIP3    H137173   4.978   3.727   9.224  0.2025  0.3090  1.0066
 4326TIP3    H237174   5.085   3.758   9.121 -0.9206 -0.0892 -0.3208
 4327TIP3   OH237175   3.875   5.959   6.972 -0.2737  0.4666 -0.2616
 4327TIP3    H137176   3.904   5.883   6.922 -0.9106  0.1789 -0.1929
 4327TIP3    H237177   3.844   6.021   6.907 -1.1705  0.0639 -0.2249
 4328TIP3   OH237178   1.660   5.476   7.474  0.0078  0.1510 -0.7578
 4328TIP3    H137179   1.637   5.437   7.390  1.8028 -0.6373 -0.9313
 4328TIP3    H237180   1.665   5.570   7.456  1.9348 -0.1283 -1.9906
 4329TIP3   OH237181   5.072   6.094   7.049  0.4945  0.1062 -0.4057
 4329TIP3    H137182   5.054   6.187   7.032 -0.3086  0.3810  1.6860
 4329TIP3    H237183   5.037   6.049   6.972 -1.1354  1.3942 -0.4804
 4330TIP3   OH237184   7.106   5.352   8.732 -0.2316 -0.1761 -0.2112
 4330TIP3    H137185   7.042   5.400   8.680 -1.8608 -0.0207  1.7823
 4330TIP3    H237186   7.129   5.276   8.678 -1.6649  0.0837 -1.2478
 4331TIP3   OH237187   3.234   1.492   9.433 -0.0999  0.2985  0.4504
 4331TIP3    H137188   3.187   1.511   9.351  1.2132  1.7747 -0.0000
 4331TIP3    H237189   3.176   1.527   9.502 -0.9729 -0.4860  0.1348
 4332TIP3   OH237190   3.320   1.175   8.780  0.3678 -0.2263 -0.4233
 4332TIP3    H137191   3.227   1.177   8.755  0.0141  2.6585  0.8085
 4332TIP3    H237192   3.362   1.237   8.720  1.9117 -2.5584 -1.9653
 4333TIP3   OH237193   7.309   1.033   6.958  0.2180  0.1263 -0.0701
 4333TIP3    H137194   7.236   0.972   6.962 -0.2585  0.6619 -0.4027
 4333TIP3    H237195   7.354   1.013   6.876 -1.4704  1.8955 -1.5164
 4334TIP3   OH237196   5.651   3.929   9.238  0.8180 -0.2316  0.1765
 4334TIP3    H137197   5.667   3.835   9.243  1.2706 -0.1078  1.6245
 4334TIP3    H237198   5.732   3.968   9.271  0.7698  0.6867 -0.7473
 4335TIP3   OH237199   2.623   6.156   8.483 -0.0718 -0.0271  0.0738
 4335TIP3    H137200   2.648   6.079   8.534 -0.5528 -0.2435 -0.0110
 4335TIP3    H237201   2.583   6.215   8.547  0.4580  0.2382  0.1732
 4336TIP3   OH237202   3.310   3.738   8.900  0.1270  0.4295  0.2016
 4336TIP3    H137203   3.329   3.662   8.845 -1.7650  0.1464 -0.1049
 4336TIP3    H237204   3.355   3.718   8.983 -1.5770 -1.8105  0.6914
 4337TIP3   OH237205   2.271   1.474   8.262 -0.4325 -0.0159 -0.6890
 4337TIP3    H137206   2.349   1.484   8.317 -0.5726  0.5725 -0.5913
 4337TIP3    H237207   2.304   1.481   8.173 -0.3934  0.3867 -0.6443
 4338TIP3   OH237208   3.162   2.612   7.575  0.5456  0.5498 -0.8758
 4338TIP3    H137209   3.105   2.682   7.608 -0.9416 -0.1049 -1.9333
 4338TIP3    H237210   3.225   2.597   7.645 -1.3252  0.4939  0.8796
 4339TIP3   OH237211   6.784   2.428   8.922  0.0449  0.3834 -0.5845
 4339TIP3    H137212   6.857   2.491   8.920  0.5873 -0.1000 -4.7762
 4339TIP3    H237213   6.711   2.473   8.881 -1.3391 -0.0270  1.2575
 4340TIP3   OH237214   7.437   6.004   7.003  0.5020  0.1759  0.5939
 4340TIP3    H137215   7.361   5.972   6.954  2.5629  0.5461 -3.2530
 4340TIP3    H237216   7.477   5.926   7.040 -0.1524 -0.4060  0.0896
 4341TIP3   OH237217   1.336   1.949   8.621  0.3538  0.3069 -0.2527
 4341TIP3    H137218   1.360   1.913   8.535 -0.5027 -0.0958 -0.3462
 4341TIP3    H237219   1.240   1.955   8.617  0.4186  1.8652  0.0703
 4342TIP3   OH237220   6.555   1.520   9.393  0.5769 -0.7265  0.4462
 4342TIP3    H137221   6.610   1.495   9.467  0.1300 -0.2791  0.9411
 4342TIP3    H237222   6.510   1.440   9.369 -1.9926 -0.2196  2.9811
 4343TIP3   OH237223   3.239   6.321   7.319 -0.2787  0.3376 -0.5702
 4343TIP3    H137224   3.260   6.233   7.289  0.4202  0.1949  0.2865
 4343TIP3    H237225   3.324   6.363   7.333 -0.4927  0.1460  1.8303
 4344TIP3   OH237226   4.496   4.197   9.479 -0.1778 -0.4321 -0.2581
 4344TIP3    H137227   4.548   4.116   9.486 -1.0232 -0.9839 -0.3097
 4344TIP3    H237228   4.406   4.167   9.471 -0.4266  0.5008 -1.0902
 4345TIP3   OH237229   0.796   2.246   7.072 -0.4125  0.3076  0.3570
 4345TIP3    H137230   0.775   2.306   7.001 -0.5723  2.6070  2.2242
 4345TIP3    H237231   0.884   2.271   7.100  0.0879 -1.2774  0.3245
 4346TIP3   OH237232   2.560   1.867   8.276  0.2919  0.3685 -0.3545
 4346TIP3    H137233   2.551   1.804   8.204  1.5689 -0.7707  0.4544
 4346TIP3    H237234   2.475   1.865   8.320  0.1392 -0.3848 -0.6640
 4347TIP3   OH237235   7.467   2.525   8.346  0.2369 -0.3858  0.4237
 4347TIP3    H137236   7.393   2.571   8.308 -0.9112 -1.0946  1.6874
 4347TIP3    H237237   7.452   2.433   8.324  0.5302 -0.5807  1.0115
 4348TIP3   OH237238   6.274   2.392   8.513  0.2452 -0.3545 -0.6117
 4348TIP3    H137239   6.244   2.381   8.423 -1.1213 -1.8206 -0.0106
 4348TIP3    H237240   6.229   2.470   8.544 -0.5377 -0.7611 -0.7051
 4349TIP3   OH237241   4.323   4.969   7.832  0.1781 -0.4310  0.4776
 4349TIP3    H137242   4.358   4.898   7.885 -0.5336 -1.1602  0.0090
 4349TIP3    H237243   4.249   5.003   7.883  0.5490  0.0128  0.7246
 4350TIP3   OH237244   0.468   1.170   8.286  0.2734 -0.4433 -0.4926
 4350TIP3    H137245   0.431   1.258   8.295 -1.6412 -1.2935  0.5516
 4350TIP3    H237246   0.561   1.181   8.304  0.1919  1.4673 -1.0706
 4351TIP3   OH237247   2.161   2.607   7.136 -0.0411  0.0349  0.9478
 4351TIP3    H137248   2.098   2.552   7.089 -0.3898  0.8321  0.4583
 4351TIP3    H237249   2.206   2.656   7.067 -0.8974  1.5844  1.4419
 4352TIP3   OH237250   2.718   3.427   9.120 -0.0437  0.1861 -0.0063
 4352TIP3    H137251   2.780   3.497   9.142  1.1006 -0.8017 -0.0010
 4352TIP3    H237252   2.772   3.358   9.082 -1.4905  0.4090 -2.6791
 4353TIP3   OH237253   5.644   6.722   9.425 -0.3097 -0.3185 -0.7999
 4353TIP3    H137254   5.549   6.733   9.437 -0.3287  0.1957 -1.3986
 4353TIP3    H237255   5.679   6.719   9.514 -0.7244  0.9686 -0.5728
 4354TIP3   OH237256   3.303   2.497   7.879  0.0196 -0.6319 -0.1926
 4354TIP3    H137257   3.361   2.555   7.929 -0.5106 -0.6271  0.4185
 4354TIP3    H237258   3.351   2.482   7.797 -0.9132  2.7080 -1.5129
 4355TIP3   OH237259   1.847   5.551   8.342  0.1221  0.1723 -0.2807
 4355TIP3    H137260   1.788   5.626   8.353 -0.6061 -0.5211  0.6739
 4355TIP3    H237261   1.907   5.556   8.416  2.0085  1.4797 -1.8074
 4356TIP3   OH237262   7.456   4.568   6.980  0.7099  0.1463  0.4096
 4356TIP3    H137263   7.540   4.581   6.936  1.4615 -1.0056  1.4173
 4356TIP3    H237264   7.391   4.570   6.910  1.6378  0.5004 -0.4584
 4357TIP3   OH237265   2.048   1.309   7.173 -0.0348  0.3909  0.2920
 4357TIP3    H137266   1.969   1.294   7.225  1.3538 -2.3920  1.8187
 4357TIP3    H237267   2.115   1.333   7.237  1.2147 -0.9400 -0.4652
 4358TIP3   OH237268   0.240   3.898   7.091 -0.2509 -0.5941 -0.2394
 4358TIP3    H137269   0.323   3.946   7.085 -0.8542  0.3269 -2.2982
 4358TIP3    H237270   0.206   3.918   7.178  0.3051  1.4305 -0.4384
 4359TIP3   OH237271   6.295   2.817   7.720 -0.0365 -0.0261  0.5194
 4359TIP3    H137272   6.331   2.825   7.809 -1.4600 -0.5391  1.1657
 4359TIP3    H237273   6.349   2.876   7.668  0.2859  0.9565  1.8936
 4360TIP3   OH237274   7.537   1.361   7.648 -0.8657 -0.2320 -0.6255
 4360TIP3    H137275   7.456   1.335   7.603 -0.2837 -1.8630 -0.7842
 4360TIP3    H237276   7.573   1.280   7.683  0.8586  0.4106 -0.7891
 4361TIP3   OH237277   3.149   6.025   6.547  0.7624  0.4601 -0.6098
 4361TIP3    H137278   3.216   6.085   6.515  1.2274  0.4260  0.2778
 4361TIP3    H237279   3.187   5.986   6.626  0.1060 -0.3239 -0.6711
 4362TIP3   OH237280   4.396   1.619   8.585 -0.1788 -0.1955  0.4130
 4362TIP3    H137281   4.335   1.547   8.571  0.8286 -1.1620  0.8401
 4362TIP3    H237282   4.416   1.651   8.497  0.3894 -1.3203  0.1233
 4363TIP3   OH237283   2.362   2.063   9.555 -0.0443  0.1956 -0.2636
 4363TIP3    H137284   2.276   2.050   9.516  0.6643 -2.0273 -1.2410
 4363TIP3    H237285   2.352   2.141   9.609 -2.9834 -0.6606  0.5945
 4364TIP3   OH237286   2.536   3.780   9.122 -0.5944 -0.1983 -0.3001
 4364TIP3    H137287   2.581   3.864   9.116  0.0754 -0.4156  1.2302
 4364TIP3    H237288   2.501   3.777   9.211 -0.5110 -1.5867 -0.2923
 4365TIP3   OH237289   3.965   1.281   7.694 -0.3877 -0.1660  0.1497
 4365TIP3    H137290   3.967   1.297   7.600  0.3397 -2.0415 -0.1893
 4365TIP3    H237291   3.873   1.294   7.719 -0.4827  0.9019 -0.6852
 4366TIP3   OH237292   5.692   6.628   6.727  0.1990  0.1578 -0.0392
 4366TIP3    H137293   5.653   6.541   6.717  1.2057 -0.4744  1.2375
 4366TIP3    H237294   5.715   6.654   6.638 -0.4942 -0.7023 -0.4837
 4367TIP3   OH237295   3.343   2.205   8.477 -0.0920  0.3710 -0.9527
 4367TIP3    H137296   3.413   2.170   8.422  1.5022 -1.1855  1.8799
 4367TIP3    H237297   3.385   2.226   8.560 -2.7090  0.9363  0.3421
 4368TIP3   OH237298   0.840   0.085   8.821  0.3363 -0.4574 -0.4365
 4368TIP3    H137299   0.745   0.084   8.835  0.3048  0.5938 -0.5213
 4368TIP3    H237300   0.854   0.153   8.756  0.9696 -1.9962 -2.0112
 4369TIP3   OH237301   6.994   2.450   7.566  0.1659 -0.4834 -0.0448
 4369TIP3    H137302   7.017   2.525   7.512 -1.8948  0.7983  0.7508
 4369TIP3    H237303   6.899   2.441   7.555 -0.4407  0.0816  3.5678
 4370TIP3   OH237304   4.592   6.767   8.297  0.0033 -0.4655 -0.5323
 4370TIP3    H137305   4.635   6.775   8.382 -1.8279 -1.7309  0.5696
 4370TIP3    H237306   4.520   6.829   8.301 -0.5088 -1.0339 -0.8901
 4371TIP3   OH237307   7.092   0.061   7.498 -0.4756 -0.0082  0.0618
 4371TIP3    H137308   7.052   0.032   7.581 -0.4875 -1.3179 -0.3706
 4371TIP3    H237309   7.146  -0.013   7.471 -0.0009  0.6413 -0.8096
 4372TIP3   OH237310   3.677   6.728   9.344  0.2739 -0.4591  0.1342
 4372TIP3    H137311   3.670   6.768   9.430 -0.7331  0.2412 -0.2492
 4372TIP3    H237312   3.755   6.673   9.349  0.1954 -0.4826  1.5026
 4373TIP3   OH237313   3.962   1.193   7.098 -0.0758 -0.2161 -0.3723
 4373TIP3    H137314   4.028   1.198   7.168 -0.0422  1.1085 -0.4585
 4373TIP3    H237315   3.879   1.186   7.145  0.1351 -3.4363 -0.2663
 4374TIP3   OH237316   3.535   0.606   8.704 -0.8473 -0.6210 -0.3337
 4374TIP3    H137317   3.463   0.548   8.680  0.1319 -2.0866  0.1875
 4374TIP3    H237318   3.608   0.548   8.725 -0.1954  0.7324  1.4254
 4375TIP3   OH237319   7.068   6.374   6.845 -0.4249  0.9401  0.4148
 4375TIP3    H137320   7.056   6.281   6.829  0.6263  0.6763  1.0805
 4375TIP3    H237321   7.133   6.401   6.781 -1.4958  1.4668 -0.4835
 4376TIP3   OH237322   0.467   1.378   9.204  0.2662  0.1008  0.1150
 4376TIP3    H137323   0.433   1.451   9.154  0.0885 -1.2677 -1.8539
 4376TIP3    H237324   0.432   1.391   9.292  0.5501  2.5436 -0.0557
 4377TIP3   OH237325   0.674   6.056   7.783 -0.9691 -0.0126 -0.3749
 4377TIP3    H137326   0.656   6.072   7.690  0.8660  2.2311 -0.4249
 4377TIP3    H237327   0.763   6.023   7.785  0.8034  4.2048  0.7197
 4378TIP3   OH237328   6.575   2.139   8.080  0.0491  0.0411 -0.0040
 4378TIP3    H137329   6.637   2.153   8.009 -0.6206 -0.2080 -0.6448
 4378TIP3    H237330   6.630   2.116   8.155  0.6958 -0.8015 -0.7197
 4379TIP3   OH237331   1.164   3.501   9.281 -0.5671  0.3008 -0.4863
 4379TIP3    H137332   1.180   3.473   9.371 -2.5969  1.8848  0.4690
 4379TIP3    H237333   1.069   3.504   9.273 -0.4425  0.5300 -2.5921
 4380TIP3   OH237334   4.629   1.382   8.203  0.4752  0.1266 -0.0170
 4380TIP3    H137335   4.650   1.328   8.127 -2.7745 -0.4035 -0.7133
 4380TIP3    H237336   4.548   1.344   8.237  1.2474  1.0139  3.1106
 4381TIP3   OH237337   6.934   0.962   8.694  0.2704  0.6316  0.6826
 4381TIP3    H137338   6.901   1.038   8.742 -2.3074 -0.0300  0.1006
 4381TIP3    H237339   6.934   0.891   8.759 -2.0203  0.0325  0.0965
 4382TIP3   OH237340   1.288   0.514   8.865 -0.0988  0.0107 -0.1794
 4382TIP3    H137341   1.199   0.480   8.875  0.3642 -0.9665  0.8030
 4382TIP3    H237342   1.305   0.510   8.771 -0.8879 -0.3282 -0.3168
 4383TIP3   OH237343   5.968   0.788   8.095  0.4462 -0.2743  0.0493
 4383TIP3    H137344   5.874   0.806   8.089  0.0245 -2.4896 -1.0026
 4383TIP3    H237345   6.010   0.864   8.055 -1.1333 -1.1167 -3.6102
 4384TIP3   OH237346   2.241   5.255   6.795  0.1632 -0.1243  0.1059
 4384TIP3    H137347   2.172   5.320   6.809  0.6899  0.6741 -0.9203
 4384TIP3    H237348   2.300   5.295   6.731  1.3092 -1.0025  0.5749
 4385TIP3   OH237349   0.434   5.659   7.918 -0.3988 -0.1488 -0.4015
 4385TIP3    H137350   0.353   5.693   7.957 -1.5055 -0.5327 -2.2369
 4385TIP3    H237351   0.474   5.608   7.988 -0.7329  1.5840  1.1662
 4386TIP3   OH237352   3.710   4.707   8.307 -0.1606  0.1144  0.6159
 4386TIP3    H137353   3.790   4.656   8.293  0.7586  1.8295 -0.8305
 4386TIP3    H237354   3.731   4.765   8.380  0.2970  1.2328 -0.3812
 4387TIP3   OH237355   2.942   6.828   7.637  0.1764  0.7192  0.3745
 4387TIP3    H137356   2.951   6.773   7.559  0.9665  2.5923 -0.9088
 4387TIP3    H237357   3.020   6.808   7.690 -0.3774 -0.5741  0.7555
 4388TIP3   OH237358   1.861   2.594   7.551  0.1795  0.6594  0.0744
 4388TIP3    H137359   1.785   2.538   7.560 -0.1801  1.1898  0.4092
 4388TIP3    H237360   1.921   2.545   7.495  0.0555 -0.2350  0.6992
 4389TIP3   OH237361   4.951   0.093   8.589  0.2237 -0.3860  0.1486
 4389TIP3    H137362   5.006   0.155   8.636  1.4089 -1.3688  0.0940
 4389TIP3    H237363   4.949   0.015   8.645  0.1947 -0.9265 -0.5952
 4390TIP3   OH237364   4.908   2.294   9.070 -0.2717 -0.1831  0.0319
 4390TIP3    H137365   4.865   2.246   9.000 -0.1949 -1.2534  0.6979
 4390TIP3    H237366   4.982   2.337   9.027 -1.7151  1.3393 -1.0374
 4391TIP3   OH237367   4.761   2.374   9.447 -0.2965 -0.1545 -0.4724
 4391TIP3    H137368   4.679   2.348   9.405  0.9138 -1.6937 -2.0438
 4391TIP3    H237369   4.787   2.454   9.401 -0.2405 -0.4377 -0.9419
 4392TIP3   OH237370   1.453   7.065   9.444  0.1129  0.5337  0.2325
 4392TIP3    H137371   1.370   7.021   9.422  0.7008 -1.4426  1.6371
 4392TIP3    H237372   1.491   7.089   9.360 -0.5124 -1.2558 -0.6020
 4393TIP3   OH237373   0.473   5.678   7.552 -0.3475  0.1170 -0.3604
 4393TIP3    H137374   0.525   5.634   7.620 -1.2789  1.1298  1.0653
 4393TIP3    H237375   0.538   5.709   7.489  0.4409 -2.1145 -0.7560
 4394TIP3   OH237376   5.416   0.745   8.547 -0.4770  0.8377 -0.1308
 4394TIP3    H137377   5.481   0.744   8.617  1.6600 -0.5428 -1.9828
 4394TIP3    H237378   5.346   0.688   8.578  1.0094 -0.7797  0.4190
 4395TIP3   OH237379   1.278   5.329   9.223 -0.1656  0.3369  0.0123
 4395TIP3    H137380   1.218   5.400   9.244  0.2971  0.2287  1.8805
 4395TIP3    H237381   1.222   5.254   9.203 -0.6540  0.7554 -0.1877
 4396TIP3   OH237382   6.500   3.378   8.125 -0.0480 -0.1476 -0.5475
 4396TIP3    H137383   6.578   3.323   8.117  1.7073  2.0724  0.2770
 4396TIP3    H237384   6.433   3.320   8.162  1.4615 -1.8939 -0.4084
 4397TIP3   OH237385   6.962   6.331   8.993 -0.1426 -0.0881 -0.0945
 4397TIP3    H137386   6.990   6.273   8.922  0.2549 -1.1719  0.9094
 4397TIP3    H237387   6.911   6.399   8.950  0.3404 -0.5481 -1.4497
 4398TIP3   OH237388   6.387   3.638   8.142 -0.4793  0.4110  0.2714
 4398TIP3    H137389   6.376   3.544   8.128  0.9769  0.3800 -0.9633
 4398TIP3    H237390   6.428   3.645   8.228 -0.1097 -0.1306  0.1471
 4399TIP3   OH237391   4.453   6.675   7.764  0.1283  0.3733  0.4669
 4399TIP3    H137392   4.382   6.637   7.712  0.4850 -0.1890  0.3852
 4399TIP3    H237393   4.420   6.672   7.854  0.3135 -0.4898  0.5050
 4400TIP3   OH237394   3.043   5.251   8.241  0.2249  0.2106  0.0320
 4400TIP3    H137395   3.097   5.172   8.250  0.6486  0.5341  0.3345
 4400TIP3    H237396   3.027   5.258   8.147 -2.1478 -1.8006  0.1803
 4401TIP3   OH237397   4.260   6.213   6.468 -0.5503 -0.7253 -0.1840
 4401TIP3    H137398   4.237   6.148   6.534 -0.3614  0.9732  1.6479
 4401TIP3    H237399   4.355   6.212   6.465 -0.2925  1.7809  2.4918
 4402TIP3   OH237400   3.848   0.747   8.744 -0.1533 -0.1069 -0.3888
 4402TIP3    H137401   3.776   0.808   8.761  0.4543  0.2317  1.1129
 4402TIP3    H237402   3.895   0.741   8.827  1.2227 -0.7664 -1.1742
 4403TIP3   OH237403   5.326   1.087   8.950 -0.0313  0.4726  0.1624
 4403TIP3    H137404   5.271   1.163   8.971 -0.0757  0.4778  0.0281
 4403TIP3    H237405   5.409   1.125   8.921  0.8692  0.4690  2.4696
 4404TIP3   OH237406   4.315   2.606   9.566  0.3452 -0.2045 -0.1473
 4404TIP3    H137407   4.398   2.639   9.602  0.9291 -0.2163 -1.4253
 4404TIP3    H237408   4.332   2.514   9.547 -0.4804 -0.6161  1.0599
 4405TIP3   OH237409   6.513   3.871   8.779 -0.3654 -0.1360 -0.1289
 4405TIP3    H137410   6.466   3.834   8.854 -0.9196 -0.1106 -0.4584
 4405TIP3    H237411   6.536   3.795   8.725  0.4435 -0.1960  0.2976
 4406TIP3   OH237412   2.308   3.162   7.752  0.4136  0.0962 -0.3051
 4406TIP3    H137413   2.382   3.107   7.725 -0.2645 -1.8744  1.6370
 4406TIP3    H237414   2.233   3.103   7.753 -0.3335  0.9880  1.9251
 4407TIP3   OH237415   6.758   3.830   9.133  0.0773 -0.6804  0.1962
 4407TIP3    H137416   6.838   3.881   9.122  0.5637 -1.3428  0.6240
 4407TIP3    H237417   6.693   3.892   9.166  0.7735 -0.4217  1.1062
 4408TIP3   OH237418   1.488   5.931   9.058 -0.0425 -0.2302 -0.0726
 4408TIP3    H137419   1.428   6.005   9.050  1.7817  1.2606 -0.6576
 4408TIP3    H237420   1.532   5.926   8.973  1.4057 -0.5929  0.6625
 4409TIP3   OH237421   1.872   6.828   7.667  0.0375  0.2382 -0.0166
 4409TIP3    H137422   1.931   6.756   7.687 -2.6112 -1.4719  2.2934
 4409TIP3    H237423   1.863   6.876   7.749 -1.9427  0.2841 -0.2114
 4410TIP3   OH237424   2.535   0.737   9.637  0.4368 -0.1934 -1.3325
 4410TIP3    H137425   2.501   0.712   9.552  0.7916 -0.7783 -1.3079
 4410TIP3    H237426   2.509   0.665   9.696  0.4452  0.0644 -1.0086
 4411TIP3   OH237427   6.895   0.912   8.275 -0.3779  0.0427 -0.2096
 4411TIP3    H137428   6.868   0.849   8.341 -1.6791 -0.4429 -1.1461
 4411TIP3    H237429   6.940   0.981   8.323  1.3877 -1.7254  0.8160
 4412TIP3   OH237430   5.487   6.424   7.821  0.0644 -0.6385  0.8498
 4412TIP3    H137431   5.551   6.435   7.891  0.8050 -0.2413  0.1304
 4412TIP3    H237432   5.469   6.330   7.820  2.3056 -1.1483 -0.3202
 4413TIP3   OH237433   3.425   1.253   7.098  0.3121  0.1029 -0.2008
 4413TIP3    H137434   3.444   1.256   7.192 -3.7858 -0.4197  0.8401
 4413TIP3    H237435   3.367   1.327   7.083  0.6246 -0.0172 -2.3029
 4414TIP3   OH237436   7.386   1.631   8.762  0.8632  0.4780  0.1214
 4414TIP3    H137437   7.479   1.608   8.754  0.1832 -2.3222 -0.7812
 4414TIP3    H237438   7.357   1.586   8.841 -0.1150 -0.2753 -0.6382
 4415TIP3   OH237439   0.420   2.089   8.128  0.0576 -0.0923 -0.1196
 4415TIP3    H137440   0.464   2.060   8.048 -1.3781 -0.3890 -0.8338
 4415TIP3    H237441   0.490   2.127   8.182  1.0183  0.2458 -1.5637
 4416TIP3   OH237442   2.813   2.187   7.280 -0.3664  0.4545  0.3434
 4416TIP3    H137443   2.895   2.189   7.230  0.6945  1.4484  2.0276
 4416TIP3    H237444   2.840   2.164   7.369 -2.3164 -2.2865  0.3656
 4417TIP3   OH237445   3.720   0.140   6.350 -0.5901 -0.2672 -0.0642
 4417TIP3    H137446   3.641   0.131   6.296  0.2719  0.3270 -1.5034
 4417TIP3    H237447   3.743   0.050   6.372 -2.8792 -0.3793  2.3236
 4418TIP3   OH237448   5.374   0.987   8.234  0.1991 -0.2288  0.2085
 4418TIP3    H137449   5.291   0.951   8.266 -0.6900  0.7392 -0.9626
 4418TIP3    H237450   5.351   1.071   8.195  1.6966 -0.0444 -0.3361
 4419TIP3   OH237451   2.632   3.239   7.659  0.5225  0.4126  0.1770
 4419TIP3    H137452   2.610   3.238   7.752  1.4379 -1.0061  0.3972
 4419TIP3    H237453   2.700   3.305   7.651 -0.3929  1.4016  0.2855
 4420TIP3   OH237454   4.864   0.507   8.842  0.2179 -0.0952  0.0188
 4420TIP3    H137455   4.777   0.503   8.803 -0.4372  1.9084  1.1126
 4420TIP3    H237456   4.860   0.446   8.916  0.5760 -1.8173 -1.3248
 4421TIP3   OH237457   6.023   0.788   7.703  0.2859  0.1145  0.6927
 4421TIP3    H137458   5.943   0.783   7.755 -0.8901  0.3974 -1.0134
 4421TIP3    H237459   5.994   0.777   7.613  2.3402 -0.9942  0.1083
 4422TIP3   OH237460   3.109   3.498   9.152 -0.1603  0.2622 -0.4334
 4422TIP3    H137461   3.067   3.413   9.147  0.9767 -0.2736 -1.6198
 4422TIP3    H237462   3.039   3.559   9.176 -0.6674 -1.2083  2.1727
 4423TIP3   OH237463   5.900   0.830   9.234 -0.1397  0.2922  0.1312
 4423TIP3    H137464   5.820   0.779   9.227 -0.2259  0.3935  0.3791
 4423TIP3    H237465   5.909   0.873   9.149 -0.5531  0.5851  0.2323
 4424TIP3   OH237466   3.142   4.178   7.280 -0.3441 -0.0522 -0.1718
 4424TIP3    H137467   3.129   4.094   7.324 -0.9120  0.0060 -0.2239
 4424TIP3    H237468   3.062   4.191   7.229  1.1037 -1.1381 -2.9714
 4425TIP3   OH237469   1.946   1.556   8.255  0.5690 -0.3306  0.2317
 4425TIP3    H137470   1.895   1.523   8.181 -0.9115 -0.4307  1.2584
 4425TIP3    H237471   2.038   1.540   8.230  0.1655  0.5471 -1.9868
 4426TIP3   OH237472   2.526   5.250   6.624 -0.2068  0.0790  0.2119
 4426TIP3    H137473   2.596   5.187   6.638 -0.7301 -0.3810  0.8406
 4426TIP3    H237474   2.544   5.320   6.687  0.9476  1.0879 -1.1800
 4427TIP3   OH237475   5.024   3.118   8.951 -0.5308 -0.6044  0.3991
 4427TIP3    H137476   4.996   3.048   8.893  0.3887 -0.1045 -0.6829
 4427TIP3    H237477   5.119   3.117   8.947 -0.4904  0.5407  0.5533
 4428TIP3   OH237478   1.122   4.741   7.833 -0.4097  0.4389  0.3181
 4428TIP3    H137479   1.108   4.697   7.916 -0.9532  1.4174  0.7587
 4428TIP3    H237480   1.215   4.764   7.832  0.5400 -2.8803 -1.0267
 4429TIP3   OH237481   2.267   5.626   9.050 -0.2545 -0.3079 -0.0898
 4429TIP3    H137482   2.309   5.540   9.047  1.1007  0.1927  2.3379
 4429TIP3    H237483   2.194   5.615   9.111  0.8129  0.5779  1.3924
 4430TIP3   OH237484   3.543   5.865   8.034  0.1959  0.2107  0.2559
 4430TIP3    H137485   3.447   5.872   8.039  0.3026  1.2337  1.1882
 4430TIP3    H237486   3.562   5.885   7.942 -0.3983  1.3862  0.3691
 4431TIP3   OH237487   6.015   2.833   9.000  0.2840 -0.5221 -0.6009
 4431TIP3    H137488   6.060   2.887   8.935  2.6450 -0.8378  0.6668
 4431TIP3    H237489   5.932   2.878   9.015  0.8203  0.9952 -1.8839
 4432TIP3   OH237490   0.399   0.498   7.403  0.2653 -0.0211  0.5336
 4432TIP3    H137491   0.366   0.439   7.336 -0.4240  0.3928  0.5006
 4432TIP3    H237492   0.458   0.557   7.357 -1.8008  1.6198 -0.1670
 4433TIP3   OH237493   6.611   7.009   7.730  0.3604 -0.1142 -0.4250
 4433TIP3    H137494   6.611   7.042   7.640 -0.0577 -1.3919 -0.9172
 4433TIP3    H237495   6.703   6.995   7.751  0.4553  0.1479 -0.6707
 4434TIP3   OH237496   0.528   3.880   7.974  0.0113  0.0373 -0.2647
 4434TIP3    H137497   0.492   3.937   8.042  0.9859 -1.5448  1.6926
 4434TIP3    H237498   0.516   3.791   8.008  1.1996 -0.7743 -1.8295
 4435TIP3   OH237499   0.377   5.671   8.225 -0.0687  0.2739  0.2137
 4435TIP3    H137500   0.472   5.663   8.220  0.0510  0.2269  1.9205
 4435TIP3    H237501   0.359   5.762   8.200  0.4153  0.2584 -0.1998
 4436TIP3   OH237502   1.606   6.769   8.692  0.8158 -0.4315 -0.0733
 4436TIP3    H137503   1.676   6.704   8.692  0.0124 -1.3801  1.8839
 4436TIP3    H237504   1.571   6.766   8.781 -0.6879  1.1306 -0.5679
 4437TIP3   OH237505   3.476   0.400   8.151 -0.1404 -0.2786 -0.2973
 4437TIP3    H137506   3.471   0.323   8.094  0.6087 -0.5291 -0.0472
 4437TIP3    H237507   3.414   0.382   8.222 -0.2122 -0.5009 -0.4167
 4438TIP3   OH237508   4.773   3.528   9.012  0.2570  0.4949 -0.2097
 4438TIP3    H137509   4.853   3.535   8.961  0.2545 -4.6144 -1.4751
 4438TIP3    H237510   4.800   3.486   9.093 -1.1026 -2.6630 -1.2454
 4439TIP3   OH237511   1.873   1.703   7.076  0.2034  0.3112  0.3063
 4439TIP3    H137512   1.781   1.676   7.073  0.3699 -0.2669 -1.7162
 4439TIP3    H237513   1.871   1.798   7.068 -0.2310  0.3344  0.6698
 4440TIP3   OH237514   5.610   6.738   9.691  0.0956 -0.4219  0.2349
 4440TIP3    H137515   5.555   6.666   9.722 -0.9142  0.4917  0.6215
 4440TIP3    H237516   5.658   6.767   9.768 -0.3612  0.0595  0.3442
 4441TIP3   OH237517   7.313   1.382   9.189  0.2831  0.5670 -0.7129
 4441TIP3    H137518   7.226   1.352   9.160 -0.0227  0.8929 -0.1655
 4441TIP3    H237519   7.294   1.457   9.246  0.8449 -0.0235  0.2848
 4442TIP3   OH237520   2.024   0.079   7.197  0.0982  0.4046 -0.1516
 4442TIP3    H137521   1.939   0.123   7.205 -0.6977 -0.9131 -1.0027
 4442TIP3    H237522   2.060   0.081   7.286 -0.8955  0.8273  0.2629
 4443TIP3   OH237523   6.615   1.076   9.572  0.0000  0.3587 -0.7798
 4443TIP3    H137524   6.528   1.115   9.562 -0.1199 -0.1534 -1.8481
 4443TIP3    H237525   6.599   0.985   9.596  0.2821  0.7998  1.2878
 4444TIP3   OH237526   1.967   3.008   9.051  0.1249  0.1798 -0.2465
 4444TIP3    H137527   2.015   3.034   8.972 -1.5804  1.1873 -0.9955
 4444TIP3    H237528   1.974   3.084   9.109  0.9803 -0.3829  0.4152
 4445TIP3   OH237529   0.346   0.349   7.896 -0.1833  0.3579 -0.4713
 4445TIP3    H137530   0.408   0.396   7.952 -0.4531  1.4417 -1.0587
 4445TIP3    H237531   0.388   0.348   7.810 -1.0095  1.1598 -0.8878
 4446TIP3   OH237532   2.174   7.160   8.338  0.0540  0.8839 -0.6863
 4446TIP3    H137533   2.216   7.080   8.308  0.0306  0.8132 -0.5302
 4446TIP3    H237534   2.081   7.148   8.317  0.0101  0.7559 -0.4119
 4447TIP3   OH237535   7.505   7.553   8.866  0.1635 -0.6694 -0.0503
 4447TIP3    H137536   7.468   7.503   8.794  0.5245  0.3173 -0.9507
 4447TIP3    H237537   7.590   7.583   8.834  1.0442 -1.5502  1.3920
 4448TIP3   OH237538   3.095   1.996   8.998 -0.3048  0.3846 -0.2471
 4448TIP3    H137539   3.116   1.904   8.986 -0.4928  0.2878  0.1549
 4448TIP3    H237540   3.179   2.041   8.985 -0.5222  0.3239 -2.1085
 4449TIP3   OH237541   6.320   5.644   9.498 -0.3492 -0.2394 -0.3134
 4449TIP3    H137542   6.227   5.626   9.481 -0.6583  1.6295 -0.8228
 4449TIP3    H237543   6.319   5.696   9.578  0.4695 -1.8805  0.8353
 4450TIP3   OH237544   4.510   7.192   9.564 -0.0363 -0.0359  0.1103
 4450TIP3    H137545   4.598   7.162   9.587  0.6826  1.1569 -0.9871
 4450TIP3    H237546   4.466   7.204   9.649  0.3287 -2.0606  0.6346
 4451TIP3   OH237547   6.566   5.783   9.406 -0.0293 -0.1418  0.0910
 4451TIP3    H137548   6.526   5.733   9.477 -1.1855 -0.2510 -0.6109
 4451TIP3    H237549   6.527   5.748   9.327  0.3188  0.8193 -0.5256
 4452TIP3   OH237550   3.948   3.008   7.920 -0.0267  0.4493  0.1668
 4452TIP3    H137551   3.938   3.066   7.845 -2.1282 -0.4763 -0.3174
 4452TIP3    H237552   3.917   3.059   7.994 -2.3824 -0.1445 -0.3361
 4453TIP3   OH237553   7.520   0.969   8.581  0.0019  0.3890  0.0773
 4453TIP3    H137554   7.531   0.935   8.493 -0.0647  0.4900  0.0293
 4453TIP3    H237555   7.457   1.041   8.571  0.7073  1.0196  0.0514
 4454TIP3   OH237556   3.423   4.055   8.408 -0.3552 -0.1717  0.0657
 4454TIP3    H137557   3.421   4.009   8.492 -1.0294 -1.6931 -0.7210
 4454TIP3    H237558   3.345   4.023   8.362  0.3418  0.1014 -1.3846
 4455TIP3   OH237559   4.754   1.285   9.768  0.1787 -0.4957  0.3562
 4455TIP3    H137560   4.849   1.293   9.754 -0.1260  0.2399 -1.7045
 4455TIP3    H237561   4.739   1.191   9.776  1.2129 -0.5518  2.0025
 4456TIP3   OH237562   3.195   6.278   8.091  0.2976 -0.1274 -0.6265
 4456TIP3    H137563   3.249   6.258   8.014 -0.2486  0.5467 -1.2014
 4456TIP3    H237564   3.105   6.272   8.059  0.0356 -0.6538  0.1771
 4457TIP3   OH237565   3.495   3.271   8.718 -0.6141 -0.4291 -0.5781
 4457TIP3    H137566   3.487   3.267   8.623 -0.6528  2.3360 -0.7720
 4457TIP3    H237567   3.564   3.335   8.733 -2.8912  1.7725  1.2352
 4458TIP3   OH237568   4.496   1.116   9.433 -0.3950  0.3891 -0.4142
 4458TIP3    H137569   4.518   1.086   9.344 -0.7537  0.0852 -0.4044
 4458TIP3    H237570   4.562   1.076   9.489 -0.4453  0.1934 -0.4922
 4459TIP3   OH237571   4.992   0.692   7.493  0.1659 -0.4527 -0.5580
 4459TIP3    H137572   5.084   0.676   7.513 -0.4736  0.2190  4.0205
 4459TIP3    H237573   4.945   0.620   7.535 -1.5065  0.4303 -0.8211
 4460TIP3   OH237574   4.402   5.889   9.539 -0.0846 -0.1697  0.4037
 4460TIP3    H137575   4.419   5.982   9.555 -0.4066  0.2659 -1.5420
 4460TIP3    H237576   4.487   5.854   9.512 -0.4424  0.1398 -1.2267
 4461TIP3   OH237577   4.877   4.895   9.623  0.0948 -0.1327  0.3779
 4461TIP3    H137578   4.933   4.847   9.684 -0.4654  0.1081  1.0850
 4461TIP3    H237579   4.803   4.837   9.607  0.2278 -0.1858 -0.0646
 4462TIP3   OH237580   2.289   1.611   9.007  0.1254  0.0761  0.5512
 4462TIP3    H137581   2.235   1.558   8.949  0.6824  0.4614 -0.3467
 4462TIP3    H237582   2.258   1.591   9.095  0.0073 -1.3781  0.1978
 4463TIP3   OH237583   6.883   1.470   8.667  0.3277 -0.0302  0.1108
 4463TIP3    H137584   6.872   1.537   8.600 -0.4951 -0.0457  0.2200
 4463TIP3    H237585   6.808   1.412   8.656 -0.0364  0.1791  1.2841
 4464TIP3   OH237586   3.237   6.888   9.484  0.5516 -0.2591 -0.2227
 4464TIP3    H137587   3.231   6.795   9.461  1.2856  0.1198 -2.1144
 4464TIP3    H237588   3.171   6.931   9.429  1.1238  0.4908 -0.3418
 4465TIP3   OH237589   6.061   2.190   9.411 -0.2449  0.1315 -0.0361
 4465TIP3    H137590   6.009   2.110   9.417  0.9531 -0.7107 -0.5257
 4465TIP3    H237591   5.996   2.260   9.403 -1.3214 -0.9664 -1.5787
 4466TIP3   OH237592   0.762   1.863   9.188  0.1990  0.5494 -0.0489
 4466TIP3    H137593   0.811   1.889   9.266  0.3086 -0.5233  0.2582
 4466TIP3    H237594   0.788   1.772   9.172 -1.4385  0.0394 -0.0629
 4467TIP3   OH237595   4.880   7.076   8.752 -0.5071 -0.2172 -0.2147
 4467TIP3    H137596   4.838   7.074   8.838 -0.0520  1.4249  0.0768
 4467TIP3    H237597   4.909   7.166   8.741  1.8031 -0.9637 -0.9416
 4468TIP3   OH237598   4.748   5.851   9.127  0.5342 -0.1140  1.1262
 4468TIP3    H137599   4.798   5.798   9.189 -0.6070 -1.3656  1.0242
 4468TIP3    H237600   4.738   5.795   9.050  0.5230  0.8047  0.4458
 4469TIP3   OH237601   6.419   3.292   7.413 -0.1781  0.4084 -0.2129
 4469TIP3    H137602   6.379   3.241   7.342 -0.8201 -2.1802  1.8809
 4469TIP3    H237603   6.513   3.279   7.401 -0.0625  2.2095 -2.0403
 4470TIP3   OH237604   6.320   5.065   7.130  0.3880  0.0737  0.0942
 4470TIP3    H137605   6.337   5.041   7.039 -0.7810  1.9699 -0.6930
 4470TIP3    H237606   6.341   4.986   7.181  0.5397 -1.2020 -1.8626
 4471TIP3   OH237607   1.612   4.107   8.800  0.5004 -0.0043 -0.2613
 4471TIP3    H137608   1.668   4.050   8.854  1.9133  0.6993 -0.9493
 4471TIP3    H237609   1.551   4.146   8.863  1.8009  0.4222  0.7827
 4472TIP3   OH237610   0.262   4.152   8.777  0.2484  0.3732 -0.2924
 4472TIP3    H137611   0.268   4.070   8.826 -0.1567  0.5838  0.1225
 4472TIP3    H237612   0.172   4.182   8.792  0.3393  0.7992 -0.5892
 4473TIP3   OH237613   0.708   6.421   7.683  0.6696  1.0403 -0.1344
 4473TIP3    H137614   0.680   6.497   7.632 -0.9768  1.2363  0.9742
 4473TIP3    H237615   0.718   6.351   7.619  0.3125  1.7014 -0.9304
 4474TIP3   OH237616   0.441   7.056   7.033 -0.3085  0.5166 -0.0459
 4474TIP3    H137617   0.396   6.984   6.988 -0.0018 -0.2497  0.8265
 4474TIP3    H237618   0.486   7.013   7.106  1.1211  1.3866 -0.3786
 4475TIP3   OH237619   6.188   6.062   9.601 -0.1607 -0.1081  0.0141
 4475TIP3    H137620   6.277   6.034   9.582 -0.3393 -0.0657 -0.9537
 4475TIP3    H237621   6.198   6.144   9.650  0.3338 -0.2634  0.1693
 4476TIP3   OH237622   0.391   4.105   7.018  0.2143 -0.2677  0.6162
 4476TIP3    H137623   0.352   4.182   7.059 -2.3054 -2.1089  2.0235
 4476TIP3    H237624   0.363   4.110   6.927  0.6701  0.8065  0.5233
 4477TIP3   OH237625   3.516   1.163   8.267 -0.1443 -0.2492  0.0256
 4477TIP3    H137626   3.600   1.142   8.309 -0.3925  0.4966  0.9472
 4477TIP3    H237627   3.452   1.159   8.338 -0.7184  0.2444 -0.4512
 4478TIP3   OH237628   5.407   3.222   9.186  0.1943  0.0898  0.2633
 4478TIP3    H137629   5.326   3.222   9.238  0.2342 -0.0440  0.3276
 4478TIP3    H237630   5.470   3.175   9.241  0.3208  0.2113  0.2214
 4479TIP3   OH237631   0.266   2.871   7.895 -0.7805  0.3076 -0.2607
 4479TIP3    H137632   0.277   2.823   7.977 -3.6896 -0.5832 -0.2735
 4479TIP3    H237633   0.242   2.805   7.831 -1.8653  1.3767 -1.0114
 4480TIP3   OH237634   6.429   6.192   8.137  0.1954 -0.5976  0.2265
 4480TIP3    H137635   6.421   6.136   8.060  0.9974 -0.5405  0.0931
 4480TIP3    H237636   6.368   6.264   8.120  1.9821  0.6319 -1.4666
 4481TIP3   OH237637   7.498   1.677   9.030 -0.2897  0.2015 -0.3904
 4481TIP3    H137638   7.498   1.759   9.080  0.0760  0.0060 -0.0674
 4481TIP3    H237639   7.407   1.648   9.030 -0.3076  0.2551  0.0770
 4482TIP3   OH237640   0.567   3.834   6.919  0.2678 -0.2127 -0.3011
 4482TIP3    H137641   0.536   3.853   6.831 -0.6262 -0.4610 -0.0524
 4482TIP3    H237642   0.660   3.857   6.918  0.3849 -0.7023 -1.4463
 4483TIP3   OH237643   2.474   3.868   7.385 -0.0058 -0.0212  0.2133
 4483TIP3    H137644   2.428   3.801   7.436 -0.6071  0.7467  0.7003
 4483TIP3    H237645   2.508   3.929   7.450 -1.0228  1.1235 -0.3011
 4484TIP3   OH237646   2.550   3.220   9.709  0.4548  0.3484  0.1705
 4484TIP3    H137647   2.573   3.220   9.616  0.7836 -3.1182  0.1420
 4484TIP3    H237648   2.618   3.167   9.750 -0.7793  0.1619  2.0681
 4485TIP3   OH237649   6.611   5.502   7.345 -0.4771 -0.0766 -0.5869
 4485TIP3    H137650   6.697   5.528   7.312 -0.9214  0.4027 -1.3962
 4485TIP3    H237651   6.573   5.583   7.378 -0.7794 -0.2127 -0.6011
 4486TIP3   OH237652   2.719   2.731   9.625 -0.4960 -0.4752  0.0273
 4486TIP3    H137653   2.763   2.793   9.683  0.5162 -0.9750 -0.1638
 4486TIP3    H237654   2.774   2.730   9.546 -1.2750 -0.5775 -0.5278
 4487TIP3   OH237655   3.409   4.229   9.599  0.4318 -0.6483 -0.5466
 4487TIP3    H137656   3.366   4.285   9.534 -0.3996 -0.1670  0.3840
 4487TIP3    H237657   3.398   4.140   9.565 -0.3086 -0.4330 -0.9045
 4488TIP3   OH237658   3.989   6.240   8.107 -0.3610 -0.3388  0.6808
 4488TIP3    H137659   4.017   6.289   8.184 -1.7361 -0.2318  1.1390
 4488TIP3    H237660   4.014   6.149   8.125  1.1999 -0.0183  0.3110
 4489TIP3   OH237661   1.264   2.539   7.360 -0.1556  0.0977  0.1018
 4489TIP3    H137662   1.282   2.510   7.271 -0.2842  0.1549  0.0561
 4489TIP3    H237663   1.199   2.609   7.349 -0.3603 -0.0686  0.2579
 4490TIP3   OH237664   5.192   4.270   9.475 -0.4050  0.1783 -0.0844
 4490TIP3    H137665   5.175   4.224   9.557 -0.1316 -0.3212 -0.3037
 4490TIP3    H237666   5.210   4.201   9.411  0.7758  0.5969 -0.2403
 4491TIP3   OH237667   5.627   3.346   8.958  0.1606 -0.4187  0.1640
 4491TIP3    H137668   5.705   3.336   8.904  0.3020  1.9086 -0.1531
 4491TIP3    H237669   5.660   3.350   9.048  0.1892 -1.4193  0.2100
 4492TIP3   OH237670   3.148   2.263   7.744  0.2537  0.0700  0.2095
 4492TIP3    H137671   3.063   2.308   7.737 -0.0954 -0.4593  0.8935
 4492TIP3    H237672   3.193   2.309   7.815 -0.6043 -1.3978  1.7689
 4493TIP3   OH237673   4.267   1.825   8.130 -0.0943 -0.4333 -0.1758
 4493TIP3    H137674   4.344   1.862   8.085 -1.9049  2.4787 -1.1716
 4493TIP3    H237675   4.261   1.736   8.098  0.1261  0.7489 -3.9325
 4494TIP3   OH237676   0.001   0.874   8.850 -0.0896  0.1174  0.4476
 4494TIP3    H137677   0.023   0.914   8.766  1.1044 -1.9359 -0.3070
 4494TIP3    H237678   0.082   0.879   8.901  0.1134 -1.3022  0.3097
 4495TIP3   OH237679   2.209   4.962   7.275  0.3466 -0.2981 -0.2611
 4495TIP3    H137680   2.219   5.016   7.353  0.9996 -0.2351 -0.3874
 4495TIP3    H237681   2.208   5.025   7.203 -0.6816 -0.3212 -0.2824
 4496TIP3   OH237682   4.005   3.109   8.893 -0.5882 -0.5327 -0.1885
 4496TIP3    H137683   3.982   3.194   8.857 -0.8204 -0.3316  0.4242
 4496TIP3    H237684   4.091   3.090   8.854 -0.0597  0.4504  0.4409
 4497TIP3   OH237685   5.111   7.057   8.466  0.0938  0.6928 -0.6664
 4497TIP3    H137686   5.024   7.039   8.431 -1.1276 -0.7794  2.6611
 4497TIP3    H237687   5.111   7.151   8.485 -1.4325  0.4652  0.6943
 4498TIP3   OH237688   2.714   0.565   8.524  0.2296  0.7666  0.2820
 4498TIP3    H137689   2.730   0.506   8.598  0.3592  0.5642  0.0944
 4498TIP3    H237690   2.662   0.513   8.463 -3.0192  2.0238  1.7432
 4499TIP3   OH237691   0.135   1.444   8.287  0.6162 -0.1119 -0.5345
 4499TIP3    H137692   0.078   1.493   8.227  0.2376 -0.4201 -0.4364
 4499TIP3    H237693   0.155   1.363   8.239 -2.3756 -1.9024  0.9607
 4500TIP3   OH237694   1.521   6.260   8.968  0.3020  0.1928  0.1121
 4500TIP3    H137695   1.614   6.242   8.972  0.6369  1.4400 -1.2047
 4500TIP3    H237696   1.502   6.308   9.048  0.1100 -2.6099  1.8926
 4501TIP3   OH237697   6.442   3.750   9.047  0.8596 -0.2761  0.2783
 4501TIP3    H137698   6.402   3.663   9.053  0.6245 -0.0944  1.5749
 4501TIP3    H237699   6.535   3.736   9.069  0.8599 -0.2287  0.3084
 4502TIP3   OH237700   0.470   1.748   8.392 -0.1799  0.4801 -0.3956
 4502TIP3    H137701   0.496   1.831   8.352 -1.3757  2.5000  2.7226
 4502TIP3    H237702   0.553   1.704   8.412  0.4808  1.1580 -1.5669
 4503TIP3   OH237703   5.953   0.606   9.625 -0.2257  0.2889  0.1928
 4503TIP3    H137704   5.916   0.525   9.590  0.0703 -0.0907  0.7516
 4503TIP3    H237705   5.947   0.597   9.720 -0.9214  1.2682  0.2554
 4504TIP3   OH237706   3.550   0.169   8.023 -0.5152  0.3989  0.5666
 4504TIP3    H137707   3.559   0.078   7.992  3.0392  0.4427  1.0983
 4504TIP3    H237708   3.639   0.202   8.028 -1.6874  4.1112  0.1031
 4505TIP3   OH237709   1.559   7.123   9.142 -0.3286  0.0460  0.7696
 4505TIP3    H137710   1.501   7.056   9.106  1.1085 -0.5544 -0.5398
 4505TIP3    H237711   1.643   7.109   9.097  0.4091  1.8313  1.4980
 4506TIP3   OH237712   0.791   5.231   7.839  0.4802  0.4875 -0.1118
 4506TIP3    H137713   0.778   5.199   7.928 -0.9193 -0.7157 -0.7157
 4506TIP3    H237714   0.854   5.303   7.849 -1.1367  1.7349  2.1022
 4507TIP3   OH237715   0.882   0.843   9.041 -0.5640 -0.2601 -0.3400
 4507TIP3    H137716   0.795   0.828   9.003 -0.1384  0.8428 -1.8540
 4507TIP3    H237717   0.943   0.822   8.971  0.3310  0.5435  0.1733
 4508TIP3   OH237718   6.969   0.607   9.152 -0.4800  0.1479  0.1611
 4508TIP3    H137719   6.938   0.677   9.094  0.0537 -0.2696 -0.6474
 4508TIP3    H237720   6.902   0.539   9.145  0.1594 -0.3909 -0.9028
 4509TIP3   OH237721   3.664   7.098   7.339 -0.2862  0.6230  0.5284
 4509TIP3    H137722   3.622   7.015   7.315  0.5404  0.4293 -0.2987
 4509TIP3    H237723   3.600   7.165   7.313 -0.7943  0.2698  0.8433
 4510TIP3   OH237724   2.422   4.553   8.951 -0.0074  0.3436  0.5549
 4510TIP3    H137725   2.355   4.486   8.964 -1.2369  1.4524  0.2732
 4510TIP3    H237726   2.498   4.506   8.918 -0.8108 -0.9134  0.4310
 4511TIP3   OH237727   3.358   3.712   7.200  0.5681  0.2951 -0.5560
 4511TIP3    H137728   3.362   3.770   7.124  1.4620 -0.6528 -1.2583
 4511TIP3    H237729   3.412   3.637   7.176 -0.5507 -0.8422  0.3250
 4512TIP3   OH237730   0.645   2.245   6.645 -0.0759  0.0538  0.3811
 4512TIP3    H137731   0.667   2.152   6.640  0.2677  0.1592 -0.2027
 4512TIP3    H237732   0.717   2.285   6.693  0.0996  0.1118  0.0758
 4513TIP3   OH237733   2.963   3.712   7.521 -0.3623 -0.3255 -0.1699
 4513TIP3    H137734   2.933   3.623   7.540  1.9262 -1.0650  0.2110
 4513TIP3    H237735   3.039   3.700   7.464 -0.4091  1.4350 -0.6520
 4514TIP3   OH237736   7.284   1.886   8.756  0.8140 -0.3024  0.1145
 4514TIP3    H137737   7.329   1.939   8.821 -1.6892  0.6176  1.2498
 4514TIP3    H237738   7.325   1.800   8.761  2.0979  0.3595  1.3551
 4515TIP3   OH237739   1.812   0.867   7.368  0.8569  0.5862  0.0520
 4515TIP3    H137740   1.734   0.850   7.315  1.0507  0.8570 -0.3194
 4515TIP3    H237741   1.788   0.837   7.456  0.3113  0.7398 -0.0446
 4516TIP3   OH237742   5.067   3.415   8.457 -0.4070  0.4639  0.1931
 4516TIP3    H137743   5.072   3.367   8.374 -3.0181 -2.4563  1.5182
 4516TIP3    H237744   4.990   3.470   8.449 -1.6498 -1.0608  1.1674
 4517TIP3   OH237745   4.390   5.353   8.643 -0.4020 -0.4301  0.3616
 4517TIP3    H137746   4.406   5.267   8.681  1.4887 -0.8994 -1.3470
 4517TIP3    H237747   4.319   5.338   8.580 -0.8760 -0.4525  0.8852
 4518TIP3   OH237748   7.323   6.993   9.360 -0.6149 -0.3097  0.0446
 4518TIP3    H137749   7.269   7.064   9.325 -0.5770  0.4700  1.4684
 4518TIP3    H237750   7.307   6.919   9.302 -2.2049  0.2882 -0.3285
 4519TIP3   OH237751   2.715   3.177   8.888  0.3517  0.1895  1.0262
 4519TIP3    H137752   2.628   3.146   8.912  0.7641  0.6179  3.2923
 4519TIP3    H237753   2.775   3.120   8.937  1.3962 -0.3113 -0.7354
 4520TIP3   OH237754   6.204   4.775   8.442 -0.1054  0.1963 -0.4739
 4520TIP3    H137755   6.141   4.823   8.389  0.7116  0.7278 -1.0006
 4520TIP3    H237756   6.198   4.815   8.529  0.9129  1.6464 -1.0218
 4521TIP3   OH237757   4.863   0.775   9.222  0.0821 -0.4213 -0.2066
 4521TIP3    H137758   4.840   0.860   9.260  0.9811 -0.5407  0.6482
 4521TIP3    H237759   4.828   0.778   9.133 -1.9566 -0.0807  0.5695
 4522TIP3   OH237760   6.686   7.058   7.215  0.1987 -0.0793  0.1052
 4522TIP3    H137761   6.706   7.151   7.220 -1.2631  0.4366 -1.9982
 4522TIP3    H237762   6.630   7.050   7.137 -1.0551 -2.4740  1.1370
 4523TIP3   OH237763   2.129   0.924   8.485  0.4544  0.3352  0.1413
 4523TIP3    H137764   2.072   0.847   8.485  1.4057 -0.3831  0.8973
 4523TIP3    H237765   2.071   0.996   8.511 -0.2320 -0.2822  0.3559
 4524TIP3   OH237766   5.299   3.127   8.936  0.1086  0.2723 -0.2205
 4524TIP3    H137767   5.341   3.152   8.854 -2.0117  1.9091 -0.8937
 4524TIP3    H237768   5.356   3.164   9.004 -0.1037  2.2635 -1.0821
 4525TIP3   OH237769   4.346   0.728   9.783 -0.5206 -0.0539 -0.0001
 4525TIP3    H137770   4.251   0.724   9.786 -0.4961 -1.6569 -0.6525
 4525TIP3    H237771   4.365   0.815   9.746 -1.7280  0.1538 -0.1699
 4526TIP3   OH237772   3.267   2.294   9.436  0.1426 -0.0919  0.9805
 4526TIP3    H137773   3.328   2.258   9.499  0.9823  0.2630  0.3846
 4526TIP3    H237774   3.212   2.220   9.411 -0.2594 -0.2182  2.1644
 4527TIP3   OH237775   4.193   4.778   9.664 -0.5591  0.3521  0.2458
 4527TIP3    H137776   4.211   4.688   9.689 -1.5739  0.0567 -0.0539
 4527TIP3    H237777   4.275   4.810   9.626 -0.2708 -0.5222  0.1293
 4528TIP3   OH237778   5.387   5.700   7.405  0.2491 -0.1931  0.0482
 4528TIP3    H137779   5.450   5.770   7.387  0.8486 -0.8953 -0.6552
 4528TIP3    H237780   5.402   5.637   7.335 -1.0042 -0.5380  0.0824
 4529TIP3   OH237781   2.149   6.823   8.470 -0.2014 -0.0678  0.2116
 4529TIP3    H137782   2.077   6.882   8.493 -1.3442 -1.7147  1.0850
 4529TIP3    H237783   2.227   6.868   8.501 -1.1399  0.5077  1.8831
 4530TIP3   OH237784   4.776   0.633   6.971  0.3787 -0.1546  0.5898
 4530TIP3    H137785   4.744   0.619   6.882 -0.4841 -0.1184  0.8799
 4530TIP3    H237786   4.697   0.630   7.025  0.9031 -0.2792  1.3660
 4531TIP3   OH237787   0.526   6.745   7.918 -0.2610  1.0663  0.2526
 4531TIP3    H137788   0.440   6.773   7.886 -0.4053  0.0444 -0.2898
 4531TIP3    H237789   0.555   6.681   7.853  0.5967  0.8796  0.8170
 4532TIP3   OH237790   1.533   2.708   9.489  0.2330 -0.4563  0.6861
 4532TIP3    H137791   1.440   2.727   9.505  0.4713 -0.7984  2.7117
 4532TIP3    H237792   1.559   2.653   9.562  1.0971 -3.7020 -1.8274
 4533TIP3   OH237793   7.504   5.162   8.517  0.3646 -0.5248  0.5449
 4533TIP3    H137794   7.515   5.124   8.604  0.7752  2.2677  1.8132
 4533TIP3    H237795   7.582   5.216   8.504 -0.5783  0.6283 -0.7184
 4534TIP3   OH237796   4.358   6.065   7.997 -0.2936  0.2868  0.3601
 4534TIP3    H137797   4.375   6.094   8.087  1.1911  0.4435  0.0485
 4534TIP3    H237798   4.401   6.131   7.942  0.7023 -0.9727 -0.4198
 4535TIP3   OH237799   3.829   6.424   8.596  0.2544  0.0784  0.8659
 4535TIP3    H137800   3.895   6.374   8.644 -0.1827 -0.0675  1.3227
 4535TIP3    H237801   3.816   6.376   8.515  0.2801 -0.2100  1.0326
 4536TIP3   OH237802   4.318   1.021   7.094 -0.3125 -0.5035  0.4206
 4536TIP3    H137803   4.375   0.996   7.166  0.6873  0.8760  0.1415
 4536TIP3    H237804   4.314   1.117   7.098 -2.8206 -0.5308  0.5778
 4537TIP3   OH237805   2.463   0.042   8.348 -0.2844  0.2881 -0.7837
 4537TIP3    H137806   2.433  -0.047   8.326 -0.4059 -0.2034  1.2262
 4537TIP3    H237807   2.547   0.050   8.303 -1.4154  0.1512 -3.1095
 4538TIP3   OH237808   3.683   6.571   8.086 -0.0011 -0.6460  0.2237
 4538TIP3    H137809   3.692   6.606   8.174 -2.0722  0.3946  0.0847
 4538TIP3    H237810   3.589   6.575   8.068  0.4310 -0.1143 -2.3035
 4539TIP3   OH237811   7.528   3.336   7.019  0.7234  0.3389  0.1716
 4539TIP3    H137812   7.510   3.244   7.035  3.1186 -0.1827  0.2426
 4539TIP3    H237813   7.519   3.346   6.924 -0.9222  0.4117  0.3069
 4540TIP3   OH237814   4.746   5.773   8.199 -0.3845  0.1844  0.0150
 4540TIP3    H137815   4.651   5.765   8.197 -0.5805  0.9413  2.5498
 4540TIP3    H237816   4.763   5.866   8.180 -0.4876  0.9250  3.0578
 4541TIP3   OH237817   2.081   4.288   9.146  0.3979 -0.5883 -0.0579
 4541TIP3    H137818   2.130   4.355   9.098 -0.7744  0.7326  0.5231
 4541TIP3    H237819   2.007   4.267   9.089  0.4223 -0.9425  0.0373
 4542TIP3   OH237820   1.314   4.764   7.064  0.4755  0.5084  0.0026
 4542TIP3    H137821   1.310   4.708   6.987  1.5922 -1.2447  1.1624
 4542TIP3    H237822   1.223   4.784   7.084  0.1560  0.9298 -1.6878
 4543TIP3   OH237823   3.439   7.266   7.219  0.0239  0.8023 -0.4238
 4543TIP3    H137824   3.508   7.330   7.202 -0.0372  0.4840 -2.0140
 4543TIP3    H237825   3.422   7.226   7.133 -0.1550 -1.1188  0.4524
 4544TIP3   OH237826   5.181   4.114   7.881 -0.6867  0.0389 -0.0897
 4544TIP3    H137827   5.156   4.105   7.973  0.5416 -0.3294  0.2271
 4544TIP3    H237828   5.174   4.025   7.846 -0.3851  0.0324 -0.1383
 4545TIP3   OH237829   4.186   3.349   7.875  0.4521  0.1668  0.3194
 4545TIP3    H137830   4.196   3.432   7.828  0.6231  1.1977  2.0953
 4545TIP3    H237831   4.133   3.295   7.817  1.2292  1.1179 -1.3597
 4546TIP3   OH237832   2.940   3.130   8.198 -0.3203 -0.0091  0.0974
 4546TIP3    H137833   2.982   3.075   8.264 -0.4607 -0.0038  0.1921
 4546TIP3    H237834   2.965   3.090   8.114 -0.3642 -0.1744  0.1629
 4547TIP3   OH237835   4.450   5.753   8.109  0.6941 -0.0750  0.1130
 4547TIP3    H137836   4.427   5.842   8.083  0.0299 -0.7720 -1.8652
 4547TIP3    H237837   4.407   5.742   8.194 -0.8320  0.8651 -0.4826
 4548TIP3   OH237838   3.908   6.637   8.891 -0.1691 -0.1811  0.2929
 4548TIP3    H137839   3.869   6.724   8.885 -0.4042 -0.2708  0.4661
 4548TIP3    H237840   3.848   6.588   8.947 -1.0698 -1.0197 -1.3246
 4549TIP3   OH237841   2.870   0.239   7.753  0.5850  0.0094  0.2847
 4549TIP3    H137842   2.794   0.263   7.805 -0.0718 -0.4493 -0.4341
 4549TIP3    H237843   2.945   0.255   7.810  0.0533  1.7670  0.5595
 4550TIP3   OH237844   1.804   3.772   9.297  0.0670  0.6770 -0.3618
 4550TIP3    H137845   1.880   3.767   9.239  0.7340  0.5437  0.4939
 4550TIP3    H237846   1.768   3.684   9.296  2.5809 -0.5858  2.6202
 4551TIP3   OH237847   7.025   1.709   9.238 -0.0498 -0.0952 -0.0846
 4551TIP3    H137848   6.979   1.788   9.268  0.2350 -0.2273  0.7173
 4551TIP3    H237849   6.958   1.656   9.196 -0.2177  0.6353 -0.7565
 4552TIP3   OH237850   2.799   4.428   8.842 -0.1243  0.1815 -0.3445
 4552TIP3    H137851   2.826   4.357   8.900 -1.0366 -0.2268 -0.4061
 4552TIP3    H237852   2.848   4.413   8.761  1.2775  0.8410  0.3380
 4553TIP3   OH237853   3.860   6.294   9.659  0.0255  0.1934  0.0261
 4553TIP3    H137854   3.943   6.339   9.677 -0.3481 -0.1034  2.9437
 4553TIP3    H237855   3.885   6.211   9.620  1.1220  0.1379  0.8152
 4554TIP3   OH237856   0.668   6.967   7.953 -0.0544 -0.0288 -0.2440
 4554TIP3    H137857   0.678   7.002   8.042 -1.1970  1.7898 -0.7825
 4554TIP3    H237858   0.613   6.890   7.963  2.2540 -1.6494  0.9395
 4555TIP3   OH237859   3.411   1.359   6.452 -0.1851 -0.3244 -0.8219
 4555TIP3    H137860   3.456   1.294   6.507  0.8568  2.0521  1.3346
 4555TIP3    H237861   3.473   1.377   6.381  0.0339 -0.8047 -0.7598
 4556TIP3   OH237862   4.585   1.721   9.503  0.3059  0.5879 -0.2580
 4556TIP3    H137863   4.633   1.799   9.530 -2.0786  1.7338  1.0433
 4556TIP3    H237864   4.492   1.746   9.512 -0.5403 -2.0591 -0.7912
 4557TIP3   OH237865   7.180   0.577   8.865  0.4733  0.4727  0.3751
 4557TIP3    H137866   7.147   0.667   8.868 -0.7381  0.0628 -0.1225
 4557TIP3    H237867   7.247   0.574   8.933  0.6749  1.8099  0.2614
 4558TIP3   OH237868   3.343   2.366   7.277  0.0777  0.3209  0.0783
 4558TIP3    H137869   3.434   2.338   7.280  0.6215  2.0115  0.1811
 4558TIP3    H237870   3.346   2.462   7.284 -1.7960  0.3277  2.3360
 4559TIP3   OH237871   4.820   4.319   9.516  0.1597 -0.4760 -0.2873
 4559TIP3    H137872   4.819   4.245   9.455 -1.1497  0.0542 -0.9650
 4559TIP3    H237873   4.740   4.309   9.567 -2.1869  2.4140 -2.9522
 4560TIP3   OH237874   5.855   3.987   8.615 -0.1610  0.1588 -1.2849
 4560TIP3    H137875   5.945   3.983   8.644 -0.9299 -0.2596  1.2458
 4560TIP3    H237876   5.847   4.072   8.572  0.9633  1.0582  0.1872
 4561TIP3   OH237877   7.279   1.767   8.254  0.0605 -0.2198  0.0372
 4561TIP3    H137878   7.302   1.678   8.227 -0.9121 -0.7161  0.7544
 4561TIP3    H237879   7.191   1.781   8.217 -0.8494 -0.5242  1.9469
 4562TIP3   OH237880   3.348   5.843   8.296 -0.6284 -0.0960 -0.3069
 4562TIP3    H137881   3.419   5.787   8.327 -0.3055 -0.0992 -1.0390
 4562TIP3    H237882   3.392   5.922   8.265 -0.8579 -0.4012 -1.4684
 4563TIP3   OH237883   2.235   1.975   8.227  0.0033  0.0931 -0.8337
 4563TIP3    H137884   2.189   1.910   8.175 -0.7203  1.0917 -1.4644
 4563TIP3    H237885   2.252   1.931   8.310  0.2344 -1.1605 -1.5165
 4564TIP3   OH237886   6.263   7.528   9.323  0.5071 -0.5560  0.4730
 4564TIP3    H137887   6.304   7.611   9.350 -0.3332  0.1404 -0.3139
 4564TIP3    H237888   6.315   7.499   9.249 -0.4811  0.4326 -0.6559
 4565TIP3   OH237889   4.677   6.236   7.251  0.2526 -0.3649 -0.2789
 4565TIP3    H137890   4.711   6.213   7.165  1.6461  0.7083 -0.0392
 4565TIP3    H237891   4.735   6.305   7.283 -0.8649 -0.0059  1.0838
 4566TIP3   OH237892   4.796   2.566   8.563 -0.2466 -0.2435  0.4950
 4566TIP3    H137893   4.866   2.514   8.523  0.0064 -0.8608  1.6840
 4566TIP3    H237894   4.728   2.502   8.585 -0.7964  0.2252  0.1854
 4567TIP3   OH237895   2.592   6.001   9.070 -0.4625 -1.0616  0.0157
 4567TIP3    H137896   2.567   5.963   8.985  1.5627 -0.9464 -0.6831
 4567TIP3    H237897   2.573   5.932   9.133 -3.7049 -0.5362 -0.1964
 4568TIP3   OH237898   3.346   4.259   8.975  0.4802  0.6551  0.3903
 4568TIP3    H137899   3.301   4.176   8.961 -0.1169  0.7311  1.7235
 4568TIP3    H237900   3.414   4.239   9.040  1.6062  0.8126 -0.6895
 4569TIP3   OH237901   4.133   1.485   7.048 -0.2775  0.1624 -0.0345
 4569TIP3    H137902   4.151   1.493   6.955  1.1144 -1.0373  0.0916
 4569TIP3    H237903   4.186   1.410   7.077 -1.4130 -0.0989  1.5297
 4570TIP3   OH237904   0.467   3.455   6.615 -0.1934  0.3006 -0.2657
 4570TIP3    H137905   0.528   3.529   6.621 -0.9034  0.7812  1.4118
 4570TIP3    H237906   0.506   3.387   6.670 -0.8535  0.3839  0.3079
 4571TIP3   OH237907   7.163   6.810   7.530 -0.4177  0.1440 -0.7351
 4571TIP3    H137908   7.228   6.744   7.504 -2.2001 -0.8546 -3.0070
 4571TIP3    H237909   7.203   6.855   7.604  2.5076 -0.9407 -1.5178
 4572TIP3   OH237910   1.667   3.732   7.343 -0.2094  0.7304 -0.3833
 4572TIP3    H137911   1.675   3.637   7.341  1.0679  0.7454  1.3376
 4572TIP3    H237912   1.702   3.761   7.259  0.6134 -0.2578 -0.3971
 4573TIP3   OH237913   4.986   5.565   7.607  0.0754 -0.5369 -0.1615
 4573TIP3    H137914   5.075   5.589   7.631  0.5338 -0.0252 -2.2194
 4573TIP3    H237915   4.984   5.470   7.619  0.7622 -0.5057  0.2824
 4574TIP3   OH237916   3.985   3.622   8.899  0.8253 -0.4555 -0.2457
 4574TIP3    H137917   3.928   3.665   8.836  0.4220 -0.0264  0.4070
 4574TIP3    H237918   4.072   3.656   8.879  0.6530 -0.0850 -0.3686
 4575TIP3   OH237919   3.153   0.121   9.432 -0.1306  0.6740  0.5104
 4575TIP3    H137920   3.216   0.171   9.380 -0.7780 -0.5361 -1.6044
 4575TIP3    H237921   3.151   0.035   9.389 -0.4178 -0.5608  2.8690
 4576TIP3   OH237922   0.643   2.029   8.275 -0.2585 -0.2531 -0.6804
 4576TIP3    H137923   0.688   1.993   8.351 -0.3477  1.3943  0.2106
 4576TIP3    H237924   0.666   1.970   8.203 -1.0007 -2.4550  0.7835
 4577TIP3   OH237925   2.492   6.032   7.771 -0.7089  0.6947 -0.1116
 4577TIP3    H137926   2.499   6.050   7.865 -2.3004  0.8466 -0.0117
 4577TIP3    H237927   2.424   5.966   7.764  1.0754 -1.1760 -0.9764
 4578TIP3   OH237928   4.264   2.265   8.416  0.0401 -0.2537  0.3197
 4578TIP3    H137929   4.324   2.224   8.353  0.2773  0.6773 -0.0807
 4578TIP3    H237930   4.192   2.202   8.425  0.6613 -1.0066  0.1639
 4579TIP3   OH237931   1.525   1.085   8.183  0.3857 -0.0048 -0.5931
 4579TIP3    H137932   1.468   1.146   8.230  1.2951  0.4786 -0.1028
 4579TIP3    H237933   1.610   1.095   8.225  0.5017 -1.7987 -0.3392
 4580TIP3   OH237934   5.943   7.046   7.815 -0.5310  0.1277 -0.0331
 4580TIP3    H137935   5.890   7.090   7.749  0.9740 -0.1897 -1.4993
 4580TIP3    H237936   5.880   6.994   7.866 -2.0731  2.3726  0.4975
 4581TIP3   OH237937   6.057   6.844   8.044 -0.0987  0.1479 -0.3832
 4581TIP3    H137938   5.969   6.878   8.025 -0.8775 -1.4574  0.1642
 4581TIP3    H237939   6.056   6.824   8.138  0.0243 -2.0315 -0.7846
 4582TIP3   OH237940   0.192   1.500   7.717 -0.2355 -0.5213  0.3253
 4582TIP3    H137941   0.267   1.516   7.660  1.0443 -2.9198  1.1885
 4582TIP3    H237942   0.124   1.468   7.659  0.4915 -1.3227 -0.1178
 4583TIP3   OH237943   0.914   0.650   7.656  0.2543 -0.3425  0.6032
 4583TIP3    H137944   0.878   0.578   7.706  0.8887  0.1569  1.8093
 4583TIP3    H237945   0.993   0.677   7.704  0.1476  1.0166  0.0790
 4584TIP3   OH237946   1.149   4.827   6.634 -0.1009  0.8672 -0.2819
 4584TIP3    H137947   1.128   4.874   6.554 -0.7085 -0.7250 -1.1071
 4584TIP3    H237948   1.067   4.784   6.659  1.3360 -3.5782 -2.2483
 4585TIP3   OH237949   6.103   7.211   8.867 -0.1028  0.4337  0.2877
 4585TIP3    H137950   6.106   7.233   8.960  0.0181 -0.1939  0.4378
 4585TIP3    H237951   6.073   7.120   8.865 -0.5696  0.5926 -0.3130
 4586TIP3   OH237952   1.334   7.055   7.546 -0.3612  0.1979  0.0716
 4586TIP3    H137953   1.310   7.058   7.454  0.9701  1.3644 -0.2852
 4586TIP3    H237954   1.392   7.131   7.558  1.7639 -1.4670  1.1777
 4587TIP3   OH237955   3.116   6.118   6.912  0.0848  0.1363  0.3782
 4587TIP3    H137956   3.191   6.090   6.859 -0.8690 -0.6353 -0.6197
 4587TIP3    H237957   3.041   6.075   6.871 -1.3703  3.3274 -0.6149
 4588TIP3   OH237958   1.156   2.524   8.654 -0.3749 -0.2421  0.3589
 4588TIP3    H137959   1.142   2.617   8.636 -0.4455  0.0541  1.8299
 4588TIP3    H237960   1.089   2.501   8.718  0.7671 -0.8366  1.3986
 4589TIP3   OH237961   0.268   5.485   7.555  0.3196 -0.6143 -0.7373
 4589TIP3    H137962   0.323   5.563   7.545 -0.2627 -0.1934 -0.7206
 4589TIP3    H237963   0.219   5.500   7.635  1.9950 -2.1312  0.6635
 4590TIP3   OH237964   5.680   2.526   9.244 -0.2992  0.1521  0.3274
 4590TIP3    H137965   5.666   2.449   9.189  3.3860  0.0804 -0.7337
 4590TIP3    H237966   5.659   2.600   9.186 -3.2582  0.1095  1.1676
 4591TIP3   OH237967   6.070   5.800   9.695 -0.0058 -0.5092  0.1893
 4591TIP3    H137968   6.072   5.880   9.643  2.0979 -1.3937 -1.2399
 4591TIP3    H237969   6.069   5.730   9.630 -0.4961 -1.6457  1.3949
 4592TIP3   OH237970   5.217   6.435   7.961 -0.0100 -0.1308  0.0388
 4592TIP3    H137971   5.311   6.442   7.979  0.1584 -0.1812 -0.8224
 4592TIP3    H237972   5.196   6.345   7.984  0.5395 -0.6786 -1.5228
 4593TIP3   OH237973   6.703   2.873   8.410 -0.1314  0.8106  0.9738
 4593TIP3    H137974   6.769   2.930   8.450  0.5845 -0.3344  1.4845
 4593TIP3    H237975   6.752   2.795   8.383 -0.8259  0.9993 -1.0037
 4594TIP3   OH237976   2.022   5.645   8.531  0.1800 -0.2884 -0.2963
 4594TIP3    H137977   2.095   5.586   8.549  1.3357  0.3398 -2.5166
 4594TIP3    H237978   2.056   5.706   8.466 -2.7216 -0.7648 -2.4497
 4595TIP3   OH237979   5.669   2.665   7.937  0.0394 -0.1307 -0.4111
 4595TIP3    H137980   5.603   2.633   7.876 -0.6403  2.5602 -1.2411
 4595TIP3    H237981   5.748   2.673   7.885 -0.9215  3.7000 -1.6283
 4596TIP3   OH237982   3.159   0.629   9.472 -0.1170 -0.0529 -0.2184
 4596TIP3    H137983   3.113   0.670   9.545 -1.3539  1.6769 -1.8728
 4596TIP3    H237984   3.250   0.623   9.501 -0.4878  1.0571  1.2714
 4597TIP3   OH237985   6.061   6.128   8.796 -0.1452 -0.0845 -0.1379
 4597TIP3    H137986   6.054   6.223   8.803 -1.6623 -0.0753 -1.3691
 4597TIP3    H237987   6.080   6.111   8.703 -0.2716 -0.9998 -0.0136
 4598TIP3   OH237988   3.634   6.895   8.027  0.1462  0.0084  0.2715
 4598TIP3    H137989   3.658   6.934   8.111  1.3233 -1.0023  0.4351
 4598TIP3    H237990   3.666   6.805   8.033 -2.1998 -0.9276 -0.2142
 4599TIP3   OH237991   1.966   0.359   7.412  0.1288 -0.6364 -0.1759
 4599TIP3    H137992   1.963   0.333   7.504  0.0429 -1.9976 -0.5331
 4599TIP3    H237993   2.054   0.335   7.383  0.9477  1.8288  0.0765
 4600TIP3   OH237994   1.513   7.401   8.331 -0.3340  0.3110 -0.0877
 4600TIP3    H137995   1.501   7.408   8.426 -0.4277  1.9558 -0.1828
 4600TIP3    H237996   1.535   7.490   8.304 -1.5372  0.1373 -1.7668
 4601TIP3   OH237997   1.041   6.107   8.025  0.1167 -0.5771  0.0673
 4601TIP3    H137998   0.996   6.191   8.023 -0.2881 -0.7833  0.4245
 4601TIP3    H237999   1.115   6.121   8.085  0.0687 -0.4722  0.1022
 4602TIP3   OH238000   6.121   2.296   7.904  0.0827  0.0914  0.0168
 4602TIP3    H138001   6.127   2.223   7.842  2.6034  0.9431 -0.8695
 4602TIP3    H238002   6.164   2.369   7.859  0.5235  1.2073  2.1301
 4603TIP3   OH238003   6.683   5.189   6.586  0.2314  0.3778 -0.5058
 4603TIP3    H138004   6.730   5.110   6.560  0.2836  0.7709 -1.6925
 4603TIP3    H238005   6.625   5.161   6.657  1.6567 -0.2838  0.4381
 4604TIP3   OH238006   4.435   3.281   7.971  0.0736  0.1831 -0.1891
 4604TIP3    H138007   4.343   3.297   7.951 -0.0094 -1.3032 -1.1517
 4604TIP3    H238008   4.467   3.365   8.004 -1.1120  1.3066 -1.7104
 4605TIP3   OH238009   6.299   7.085   8.422 -0.1412 -0.4322 -0.9751
 4605TIP3    H138010   6.379   7.090   8.476 -0.0342 -0.3608 -1.1405
 4605TIP3    H238011   6.270   7.176   8.415 -1.8181 -0.7020  1.4470
 4606TIP3   OH238012   7.168   3.547   7.399 -0.0835 -0.4932 -0.1698
 4606TIP3    H138013   7.111   3.519   7.470 -0.8753 -2.1651 -1.4076
 4606TIP3    H238014   7.176   3.470   7.343  0.3676  0.8228 -1.9959
 4607TIP3   OH238015   0.271   0.456   8.404  0.4752 -0.0204  0.2708
 4607TIP3    H138016   0.291   0.543   8.440 -1.1344  0.5134 -0.0551
 4607TIP3    H238017   0.206   0.473   8.336 -0.2656 -1.5568  0.5722
 4608TIP3   OH238018   6.705   5.421   8.734  0.1868  0.6058  0.0629
 4608TIP3    H138019   6.717   5.511   8.765 -1.0362  0.6762  0.4072
 4608TIP3    H238020   6.641   5.429   8.663 -0.4453 -0.0516  0.5392
 4609TIP3   OH238021   7.263   0.063   9.476  0.1223 -0.1883 -0.3020
 4609TIP3    H138022   7.317  -0.012   9.452  2.6091  1.0819  0.9008
 4609TIP3    H238023   7.295   0.134   9.419 -1.0498  0.3579 -0.2983
 4610TIP3   OH238024   4.298   2.052   8.684  0.2681  0.1206  0.6018
 4610TIP3    H138025   4.341   2.000   8.617 -0.5197 -0.8135  0.8092
 4610TIP3    H238026   4.341   2.138   8.678  1.3985 -0.4524  0.0793
 4611TIP3   OH238027   5.653   1.524   7.842 -0.3988 -0.3727 -0.5330
 4611TIP3    H138028   5.730   1.575   7.867  0.6312 -2.5668  1.0099
 4611TIP3    H238029   5.590   1.537   7.913 -0.3819 -0.7602 -0.4461
 4612TIP3   OH238030   6.855   1.497   7.268  0.3073 -0.2339  0.0360
 4612TIP3    H138031   6.850   1.487   7.363 -0.5779  1.5892  0.2365
 4612TIP3    H238032   6.869   1.591   7.255  1.8957 -0.6444 -1.6230
 4613TIP3   OH238033   7.100   2.923   7.372  0.0842  0.3353  0.1700
 4613TIP3    H138034   7.050   2.991   7.326 -1.2394 -0.7678 -0.0799
 4613TIP3    H238035   7.133   2.867   7.302  0.0904  0.0077  0.4331
 4614TIP3   OH238036   7.100   1.211   7.045  0.1385 -0.0247  0.3870
 4614TIP3    H138037   7.173   1.157   7.015  1.5172  0.7244  2.1774
 4614TIP3    H238038   7.025   1.151   7.048  1.0413 -1.2145  0.0142
 4615TIP3   OH238039   0.419   5.638   9.189 -0.4867  0.1300 -0.0991
 4615TIP3    H138040   0.344   5.640   9.249 -0.1023  0.6690  0.3751
 4615TIP3    H238041   0.492   5.608   9.244  0.1083  1.6524  0.0005
 4616TIP3   OH238042   3.965   5.869   7.269  0.8097  0.3270 -0.1721
 4616TIP3    H138043   4.014   5.795   7.304 -0.1258 -0.2416 -0.0325
 4616TIP3    H238044   3.922   5.834   7.191 -1.2950  0.1018  1.0059
 4617TIP3   OH238045   7.385   0.159   7.312  0.0103  0.3313 -0.6428
 4617TIP3    H138046   7.416   0.123   7.395  0.1611 -0.9781 -1.2346
 4617TIP3    H238047   7.319   0.224   7.336 -1.1640 -1.1959  0.4839
 4618TIP3   OH238048   4.433   6.097   7.649  0.2028  0.2367  0.0484
 4618TIP3    H138049   4.449   6.014   7.604 -2.0291 -0.5875  0.6417
 4618TIP3    H238050   4.417   6.160   7.578 -1.8628 -0.7287 -0.4119
 4619TIP3   OH238051   6.487   5.021   8.602  0.3349 -0.0034  0.0723
 4619TIP3    H138052   6.469   5.069   8.521  1.0452  0.2067  0.0331
 4619TIP3    H238053   6.580   4.999   8.597  0.6984  1.0707  1.3769
 4620TIP3   OH238054   3.000   3.411   7.382 -0.0530 -0.3782  0.2849
 4620TIP3    H138055   3.071   3.472   7.363 -0.1328 -0.3894 -0.0498
 4620TIP3    H238056   2.963   3.442   7.465 -1.9273  1.7836 -1.2252
 4621TIP3   OH238057   2.019   0.331   7.699  0.6030  0.3323  0.3699
 4621TIP3    H138058   2.109   0.320   7.730  0.6001  1.0264  0.6487
 4621TIP3    H238059   1.966   0.285   7.764  0.6439  1.2705  1.0941
 4622TIP3   OH238060   4.430   0.699   9.295 -0.7507  0.3383 -0.6513
 4622TIP3    H138061   4.408   0.654   9.213  0.3759 -0.0848 -0.7344
 4622TIP3    H238062   4.453   0.629   9.355  0.2781  0.7554 -0.5446
 4623TIP3   OH238063   1.212   6.271   8.586 -0.0552 -0.4550  0.2394
 4623TIP3    H138064   1.243   6.243   8.672  0.5058  0.5596  0.3883
 4623TIP3    H238065   1.252   6.357   8.573 -1.8258  0.3612 -0.1208
 4624TIP3   OH238066   0.945   3.954   6.101  0.2058 -0.7852 -0.3452
 4624TIP3    H138067   0.905   3.881   6.148 -0.1931  0.0918  0.7315
 4624TIP3    H238068   0.876   3.984   6.042  1.1496 -2.7558 -2.6003
 4625TIP3   OH238069   2.986   5.676   9.188 -0.0287  0.1725 -0.2614
 4625TIP3    H138070   2.928   5.602   9.171  0.8865 -0.4067 -0.9493
 4625TIP3    H238071   3.073   5.638   9.190  0.3407  1.0248  0.7884
 4626TIP3   OH238072   0.826   0.927   7.219  0.0633 -0.1829 -0.1206
 4626TIP3    H138073   0.806   1.020   7.229  0.9387  0.1174 -1.0189
 4626TIP3    H238074   0.857   0.900   7.306  0.1971  0.4628  0.0400
 4627TIP3   OH238075   0.563   5.056   8.172  0.4563  0.3650 -0.6398
 4627TIP3    H138076   0.615   5.127   8.135  0.3114  1.2032  0.6729
 4627TIP3    H238077   0.595   5.047   8.262  1.4575 -2.2298 -1.1775
 4628TIP3   OH238078   6.664   0.994   7.258 -0.2298  1.1565 -0.3777
 4628TIP3    H138079   6.581   0.947   7.266  1.7048 -2.4213  1.0092
 4628TIP3    H238080   6.671   1.015   7.165 -0.4474 -3.2184 -1.5829
 4629TIP3   OH238081   0.333   6.113   9.049  0.1755 -0.1309 -1.1855
 4629TIP3    H138082   0.398   6.098   8.981 -0.2942 -1.8570 -1.2821
 4629TIP3    H238083   0.314   6.027   9.084 -1.2100  0.4784 -0.3583
 4630TIP3   OH238084   7.321   0.972   8.886 -0.0770  0.0351 -0.0706
 4630TIP3    H138085   7.392   0.913   8.861 -0.2077  0.2339 -0.9705
 4630TIP3    H238086   7.352   1.015   8.966  0.1915 -0.9429  0.3645
 4631TIP3   OH238087   6.674   6.331   8.255  0.4010 -0.4976  0.2472
 4631TIP3    H138088   6.625   6.268   8.202  2.6938 -1.6262 -0.6682
 4631TIP3    H238089   6.632   6.328   8.341 -1.8828 -0.4303 -0.7885
 4632TIP3   OH238090   0.936   1.289   7.803  0.1548  0.1195 -0.2999
 4632TIP3    H138091   0.861   1.287   7.863 -0.1258  1.4890 -0.5591
 4632TIP3    H238092   0.984   1.208   7.821 -0.9860 -0.4283  0.3883
 4633TIP3   OH238093   3.357   3.266   7.959 -0.4000  0.2801 -0.2139
 4633TIP3    H138094   3.379   3.329   7.890 -1.7688 -0.2828 -1.2022
 4633TIP3    H238095   3.400   3.185   7.931  0.3236  0.4401  0.4121
 4634TIP3   OH238096   4.443   1.702   8.332  0.1941  0.3970 -0.4625
 4634TIP3    H138097   4.520   1.668   8.286  0.2335 -0.3311  0.1079
 4634TIP3    H238098   4.369   1.658   8.291  0.1156  0.8021 -0.7526
 4635TIP3   OH238099   5.930   3.603   7.732  0.4932  0.6163 -0.0391
 4635TIP3    H138100   5.952   3.695   7.743  0.6236  0.5712  0.0887
 4635TIP3    H238101   5.920   3.570   7.821  1.1905  0.3321 -0.0636
 4636TIP3   OH238102   2.139   2.203   7.352  0.2742 -0.4120  0.1261
 4636TIP3    H138103   2.079   2.131   7.332  0.2500 -0.2793 -0.2659
 4636TIP3    H238104   2.207   2.162   7.407  0.8395 -0.9761 -0.9669
 4637TIP3   OH238105   1.856   7.566   8.138 -1.0217  0.1766  0.4136
 4637TIP3    H138106   1.904   7.497   8.093 -0.4660  0.4060  0.6451
 4637TIP3    H238107   1.919   7.637   8.147 -0.8840 -0.1105  2.1562
 4638TIP3   OH238108   7.509   0.048   8.437 -0.0820 -0.1249  0.1675
 4638TIP3    H138109   7.445   0.082   8.374  0.1115 -0.1668 -0.0490
 4638TIP3    H238110   7.536   0.126   8.486  1.2550  0.2527 -1.1174
 4639TIP3   OH238111   5.102   5.556   9.347 -0.1920 -0.2175 -0.1588
 4639TIP3    H138112   5.160   5.518   9.413 -0.5950 -0.1509  0.2334
 4639TIP3    H238113   5.140   5.643   9.330 -0.3633 -0.0395  0.3460
 4640TIP3   OH238114   1.559   2.297   9.189  0.3672  0.3353  0.1583
 4640TIP3    H138115   1.567   2.280   9.095 -0.5322  1.6099 -0.1639
 4640TIP3    H238116   1.619   2.234   9.229  0.7285 -0.2662 -1.2590
 4641TIP3   OH238117   5.923   2.946   8.526 -0.2987 -0.4956  0.0663
 4641TIP3    H138118   5.923   2.892   8.606  2.5202 -0.8927 -0.0766
 4641TIP3    H238119   5.949   3.033   8.556 -1.7511  0.0258 -0.1241
 4642TIP3   OH238120   5.298   2.008   9.187 -0.5496 -0.6977  0.6842
 4642TIP3    H138121   5.283   1.972   9.275  1.6233  0.2975  1.5165
 4642TIP3    H238122   5.343   2.091   9.202 -0.4584 -0.3227 -1.3803
 4643TIP3   OH238123   3.812   0.135   6.924 -0.1995  0.3448 -0.1358
 4643TIP3    H138124   3.845   0.049   6.897  1.1093  0.4520  1.0038
 4643TIP3    H238125   3.729   0.145   6.877 -0.5468 -1.6671 -0.0413
 4644TIP3   OH238126   6.709   5.111   7.580 -0.1146  0.0195 -0.3196
 4644TIP3    H138127   6.710   5.118   7.675  3.4823  1.9184 -0.3602
 4644TIP3    H238128   6.744   5.023   7.562 -0.0296 -0.0357  0.1081
 4645TIP3   OH238129   1.280   4.388   8.213  0.1303 -0.1671 -0.7595
 4645TIP3    H138130   1.298   4.347   8.129  0.2296 -1.1295 -0.2936
 4645TIP3    H238131   1.255   4.477   8.192 -2.3785 -1.0754 -2.0311
 4646TIP3   OH238132   5.341   5.885   7.898  0.4481 -0.5129 -0.4647
 4646TIP3    H138133   5.321   5.903   7.807 -0.3534  0.6912 -0.0778
 4646TIP3    H238134   5.259   5.904   7.945  0.8532 -1.0703  0.5058
 4647TIP3   OH238135   6.278   2.782   8.385 -0.4859  0.0722  0.3122
 4647TIP3    H138136   6.290   2.830   8.304  0.1681 -2.8131 -1.4533
 4647TIP3    H238137   6.360   2.793   8.433 -0.7200  1.4465  0.4379
 4648TIP3   OH238138   4.199   3.277   9.112 -0.3233  0.0143  0.1288
 4648TIP3    H138139   4.138   3.238   9.174 -1.0529  0.9175  0.0062
 4648TIP3    H238140   4.181   3.232   9.029 -0.4103 -0.1295  0.2248
 4649TIP3   OH238141   0.191   3.315   9.242 -0.5683 -0.0752  0.3828
 4649TIP3    H138142   0.213   3.358   9.159 -0.6504 -0.5717  0.1041
 4649TIP3    H238143   0.268   3.329   9.297  0.0305 -0.8720 -0.2279
 4650TIP3   OH238144   3.763   0.353   8.271  0.1084 -0.0752 -0.2031
 4650TIP3    H138145   3.685   0.309   8.236 -1.0072  1.9929 -0.5014
 4650TIP3    H238146   3.728   0.429   8.318  1.8404 -0.3465  1.6778
 4651TIP3   OH238147   7.240   4.853   7.753 -0.1590  0.2882 -0.3213
 4651TIP3    H138148   7.266   4.843   7.662 -0.9751  1.6124 -0.7258
 4651TIP3    H238149   7.319   4.883   7.798  0.3737 -0.8285 -0.4688
 4652TIP3   OH238150   2.927   1.837   8.480  0.2546  0.1213  0.1296
 4652TIP3    H138151   3.000   1.895   8.459 -0.6514  1.7646  1.2882
 4652TIP3    H238152   2.850   1.893   8.479 -0.8564 -1.3248  0.1165
 4653TIP3   OH238153   4.940   1.985   8.958  0.2812  0.0786 -0.0899
 4653TIP3    H138154   4.909   1.988   8.867  0.2451 -1.1269 -0.1328
 4653TIP3    H238155   4.926   1.894   8.985  0.5166  0.3657  1.0489
 4654TIP3   OH238156   7.239   4.674   6.840  0.1418  0.3162 -0.2152
 4654TIP3    H138157   7.143   4.672   6.838  0.1385 -0.9763 -2.5186
 4654TIP3    H238158   7.263   4.732   6.767  1.1898  2.5174  1.7322
 4655TIP3   OH238159   0.172   2.573   8.362  0.5171  0.0979 -0.1235
 4655TIP3    H138160   0.174   2.645   8.425  1.5604  0.1445 -0.1940
 4655TIP3    H238161   0.081   2.542   8.363  0.9848 -1.5817  3.3115
 4656TIP3   OH238162   4.649   2.083   9.637 -0.1174 -0.6468  0.0133
 4656TIP3    H138163   4.706   2.041   9.573 -1.1112 -1.4149 -0.3742
 4656TIP3    H238164   4.707   2.144   9.684  0.8466 -0.8579 -0.8805
 4657TIP3   OH238165   3.033   4.234   7.581 -0.0681  0.1651 -0.1473
 4657TIP3    H138166   3.068   4.145   7.590  1.3058  0.4606 -1.9953
 4657TIP3    H238167   3.021   4.264   7.671  1.8469 -1.0068  0.5629
 4658TIP3   OH238168   4.217   5.924   8.402  0.1440  0.0101 -0.2578
 4658TIP3    H138169   4.305   5.958   8.387  1.3914 -2.7074  0.3745
 4658TIP3    H238170   4.191   5.961   8.487  1.2139 -0.1767  0.1561
 4659TIP3   OH238171   2.998   1.875   8.159 -0.1076  0.2468  0.3333
 4659TIP3    H138172   2.988   1.879   8.254 -1.3884 -0.0838  0.2260
 4659TIP3    H238173   3.075   1.930   8.141 -0.3212  0.9608  1.4844
 4660TIP3   OH238174   4.481   6.248   8.984 -0.3265  0.1648  0.3525
 4660TIP3    H138175   4.485   6.234   9.079 -1.4200 -0.8801  0.2729
 4660TIP3    H238176   4.496   6.162   8.946 -0.4651  0.4680 -0.4061
 4661TIP3   OH238177   5.728   1.977   7.075 -0.2835 -0.6869  0.1883
 4661TIP3    H138178   5.640   1.966   7.041 -0.4184 -0.0098  0.3040
 4661TIP3    H238179   5.748   2.070   7.061  0.4207 -0.8401  0.1310
 4662TIP3   OH238180   6.673   4.352   9.206  0.1314  0.3898 -0.4052
 4662TIP3    H138181   6.615   4.428   9.206  2.1908  2.0482 -0.3899
 4662TIP3    H238182   6.744   4.376   9.266 -0.3950 -2.6077  1.6400
 4663TIP3   OH238183   6.734   0.185   7.718  0.3122  0.0521 -0.4762
 4663TIP3    H138184   6.675   0.216   7.650 -0.5869  0.6524  0.5449
 4663TIP3    H238185   6.798   0.256   7.729 -0.8140  0.9176  0.7661
 4664TIP3   OH238186   5.828   2.492   8.824 -0.1444  0.2363 -0.0085
 4664TIP3    H138187   5.753   2.496   8.884 -1.1534  1.8890 -1.2807
 4664TIP3    H238188   5.792   2.454   8.744  0.4936  0.5969 -0.4770
 4665TIP3   OH238189   3.556   3.349   9.112  0.4950  0.0767 -0.0618
 4665TIP3    H138190   3.603   3.377   9.033  1.7472 -1.3096  0.1420
 4665TIP3    H238191   3.511   3.428   9.142 -0.0339  0.6452 -2.1463
 4666TIP3   OH238192   2.400   3.472   7.977 -0.4359  0.4608  0.0062
 4666TIP3    H138193   2.372   3.480   7.885  0.9059  0.3802 -0.4237
 4666TIP3    H238194   2.492   3.447   7.972 -0.3436  0.4721  1.3896
 4667TIP3   OH238195   1.648   3.227   9.744 -0.7569 -0.0164  0.4231
 4667TIP3    H138196   1.623   3.320   9.745 -0.9650 -0.0695 -0.0011
 4667TIP3    H238197   1.695   3.215   9.827 -0.7935  0.4496  0.5161
 4668TIP3   OH238198   2.203   2.846   8.747  0.3883 -0.5704  0.1704
 4668TIP3    H138199   2.271   2.889   8.695 -0.3584  0.0884 -0.2890
 4668TIP3    H238200   2.190   2.903   8.822  0.3546 -0.7069  0.2691
 4669TIP3   OH238201   4.465   3.890   8.982 -0.1350 -0.4109 -0.0884
 4669TIP3    H138202   4.493   3.892   9.073  0.5331 -1.3258 -0.2602
 4669TIP3    H238203   4.449   3.797   8.964  2.0467 -0.5714 -1.5651
 4670TIP3   OH238204   4.822   3.470   9.724 -0.4541  0.8624  0.4741
 4670TIP3    H138205   4.911   3.500   9.704 -1.2028  1.1532 -3.0071
 4670TIP3    H238206   4.773   3.551   9.740 -0.8235  1.0476 -1.3481
 4671TIP3   OH238207   2.233   7.218   7.128  0.8949 -0.0976 -0.0590
 4671TIP3    H138208   2.209   7.215   7.220 -0.1448 -1.7655 -0.3538
 4671TIP3    H238209   2.249   7.127   7.104  0.2575  0.1927 -1.7526
 4672TIP3   OH238210   4.304   1.590   9.766 -0.2041 -0.5974 -0.1613
 4672TIP3    H138211   4.327   1.666   9.820 -0.7854 -1.8251  1.9415
 4672TIP3    H238212   4.383   1.535   9.769 -0.0977 -0.4931 -0.9311
 4673TIP3   OH238213   0.334   5.180   7.633  0.0118 -0.4538 -0.5182
 4673TIP3    H138214   0.329   5.272   7.606 -1.1660  0.0889  1.3515
 4673TIP3    H238215   0.427   5.159   7.631  0.6040  1.6346  1.5968
 4674TIP3   OH238216   4.194   6.483   6.926 -0.0031  0.4083  0.5596
 4674TIP3    H138217   4.149   6.404   6.897  1.6083 -0.2641 -0.2442
 4674TIP3    H238218   4.242   6.513   6.849 -0.2938  1.9796  0.9560
 4675TIP3   OH238219   3.580   4.187   7.849  0.6587  0.5242  0.2397
 4675TIP3    H138220   3.513   4.251   7.872 -0.0789 -0.1763  0.1300
 4675TIP3    H238221   3.623   4.224   7.771 -0.6323  0.3103 -0.6187
 4676TIP3   OH238222   6.279   5.628   8.650 -0.0570 -0.4008 -0.2283
 4676TIP3    H138223   6.238   5.632   8.564  0.8624 -1.3936 -0.7459
 4676TIP3    H238224   6.266   5.537   8.678 -1.4262  0.2104  1.2598
 4677TIP3   OH238225   0.924   4.242   9.199 -0.2921 -0.0188 -0.3043
 4677TIP3    H138226   0.889   4.262   9.286  0.7187  0.2905  0.0493
 4677TIP3    H238227   1.003   4.191   9.216 -1.6448 -2.5427 -1.1467
 4678TIP3   OH238228   6.362   1.013   8.906 -0.4032 -0.0730 -0.3856
 4678TIP3    H138229   6.312   1.031   8.826  0.8893  0.0101 -1.2060
 4678TIP3    H238230   6.309   0.949   8.953  0.1349 -2.3675 -2.6980
 4679TIP3   OH238231   1.317   1.574   7.563 -0.1074  0.1967  0.1343
 4679TIP3    H138232   1.356   1.614   7.485  0.5409  1.0049  0.8500
 4679TIP3    H238233   1.335   1.636   7.633 -2.1511  0.2860  0.6362
 4680TIP3   OH238234   2.365   6.520   9.357  0.4983 -0.9645 -0.2372
 4680TIP3    H138235   2.288   6.502   9.303 -1.0622  0.7675  1.2646
 4680TIP3    H238236   2.329   6.545   9.443  2.4852  2.7508 -0.2719
 4681TIP3   OH238237   1.551   2.125   8.071  0.1581  0.7404  0.3278
 4681TIP3    H138238   1.555   2.037   8.109 -0.4679  0.6425  0.1755
 4681TIP3    H238239   1.472   2.163   8.108 -1.3894  0.0744 -2.0420
 4682TIP3   OH238240   6.375   6.072   8.379 -0.1188  0.4372  0.5358
 4682TIP3    H138241   6.392   6.113   8.294 -1.7547 -0.4804 -0.2891
 4682TIP3    H238242   6.353   6.146   8.436  0.5794  1.0276  0.0755
 4683TIP3   OH238243   4.704   6.873   9.618 -0.5488 -0.1685 -0.6820
 4683TIP3    H138244   4.656   6.850   9.539  1.7302  0.6469 -2.4369
 4683TIP3    H238245   4.768   6.803   9.628 -0.6774 -0.1579  0.3469
 4684TIP3   OH238246   5.814   6.486   8.413  0.2951  0.4128 -0.8531
 4684TIP3    H138247   5.839   6.554   8.476  1.6697  0.6548 -1.6184
 4684TIP3    H238248   5.897   6.444   8.390 -0.1831  0.3069 -2.4597
 4685TIP3   OH238249   1.951   7.100   9.702  0.7653 -0.2143 -0.6725
 4685TIP3    H138250   1.962   7.016   9.746  1.2582  0.9175  1.5325
 4685TIP3    H238251   1.863   7.096   9.664  1.2993 -2.2050 -1.8468
 4686TIP3   OH238252   1.748   2.111   9.285  0.0533  0.3724  1.0165
 4686TIP3    H138253   1.759   2.018   9.304 -0.4844  0.4291  1.6166
 4686TIP3    H238254   1.834   2.139   9.253 -0.1388 -0.6293 -0.4681
 4687TIP3   OH238255   4.131   2.492   8.559  0.2458  0.2835  0.2217
 4687TIP3    H138256   4.120   2.407   8.515  0.6183  0.1512  0.3810
 4687TIP3    H238257   4.224   2.511   8.551 -0.1530  1.8448 -1.9583
 4688TIP3   OH238258   2.926   0.368   8.160  0.2721  0.4605  0.2125
 4688TIP3    H138259   2.894   0.457   8.147 -1.0334  0.1361  0.9190
 4688TIP3    H238260   2.846   0.315   8.165  1.0416 -1.0671 -2.1599
 4689TIP3   OH238261   2.637   3.659   7.707 -0.0384  0.3840  0.3720
 4689TIP3    H138262   2.729   3.680   7.720  0.5675 -0.3564 -2.2434
 4689TIP3    H238263   2.633   3.563   7.708 -0.3913  0.3429 -1.4871
 4690TIP3   OH238264   3.125   6.240   8.948 -0.0824  0.3766  0.3125
 4690TIP3    H138265   3.090   6.329   8.957  0.1250  0.4308  0.5984
 4690TIP3    H238266   3.220   6.251   8.951  0.0036  0.3176 -1.2714
 4691TIP3   OH238267   3.043   2.846   7.570  0.2749 -0.7756 -0.3816
 4691TIP3    H138268   3.120   2.852   7.514  0.5612 -0.3462  0.0498
 4691TIP3    H238269   3.008   2.935   7.573  2.1417  0.0352  2.7105
 4692TIP3   OH238270   5.795   6.817   8.296  0.2005  0.3509  0.1280
 4692TIP3    H138271   5.809   6.802   8.389  0.5778  0.5748  0.1088
 4692TIP3    H238272   5.700   6.812   8.285 -0.2546  3.7568  1.1803
 4693TIP3   OH238273   6.912   7.092   9.492  0.0926 -0.0313  0.2584
 4693TIP3    H138274   6.962   7.014   9.514  0.6016  0.7931  2.2348
 4693TIP3    H238275   6.854   7.106   9.567 -1.0436  0.6927 -0.7081
 4694TIP3   OH238276   2.405   6.783   8.752  0.0039  0.2730 -0.0295
 4694TIP3    H138277   2.491   6.756   8.718  0.1063  0.8775 -0.2685
 4694TIP3    H238278   2.403   6.878   8.739 -1.6446  0.0077 -2.2127
 4695TIP3   OH238279   0.226   3.978   9.203  0.0191  0.8035  0.4153
 4695TIP3    H138280   0.185   3.907   9.253  1.3402  0.1321  0.5866
 4695TIP3    H238281   0.288   4.017   9.265 -0.0572  1.5311  0.0373
 4696TIP3   OH238282   1.844   0.123   9.112  0.4653  0.5879 -0.1979
 4696TIP3    H138283   1.936   0.144   9.127  0.9576 -0.9810 -0.7702
 4696TIP3    H238284   1.844   0.077   9.027 -0.3647 -2.1437  1.1616
 4697TIP3   OH238285   1.133   2.781   8.569  0.2223 -0.0151 -0.2549
 4697TIP3    H138286   1.143   2.876   8.568 -1.0225  0.1677  0.9844
 4697TIP3    H238287   1.049   2.765   8.524 -1.0126 -0.2447  1.9824
 4698TIP3   OH238288   0.866   7.320   9.318 -0.7279 -0.1739  0.2265
 4698TIP3    H138289   0.953   7.328   9.358 -1.4025  3.5169  1.3734
 4698TIP3    H238290   0.884   7.305   9.225  1.1542  0.3952  0.4423
 4699TIP3   OH238291   3.589   4.483   7.227  0.0837 -0.5921 -0.0646
 4699TIP3    H138292   3.563   4.445   7.143 -0.5684  0.1188 -0.1956
 4699TIP3    H238293   3.633   4.564   7.203  1.0490 -1.0233  0.2323
 4700TIP3   OH238294   0.633   0.905   7.499  0.6088  0.4093  0.0040
 4700TIP3    H138295   0.583   0.841   7.550  1.5794 -1.0848 -0.8593
 4700TIP3    H238296   0.568   0.941   7.438 -0.2617  1.2926  1.3856
 4701TIP3   OH238297   3.895   5.672   9.036  0.9743  0.0276 -0.1121
 4701TIP3    H138298   3.945   5.739   8.989 -0.2912  0.1887 -1.2981
 4701TIP3    H238299   3.805   5.702   9.031 -0.0845 -3.0661 -3.1584
 4702TIP3   OH238300   5.359   5.348   9.204  0.2819 -0.1945 -0.0603
 4702TIP3    H138301   5.414   5.340   9.125 -0.6010 -1.4383 -0.5813
 4702TIP3    H238302   5.290   5.410   9.178  1.9706  2.2633  0.9570
 4703TIP3   OH238303   3.172   0.704   8.864 -0.7377 -0.2951 -0.1061
 4703TIP3    H138304   3.259   0.668   8.883 -0.5320  0.4218  0.3549
 4703TIP3    H238305   3.183   0.749   8.780 -1.1222 -1.6960 -0.9386
 4704TIP3   OH238306   1.674   1.047   6.658  0.2394 -0.5692 -0.0324
 4704TIP3    H138307   1.594   1.090   6.629 -1.6489 -2.5877  1.8324
 4704TIP3    H238308   1.663   0.955   6.631  1.7893 -0.9591  0.5447
 4705TIP3   OH238309   4.718   0.826   8.996  0.0227 -0.1119  0.0245
 4705TIP3    H138310   4.664   0.774   8.937  0.6576  0.0983 -0.7462
 4705TIP3    H238311   4.720   0.913   8.957  0.2527  0.0958  0.4879
 4706TIP3   OH238312   6.593   5.782   7.459  0.1847 -0.6014  0.1591
 4706TIP3    H138313   6.575   5.851   7.524  0.2928  0.1777 -0.6123
 4706TIP3    H238314   6.685   5.759   7.475  0.1999 -0.4436  0.3070
 4707TIP3   OH238315   1.250   5.433   7.915 -0.6304  0.2681  0.2246
 4707TIP3    H138316   1.303   5.512   7.927  0.1318 -0.4404  1.9592
 4707TIP3    H238317   1.311   5.368   7.878 -1.5351  0.7484 -2.3003
 4708TIP3   OH238318   6.007   4.784   6.438  0.6177 -0.2181  0.3154
 4708TIP3    H138319   6.065   4.709   6.427  1.7971  0.4947  1.3952
 4708TIP3    H238320   6.063   4.852   6.474  0.0124  1.8136 -2.2969
 4709TIP3   OH238321   6.436   0.875   7.197  0.2133 -0.3460  0.2216
 4709TIP3    H138322   6.405   0.916   7.116 -1.8558  0.5487  1.3709
 4709TIP3    H238323   6.397   0.787   7.196 -0.7581  0.0649  0.7347
 4710TIP3   OH238324   2.281   3.269   8.107 -0.3083 -0.1379 -0.3950
 4710TIP3    H138325   2.341   3.210   8.063 -0.0526  0.4632 -0.8757
 4710TIP3    H238326   2.289   3.352   8.058  0.7120  0.8526  1.3339
 4711TIP3   OH238327   0.822   7.290   8.043  0.3372  0.4041  0.1680
 4711TIP3    H138328   0.857   7.308   7.955 -1.4393 -1.4045 -1.0094
 4711TIP3    H238329   0.899   7.274   8.097  1.4546 -1.5135 -1.8137
 4712TIP3   OH238330   4.518   4.210   8.091  0.1699 -0.3462 -0.1697
 4712TIP3    H138331   4.465   4.180   8.165 -1.8062  2.2728 -0.4017
 4712TIP3    H238332   4.568   4.284   8.125  1.6745 -1.0660 -0.7047
 4713TIP3   OH238333   4.633   1.553   7.423  0.4484  0.2396  0.4566
 4713TIP3    H138334   4.593   1.480   7.375  0.5213 -0.5914  1.6256
 4713TIP3    H238335   4.727   1.542   7.408  0.4337  0.3543  0.2762
 4714TIP3   OH238336   5.470   7.071   7.710  0.2001 -0.0379  0.0571
 4714TIP3    H138337   5.399   7.108   7.657  0.7116  1.0717  0.1172
 4714TIP3    H238338   5.494   6.990   7.666 -1.9501 -1.1171  0.7332
 4715TIP3   OH238339   0.662   5.068   8.687  0.5013 -0.1876 -0.3313
 4715TIP3    H138340   0.640   5.157   8.714  1.2759  0.4509 -1.7088
 4715TIP3    H238341   0.592   5.013   8.723  0.6095  0.8170  1.4820
 4716TIP3   OH238342   1.125   5.176   9.487  0.2389  0.4712  0.1616
 4716TIP3    H138343   1.078   5.141   9.563  0.0571  0.0076 -0.1616
 4716TIP3    H238344   1.090   5.264   9.476 -1.9397 -0.4831 -1.1872
 4717TIP3   OH238345   1.574   2.399   8.371 -0.2142  0.0181 -0.6088
 4717TIP3    H138346   1.495   2.370   8.325 -0.3224 -0.1626 -0.3165
 4717TIP3    H238347   1.620   2.318   8.393 -0.7877  0.0139  0.6916
 4718TIP3   OH238348   7.261   3.578   8.684  0.6439  0.1080 -0.4429
 4718TIP3    H138349   7.201   3.514   8.721 -0.5193  1.3649 -0.0556
 4718TIP3    H238350   7.320   3.601   8.756  0.0816  0.5820 -0.1232
 4719TIP3   OH238351   5.067   2.474   8.503  0.4940  0.1672 -0.3454
 4719TIP3    H138352   5.159   2.460   8.481  0.7079  1.3768 -0.2509
 4719TIP3    H238353   5.068   2.494   8.597  0.1815  0.6005 -0.4314
 4720TIP3   OH238354   0.585   1.202   6.630  0.1458 -0.3137 -0.6303
 4720TIP3    H138355   0.539   1.120   6.652 -0.9016  0.5478  0.5885
 4720TIP3    H238356   0.520   1.270   6.648  1.6446  0.9125  0.3638
 4721TIP3   OH238357   1.305   3.746   6.552  0.0929  0.3460 -0.0202
 4721TIP3    H138358   1.291   3.723   6.460  0.7016 -0.4721  0.0799
 4721TIP3    H238359   1.378   3.691   6.580 -0.8498 -0.2849  1.2893
 4722TIP3   OH238360   7.060   2.651   7.780  0.4045 -0.7221 -0.2793
 4722TIP3    H138361   6.998   2.587   7.815 -1.5549  1.2086  0.0210
 4722TIP3    H238362   7.010   2.696   7.711  1.7304  0.4131 -0.5320
 4723TIP3   OH238363   2.403   0.511   7.880 -0.5983  0.5277 -0.8434
 4723TIP3    H138364   2.433   0.544   7.796  0.4188  0.9062 -0.3425
 4723TIP3    H238365   2.334   0.448   7.858  1.2592 -1.1725 -2.0987
 4724TIP3   OH238366   3.844   7.028   8.486 -0.1320 -0.0069  0.0618
 4724TIP3    H138367   3.832   6.935   8.465  0.8707 -0.0297 -0.4628
 4724TIP3    H238368   3.782   7.045   8.557 -0.7914 -0.9129 -0.2852
 4725TIP3   OH238369   1.330   1.765   7.772 -0.1831 -0.3899  0.5429
 4725TIP3    H138370   1.375   1.850   7.775 -1.3459  0.3457 -1.2887
 4725TIP3    H238371   1.250   1.778   7.825 -1.2136  0.2482 -1.0974
 4726TIP3   OH238372   6.207   6.895   8.617  0.5154 -0.2405 -0.0131
 4726TIP3    H138373   6.214   6.991   8.615  0.9924 -0.2889 -1.5149
 4726TIP3    H238374   6.118   6.876   8.590  1.4205 -0.2744 -3.4015
 4727TIP3   OH238375   7.024   6.653   7.184 -0.4382 -0.2712  0.7051
 4727TIP3    H138376   6.971   6.631   7.107  0.1914  0.6233 -0.0070
 4727TIP3    H238377   7.091   6.584   7.186 -1.0621 -0.8779  1.0654
 4728TIP3   OH238378   2.559   4.416   8.737  0.2884 -0.0479 -0.6950
 4728TIP3    H138379   2.640   4.415   8.789 -0.0437 -2.2596 -0.1618
 4728TIP3    H238380   2.544   4.325   8.713 -0.7527  0.6252 -2.8897
 4729TIP3   OH238381   2.903   7.208   7.659 -0.5256  0.6813 -0.8004
 4729TIP3    H138382   2.970   7.141   7.642 -0.2796  0.4160  1.0369
 4729TIP3    H238383   2.826   7.178   7.611 -0.9813 -1.9226  1.3312
 4730TIP3   OH238384   4.563   2.762   8.496 -0.0756  0.3785  0.1412
 4730TIP3    H138385   4.633   2.698   8.501 -0.1508  0.1432 -1.4800
 4730TIP3    H238386   4.556   2.797   8.586  3.4610  1.8883  0.0030
 4731TIP3   OH238387   5.144   0.191   9.175  0.0104  0.2530 -0.1668
 4731TIP3    H138388   5.227   0.156   9.206  0.6289  0.6796 -1.2661
 4731TIP3    H238389   5.089   0.198   9.253  0.6204 -1.0701  0.3997
 4732TIP3   OH238390   0.796   0.172   8.489  0.0881  0.3404  0.1849
 4732TIP3    H138391   0.803   0.242   8.423  1.1987  0.2190  0.1603
 4732TIP3    H238392   0.840   0.207   8.566 -0.4970  0.1610  0.6118
 4733TIP3   OH238393   7.174   5.640   8.745  0.6706 -0.5092  0.4316
 4733TIP3    H138394   7.205   5.549   8.743  0.9290 -0.4089 -0.8815
 4733TIP3    H238395   7.241   5.689   8.696  0.1189  0.2596  0.4317
 4734TIP3   OH238396   7.210   6.040   7.744 -0.0521 -0.2172  0.3594
 4734TIP3    H138397   7.210   5.994   7.828 -0.7379 -1.2735 -0.1963
 4734TIP3    H238398   7.122   6.026   7.709  0.0599  0.6389 -0.3185
 4735TIP3   OH238399   6.255   4.367   6.643 -0.1770 -0.1118 -0.3558
 4735TIP3    H138400   6.239   4.306   6.715 -0.8105 -0.0161 -0.4114
 4735TIP3    H238401   6.345   4.348   6.616  0.8222  1.2424  1.7769
 4736TIP3   OH238402   2.677   5.167   9.510 -0.3647 -0.1185  0.6793
 4736TIP3    H138403   2.616   5.209   9.571 -0.8404 -0.4996  0.4722
 4736TIP3    H238404   2.763   5.194   9.541 -0.6599  0.9866  0.5531
 4737TIP3   OH238405   1.332   2.442   8.488  0.4945  0.4826  0.3068
 4737TIP3    H138406   1.385   2.385   8.544 -0.0254  0.7005  1.0262
 4737TIP3    H238407   1.258   2.468   8.543  0.1802  1.0112 -0.3574
 4738TIP3   OH238408   3.889   6.469   7.659 -0.1306  0.1626  0.7625
 4738TIP3    H138409   3.952   6.449   7.728 -0.7592  1.0151  1.6061
 4738TIP3    H238410   3.900   6.399   7.595  2.0340  0.5762  0.6229
 4739TIP3   OH238411   0.831   5.404   8.795 -0.0053  0.0837  0.1178
 4739TIP3    H138412   0.808   5.494   8.773  1.0147  0.2008 -0.5318
 4739TIP3    H238413   0.754   5.370   8.839 -0.0908  1.5684  1.2271
 4740TIP3   OH238414   2.150   1.425   8.873  0.1156  0.1358 -0.1923
 4740TIP3    H138415   2.076   1.409   8.932 -0.3884  0.4666 -0.7100
 4740TIP3    H238416   2.182   1.338   8.850 -0.7587 -0.0622 -0.7342
 4741TIP3   OH238417   0.317   3.245   6.926  0.9901  0.4764 -0.1285
 4741TIP3    H138418   0.230   3.273   6.954  1.1602  1.6633 -0.7428
 4741TIP3    H238419   0.301   3.165   6.876  0.3813  0.0399  0.7420
 4742TIP3   OH238420   2.408   0.146   6.560  0.0884 -0.0967 -0.2373
 4742TIP3    H138421   2.326   0.142   6.609  0.3149 -0.0807  0.1452
 4742TIP3    H238422   2.394   0.214   6.495  0.7304  1.8502  1.5503
 4743TIP3   OH238423   1.775   3.608   8.869 -0.4408 -0.3474 -0.1868
 4743TIP3    H138424   1.729   3.660   8.936 -0.9865 -0.8340 -0.1741
 4743TIP3    H238425   1.740   3.640   8.786 -0.1056 -0.0668 -0.2222
 4744TIP3   OH238426   0.332   6.841   8.219  0.4925 -0.3650  0.3483
 4744TIP3    H138427   0.347   6.936   8.213 -2.0627  0.1337  0.5763
 4744TIP3    H238428   0.377   6.815   8.299  1.8527  0.5031 -0.0994
 4745TIP3   OH238429   3.647   1.671   8.281  0.4205  0.3088  0.1115
 4745TIP3    H138430   3.725   1.717   8.250  0.7772 -0.2443  0.1650
 4745TIP3    H238431   3.633   1.603   8.216 -0.0872  0.4764  0.0462
 4746TIP3   OH238432   0.127   7.107   7.915  0.4535  0.2682 -0.2438
 4746TIP3    H138433   0.203   7.086   7.861  1.6597  1.2478  0.9894
 4746TIP3    H238434   0.146   7.194   7.951  1.2855 -1.5243  4.2385
 4747TIP3   OH238435   6.358   0.064   6.742 -0.3083 -0.2314  0.6948
 4747TIP3    H138436   6.414   0.141   6.738  0.0684 -0.5203  0.1260
 4747TIP3    H238437   6.281   0.088   6.691  0.0661 -0.4248  0.0245
 4748TIP3   OH238438   6.266   6.269   9.791 -0.0587 -0.4032 -0.2844
 4748TIP3    H138439   6.172   6.252   9.798 -0.0592 -0.0466  0.8880
 4748TIP3    H238440   6.272   6.360   9.762 -0.0671 -0.6867 -1.1905
 4749TIP3   OH238441   2.003   2.855   8.294  0.3042 -0.5144 -0.0214
 4749TIP3    H138442   2.009   2.871   8.388  1.2634  0.1614 -0.1776
 4749TIP3    H238443   1.932   2.791   8.285 -0.7421  0.4381  1.0296
 4750TIP3   OH238444   0.682   0.425   8.490 -0.3339  0.3314 -0.5224
 4750TIP3    H138445   0.601   0.471   8.469  0.2675  1.1381 -1.1593
 4750TIP3    H238446   0.741   0.447   8.418  0.3689 -0.4389 -0.1948
 4751TIP3   OH238447   2.611   1.916   9.034  0.9021  0.9759  0.1489
 4751TIP3    H138448   2.612   1.848   9.101  0.9823  0.3231 -0.5111
 4751TIP3    H238449   2.674   1.981   9.066  2.0282 -0.0170  0.0097
 4752TIP3   OH238450   1.444   3.004   9.470 -0.1065 -0.2763 -0.0900
 4752TIP3    H138451   1.530   3.035   9.500 -0.7135  1.2441  0.1768
 4752TIP3    H238452   1.455   2.909   9.461  1.6062 -0.1204 -0.0953
 4753TIP3   OH238453   2.642   0.002   8.779  0.4264  0.0470  0.1363
 4753TIP3    H138454   2.572   0.045   8.730 -1.0237 -1.2149  1.0114
 4753TIP3    H238455   2.707  -0.021   8.714 -2.4191 -3.6460 -1.7927
 4754TIP3   OH238456   5.602   5.890   7.712 -0.1611 -0.0029 -0.2688
 4754TIP3    H138457   5.616   5.866   7.620  1.4407 -0.4777  0.0629
 4754TIP3    H238458   5.556   5.815   7.749  1.1477 -0.8070 -0.2012
 4755TIP3   OH238459   2.234   5.011   7.558 -0.4578 -0.1506 -0.1564
 4755TIP3    H138460   2.315   5.059   7.576 -0.9831  0.6101  0.2141
 4755TIP3    H238461   2.171   5.045   7.622 -1.3135 -0.1013 -1.0125
 4756TIP3   OH238462   3.944   4.659   9.725  0.1702 -0.2333 -0.1617
 4756TIP3    H138463   4.030   4.697   9.708 -0.5732  1.0404 -1.2921
 4756TIP3    H238464   3.939   4.583   9.667  0.0513  0.4619 -1.0909
 4757TIP3   OH238465   0.653   1.042   8.947 -0.1334  0.7640  0.0413
 4757TIP3    H138466   0.610   1.026   9.031 -1.2161  1.4754 -0.3544
 4757TIP3    H238467   0.650   1.137   8.936 -0.3913  0.6501 -0.9909
 4758TIP3   OH238468   4.012   0.299   9.048 -0.3748  0.2174  0.2365
 4758TIP3    H138469   4.104   0.281   9.066 -0.6645 -0.4068  1.1676
 4758TIP3    H238470   3.965   0.252   9.117 -1.3517  1.1565  0.2261
 4759TIP3   OH238471   3.061   1.184   8.648 -0.6932  0.0946 -0.2181
 4759TIP3    H138472   3.051   1.096   8.611  1.4091  0.0275 -0.7697
 4759TIP3    H238473   3.038   1.243   8.576 -0.7478 -0.0237 -0.2975
 4760TIP3   OH238474   3.249   4.661   6.840 -0.0550 -0.6304  0.1330
 4760TIP3    H138475   3.237   4.756   6.836  2.4537 -0.3009 -1.7163
 4760TIP3    H238476   3.180   4.626   6.785 -0.1161  0.2418 -0.3710
 4761TIP3   OH238477   3.439   1.374   8.625 -0.1199 -0.5973 -0.3859
 4761TIP3    H138478   3.425   1.462   8.590  0.5324 -0.8109 -1.2269
 4761TIP3    H238479   3.531   1.373   8.652 -0.2156 -0.9197 -0.0596
 4762TIP3   OH238480   6.333   3.176   8.219 -0.5954  0.0672  0.4808
 4762TIP3    H138481   6.260   3.127   8.257  1.8138 -2.6158  2.1067
 4762TIP3    H238482   6.410   3.124   8.241  2.0047  3.4278  0.0965
 4763TIP3   OH238483   2.132   7.501   8.364  0.4141 -0.1785  0.3463
 4763TIP3    H138484   2.143   7.543   8.279  0.6646 -0.1638  0.3855
 4763TIP3    H238485   2.211   7.448   8.376  0.3927 -0.1594  0.5821
 4764TIP3   OH238486   7.491   7.000   9.061  0.3480 -0.5686  0.3092
 4764TIP3    H138487   7.571   6.956   9.033  1.2101  2.4648 -2.6009
 4764TIP3    H238488   7.423   6.964   9.005  0.9435  1.1447 -1.6418
 4765TIP3   OH238489   1.562   2.974   8.088 -0.2926  0.2482  0.1770
 4765TIP3    H138490   1.560   2.949   8.180 -0.9133  0.2029  0.1554
 4765TIP3    H238491   1.638   3.032   8.080  0.9848 -1.3141  0.3122
 4766TIP3   OH238492   3.024   4.508   9.225 -0.2039  0.1210  0.1640
 4766TIP3    H138493   3.102   4.483   9.174  0.3019  1.1159  0.4173
 4766TIP3    H238494   3.055   4.580   9.280 -1.5676  1.2395 -0.4789
 4767TIP3   OH238495   3.192   4.577   7.151 -0.0918 -0.3307 -0.1812
 4767TIP3    H138496   3.269   4.520   7.140 -0.4777 -0.9074  0.0847
 4767TIP3    H238497   3.118   4.520   7.131 -0.3689  1.0314 -3.9760
 4768TIP3   OH238498   2.506   5.776   8.186  0.3209 -0.3112 -0.4209
 4768TIP3    H138499   2.594   5.783   8.148  0.2004  2.5732 -0.3670
 4768TIP3    H238500   2.448   5.810   8.119 -0.2383  1.8245  1.0366
 4769TIP3   OH238501   0.242   0.252   7.392 -0.2024 -0.6033 -0.3864
 4769TIP3    H138502   0.247   0.219   7.481  0.0154 -2.5370 -1.0733
 4769TIP3    H238503   0.305   0.200   7.343  0.9255  1.5428 -1.3868
 4770TIP3   OH238504   0.097   1.728   9.624  0.0526  0.0953 -0.1832
 4770TIP3    H138505   0.088   1.791   9.695  1.5347 -0.3981  0.4915
 4770TIP3    H238506   0.186   1.742   9.591 -0.2973 -0.2993 -1.3381
 4771TIP3   OH238507   4.806   1.053   9.263  0.4025  0.1478  0.1287
 4771TIP3    H138508   4.797   1.105   9.344 -0.3665  0.6257 -0.2592
 4771TIP3    H238509   4.776   1.112   9.194 -1.4808 -1.1372 -0.2223
 4772TIP3   OH238510   2.484   5.858   7.496  0.0034 -0.5634  0.4071
 4772TIP3    H138511   2.547   5.925   7.522 -0.0144 -0.9951  1.6604
 4772TIP3    H238512   2.435   5.840   7.576 -1.0063 -0.9881 -0.2919
 4773TIP3   OH238513   1.885   4.571   7.986 -0.0638  0.1519  0.5031
 4773TIP3    H138514   1.884   4.575   8.082  0.8829 -0.6206  0.5685
 4773TIP3    H238515   1.797   4.543   7.962 -0.7379  1.7129  1.0530
 4774TIP3   OH238516   4.314   3.749   9.637 -0.2213 -0.2363 -0.2752
 4774TIP3    H138517   4.309   3.654   9.625  0.0998 -0.2064 -0.6674
 4774TIP3    H238518   4.223   3.779   9.635 -0.4989 -0.7525  1.7776
 4775TIP3   OH238519   7.412   6.957   8.619  0.0114 -0.4183  0.1104
 4775TIP3    H138520   7.500   6.943   8.655 -0.3111 -2.1114  0.3273
 4775TIP3    H238521   7.426   6.962   8.525  0.7095  2.7881  0.2730
 4776TIP3   OH238522   7.319   4.312   8.904  0.0920 -0.5363  0.1213
 4776TIP3    H138523   7.274   4.388   8.867 -0.5657 -0.9845 -0.0130
 4776TIP3    H238524   7.250   4.248   8.918  0.5791 -0.9602  0.6264
 4777TIP3   OH238525   1.874   5.966   9.179 -0.1164 -0.0589  0.4801
 4777TIP3    H138526   1.839   5.940   9.094  0.5736 -1.0160  0.4666
 4777TIP3    H238527   1.843   6.056   9.191 -0.4010  0.0224 -0.6796
 4778TIP3   OH238528   1.338   2.390   8.222  0.5670 -0.3901  0.4319
 4778TIP3    H138529   1.258   2.401   8.170  0.6579 -0.5428  0.2585
 4778TIP3    H238530   1.315   2.425   8.308  0.1989 -0.7543  0.4880
 4779TIP3   OH238531   2.257   6.175   7.598  0.1657 -0.0402 -0.1106
 4779TIP3    H138532   2.279   6.210   7.512 -1.5845  1.4959  0.0056
 4779TIP3    H238533   2.335   6.127   7.625  1.6038  1.3264 -1.5919
 4780TIP3   OH238534   0.250   2.510   9.313 -0.2588 -0.5002  0.2055
 4780TIP3    H138535   0.335   2.496   9.270 -0.4982  0.0274 -0.4613
 4780TIP3    H238536   0.211   2.423   9.318 -0.0807 -0.6206 -0.3642
 4781TIP3   OH238537   4.561   3.528   8.420 -0.2533 -1.2407 -0.4237
 4781TIP3    H138538   4.496   3.557   8.355  0.4079 -2.9081 -1.9181
 4781TIP3    H238539   4.542   3.435   8.432  1.0613 -1.4585  0.0978
 4782TIP3   OH238540   2.284   3.580   8.558  0.5071  0.1075  0.2404
 4782TIP3    H138541   2.308   3.596   8.649 -0.9958  1.1256  0.4734
 4782TIP3    H238542   2.342   3.508   8.532  0.5809 -0.5975  2.1565
 4783TIP3   OH238543   5.020   7.220   7.082 -0.2036  0.2196 -0.1167
 4783TIP3    H138544   5.068   7.295   7.118  0.3215 -0.4100  0.5456
 4783TIP3    H238545   4.984   7.176   7.159 -1.0269  0.1308 -0.5454
 4784TIP3   OH238546   5.186   4.914   8.058 -0.0336  0.0143  0.6050
 4784TIP3    H138547   5.104   4.908   8.010  0.3267 -0.2901  0.0142
 4784TIP3    H238548   5.250   4.943   7.994 -0.0387  2.1787  1.4962
 4785TIP3   OH238549   3.330   0.182   7.853 -0.1680  0.1110  0.1911
 4785TIP3    H138550   3.260   0.240   7.880  1.3144  2.5038 -0.7702
 4785TIP3    H238551   3.383   0.170   7.931  0.0519  0.8956  0.1685
 4786TIP3   OH238552   7.272   0.562   9.415 -0.3935  0.0195 -0.0251
 4786TIP3    H138553   7.324   0.641   9.400  0.1378 -0.4369 -0.6693
 4786TIP3    H238554   7.331   0.503   9.462 -0.8607  0.0801  0.6527
 4787TIP3   OH238555   4.111   6.656   8.314 -0.0141  0.0284  0.4106
 4787TIP3    H138556   4.067   6.644   8.230  0.7888 -1.0635  0.1103
 4787TIP3    H238557   4.047   6.701   8.369 -0.9524 -0.2076 -0.4545
 4788TIP3   OH238558   6.902   6.659   7.892 -0.6770  0.3203  0.0210
 4788TIP3    H138559   6.986   6.615   7.884 -1.6674 -1.4740 -1.3006
 4788TIP3    H238560   6.892   6.709   7.811 -1.2850 -0.2609 -0.2725
 4789TIP3   OH238561   3.597   2.177   7.650  0.2228  0.6447 -0.7612
 4789TIP3    H138562   3.651   2.113   7.603  1.4134  1.9322 -1.1878
 4789TIP3    H238563   3.659   2.227   7.703 -0.9529  0.0109  1.3443
 4790TIP3   OH238564   3.766   7.147   7.593  0.9394  0.0339  0.3964
 4790TIP3    H138565   3.730   7.236   7.592  1.5571  0.3102  1.4075
 4790TIP3    H238566   3.735   7.109   7.511 -1.1934  0.4251  0.9308
 4791TIP3   OH238567   1.165   4.828   9.283  0.0321 -0.1186 -0.0974
 4791TIP3    H138568   1.184   4.830   9.377 -2.0816 -1.0172  0.4333
 4791TIP3    H238569   1.246   4.854   9.241  1.5443 -1.2283  1.9269
 4792TIP3   OH238570   7.347   2.877   8.787 -0.0565 -0.5964 -1.0535
 4792TIP3    H138571   7.429   2.911   8.823 -0.2299  0.7574 -1.8530
 4792TIP3    H238572   7.349   2.903   8.695 -0.5554 -2.1790 -1.5356
 4793TIP3   OH238573   3.681   7.117   6.754 -0.1454 -0.6819  0.1364
 4793TIP3    H138574   3.776   7.124   6.768 -0.2985 -1.2499  1.6361
 4793TIP3    H238575   3.672   7.059   6.678  0.6998 -1.1540  0.3816
 4794TIP3   OH238576   3.199   5.234   9.088  0.2442  0.1087 -0.5709
 4794TIP3    H138577   3.186   5.328   9.080  1.5470  0.3237 -0.4276
 4794TIP3    H238578   3.280   5.225   9.139 -0.9666 -1.1042  1.2775
 4795TIP3   OH238579   3.509   4.233   9.178 -0.1165 -0.5557 -0.4173
 4795TIP3    H138580   3.586   4.272   9.220 -0.5527 -1.5457  1.4033
 4795TIP3    H238581   3.511   4.141   9.203 -2.1883 -0.4952  0.1840
 4796TIP3   OH238582   3.455   3.225   8.222  0.1415 -0.6149  0.7627
 4796TIP3    H138583   3.429   3.262   8.137  0.0337  1.0737  1.4842
 4796TIP3    H238584   3.443   3.131   8.212 -0.3887 -0.4046 -0.9178
 4797TIP3   OH238585   3.093   1.046   8.026  0.3257 -0.0613 -0.3554
 4797TIP3    H138586   3.125   1.102   7.955 -1.2612 -0.4750 -1.4558
 4797TIP3    H238587   3.054   1.106   8.089 -0.1895  0.1822 -0.8962
 4798TIP3   OH238588   2.349   0.274   8.260 -0.7517  0.0050  0.0011
 4798TIP3    H138589   2.261   0.259   8.224  0.3241 -0.6165 -2.5742
 4798TIP3    H238590   2.378   0.188   8.290 -0.1656 -0.2510 -1.2700
 4799TIP3   OH238591   1.681   6.316   6.678  0.5716 -0.3190  0.0727
 4799TIP3    H138592   1.635   6.389   6.636  1.9473  0.8827  0.5556
 4799TIP3    H238593   1.726   6.356   6.752 -0.0190 -2.0006  1.3934
 4800TIP3   OH238594   1.516   1.791   8.417 -0.6041  0.1584  0.0440
 4800TIP3    H138595   1.598   1.832   8.444  0.5985 -0.8136 -1.9392
 4800TIP3    H238596   1.496   1.830   8.332 -1.3674 -0.7340 -0.2065
 4801TIP3   OH238597   0.402   6.566   8.762  0.0130 -0.5912 -0.3094
 4801TIP3    H138598   0.431   6.502   8.697  1.2763 -0.1255 -0.2265
 4801TIP3    H238599   0.473   6.630   8.767  0.4031 -1.0925  2.1941
 4802TIP3   OH238600   3.354   4.455   7.372 -0.6303 -0.2223 -0.0044
 4802TIP3    H138601   3.420   4.472   7.305 -1.5746 -2.4169 -1.5911
 4802TIP3    H238602   3.400   4.401   7.437 -0.3645 -0.1288 -0.1105
 4803TIP3   OH238603   5.203   0.395   9.430 -0.3289 -0.6169  0.4432
 4803TIP3    H138604   5.190   0.479   9.474  1.3425 -0.4160  0.6046
 4803TIP3    H238605   5.187   0.414   9.338 -0.5185 -0.2549  0.5493
 4804TIP3   OH238606   6.873   1.704   7.946  0.7227 -0.2613  0.0580
 4804TIP3    H138607   6.934   1.763   7.990  1.6135 -2.5096  2.0708
 4804TIP3    H238608   6.927   1.657   7.882  0.8862 -1.4205  1.0180
 4805TIP3   OH238609   4.966   5.513   6.810  0.4435  0.2380  0.0746
 4805TIP3    H138610   4.882   5.503   6.766  1.2206 -0.6135 -1.2789
 4805TIP3    H238611   5.025   5.543   6.741  2.2183 -3.2291 -0.1297
 4806TIP3   OH238612   5.293   4.788   7.604 -0.1540  0.1127 -0.3342
 4806TIP3    H138613   5.355   4.738   7.657  0.8556  1.3049 -0.3501
 4806TIP3    H238614   5.263   4.727   7.537  1.9490 -0.1475 -1.0860
 4807TIP3   OH238615   3.718   5.554   6.582  0.3262  0.0568  0.3673
 4807TIP3    H138616   3.639   5.565   6.634 -1.1904 -0.6125 -1.6668
 4807TIP3    H238617   3.694   5.586   6.495  2.1976 -0.4627 -0.3864
 4808TIP3   OH238618   2.122   2.578   9.392 -0.7451 -0.1887  0.2350
 4808TIP3    H138619   2.058   2.647   9.407  0.0444  0.7844 -0.7554
 4808TIP3    H238620   2.186   2.616   9.332 -1.4587 -2.4496 -2.1949
 4809TIP3   OH238621   3.456   5.121   9.522  0.8808 -0.3570 -0.0783
 4809TIP3    H138622   3.434   5.082   9.437  1.2452 -1.0260  0.1278
 4809TIP3    H238623   3.527   5.182   9.503  1.2431 -0.8124 -0.1908
 4810TIP3   OH238624   0.280   7.187   8.764  0.2770 -0.0782  0.8140
 4810TIP3    H138625   0.208   7.186   8.828  0.6915 -0.8331  1.2810
 4810TIP3    H238626   0.356   7.160   8.814  0.3967 -1.8165 -0.2581
 4811TIP3   OH238627   1.144   0.464   9.308 -0.0388  0.3421  0.0907
 4811TIP3    H138628   1.211   0.397   9.296  0.0501  0.4905 -0.2739
 4811TIP3    H238629   1.168   0.508   9.389  0.4974  0.6091 -0.2080
 4812TIP3   OH238630   4.541   6.496   8.865 -0.8378 -0.1139  0.2226
 4812TIP3    H138631   4.565   6.408   8.894  1.7212 -0.2387 -1.9117
 4812TIP3    H238632   4.592   6.554   8.920 -1.4599 -0.0008  0.6928
 4813TIP3   OH238633   1.644   1.696   9.283  0.2458  0.3641  0.1098
 4813TIP3    H138634   1.625   1.620   9.338  1.1304  0.4037  0.4857
 4813TIP3    H238635   1.562   1.713   9.237 -0.7314  0.7335  1.8948
 4814TIP3   OH238636   6.341   1.244   7.966  0.1734 -0.1691 -0.4398
 4814TIP3    H138637   6.387   1.321   7.932  2.1232 -0.4750  1.2777
 4814TIP3    H238638   6.279   1.279   8.030  0.6795  0.0227 -0.0493
 4815TIP3   OH238639   6.072   2.656   7.572 -0.0898  0.3537 -0.5138
 4815TIP3    H138640   6.050   2.749   7.562  1.0092  0.6232 -0.5009
 4815TIP3    H238641   6.157   2.656   7.615  0.1848 -0.6562 -1.0291
 4816TIP3   OH238642   1.733   5.703   8.647 -0.0685  0.2132  0.0545
 4816TIP3    H138643   1.760   5.631   8.703 -0.4731  0.9891  1.2832
 4816TIP3    H238644   1.638   5.698   8.645 -0.1057  0.7765  0.2376
 4817TIP3   OH238645   6.389   5.967   8.862  0.4793  0.0854  0.2798
 4817TIP3    H138646   6.386   5.958   8.957  2.2792 -0.3382  0.3308
 4817TIP3    H238647   6.354   5.885   8.829  2.3265 -0.9067  0.6394
 4818TIP3   OH238648   7.247   7.365   9.017 -0.3299 -0.0440 -0.5449
 4818TIP3    H138649   7.311   7.315   8.967  0.5369  1.3626 -0.8784
 4818TIP3    H238650   7.292   7.445   9.041 -1.9441  0.9731 -0.7493
 4819TIP3   OH238651   6.914   2.959   8.143  0.5436  0.0443  0.3924
 4819TIP3    H138652   6.875   2.871   8.142  0.7780 -0.0582 -0.4708
 4819TIP3    H238653   6.884   3.000   8.062  0.4683  0.7580  0.7687
 4820TIP3   OH238654   1.009   1.921   8.132  0.4189  0.2539  0.3478
 4820TIP3    H138655   1.035   1.957   8.048  0.4530  0.6479  0.5262
 4820TIP3    H238656   0.917   1.895   8.120  0.1500  1.1253  0.4483
 4821TIP3   OH238657   3.500   0.528   7.859  0.2044 -0.3124  0.0052
 4821TIP3    H138658   3.539   0.461   7.802 -0.6472  0.7571 -1.9369
 4821TIP3    H238659   3.536   0.510   7.946  2.8732 -1.0012 -1.1580
 4822TIP3   OH238660   3.733   1.298   8.743  0.0536 -0.4719 -1.0611
 4822TIP3    H138661   3.738   1.207   8.772 -1.7895 -0.1090  0.6063
 4822TIP3    H238662   3.822   1.331   8.752  0.0934 -1.1268  1.8311
 4823TIP3   OH238663   2.777   7.456   8.999 -0.5623  0.0707  0.3855
 4823TIP3    H138664   2.797   7.535   9.050  1.4592  0.3929 -0.8202
 4823TIP3    H238665   2.719   7.487   8.929 -0.8526  0.2245  0.6927
 4824TIP3   OH238666   4.304   2.958   9.632  0.1329 -0.2375  0.3042
 4824TIP3    H138667   4.385   2.932   9.588 -0.3509 -1.8071  0.2593
 4824TIP3    H238668   4.326   3.040   9.675  1.4908 -0.1781 -0.4169
 4825TIP3   OH238669   2.708   0.949   9.495 -0.1444  0.0247 -0.0451
 4825TIP3    H138670   2.629   1.001   9.479  0.1982  0.5534 -0.0331
 4825TIP3    H238671   2.690   0.902   9.576 -1.0802 -1.0943 -0.8723
 4826TIP3   OH238672   3.783   3.638   8.219 -0.1879  0.4661 -0.3323
 4826TIP3    H138673   3.792   3.613   8.311 -1.4100 -0.7042 -0.4993
 4826TIP3    H238674   3.749   3.559   8.176 -1.0762  1.4504 -1.5056
 4827TIP3   OH238675   0.706   5.247   7.420  0.0030  0.7608 -0.3516
 4827TIP3    H138676   0.673   5.289   7.340 -1.1826  0.1904 -0.1655
 4827TIP3    H238677   0.767   5.312   7.456  0.7840  0.9156 -1.8535
 4828TIP3   OH238678   4.707   1.803   8.474  0.4641 -0.5623 -0.2402
 4828TIP3    H138679   4.658   1.722   8.486 -1.7702  0.6569 -0.5582
 4828TIP3    H238680   4.766   1.784   8.401 -1.2462 -1.4396 -1.4898
 4829TIP3   OH238681   2.478   1.979   9.325 -0.7977  0.5838 -0.2297
 4829TIP3    H138682   2.551   1.919   9.338 -2.0790 -1.3723 -1.5260
 4829TIP3    H238683   2.453   2.006   9.413  0.8319  0.5064  0.2806
 4830TIP3   OH238684   0.181   1.866   9.339  0.4244 -0.7020  0.2803
 4830TIP3    H138685   0.253   1.921   9.369  1.5832 -2.1555  0.2832
 4830TIP3    H238686   0.211   1.777   9.356 -1.1260 -1.3655 -0.3188
 4831TIP3   OH238687   3.660   1.016   7.729  0.9519  0.2674  0.3964
 4831TIP3    H138688   3.614   1.098   7.750  2.0179  0.5908  1.5585
 4831TIP3    H238689   3.669   1.018   7.634  1.4404  1.7821  0.4423
 4832TIP3   OH238690   6.919   2.339   7.235 -0.4848 -0.4349 -0.2635
 4832TIP3    H138691   6.908   2.313   7.327  1.3230  1.5543  0.6042
 4832TIP3    H238692   6.849   2.403   7.220  0.6622  1.1011  0.5818
 4833TIP3   OH238693   4.765   6.216   7.710 -0.8216 -0.0972 -0.9197
 4833TIP3    H138694   4.771   6.121   7.712 -2.1113 -0.1733  0.9367
 4833TIP3    H238695   4.766   6.238   7.616 -2.6541 -2.0921 -1.4613
 4834TIP3   OH238696   0.338   7.459   7.805 -0.4484 -0.3166 -0.1977
 4834TIP3    H138697   0.376   7.373   7.822 -0.0914 -0.1530 -0.1582
 4834TIP3    H238698   0.362   7.512   7.881  0.2689  0.1238 -0.7245
 4835TIP3   OH238699   3.860   0.022   7.490 -0.0709  0.7452  0.3796
 4835TIP3    H138700   3.855   0.113   7.462 -2.2977  0.5570 -0.0132
 4835TIP3    H238701   3.941  -0.011   7.451  1.2297  2.7382  1.2118
 4836TIP3   OH238702   3.745   1.320   6.404 -0.3922  0.5297  0.3374
 4836TIP3    H138703   3.715   1.396   6.356  1.1440  0.1421 -1.3553
 4836TIP3    H238704   3.689   1.248   6.375  0.1316  0.4241 -0.4478
 4837TIP3   OH238705   6.973   6.102   8.548 -0.0919  0.2098 -0.5114
 4837TIP3    H138706   6.895   6.071   8.502 -0.7036  0.8116  0.0832
 4837TIP3    H238707   7.041   6.040   8.525 -0.0579  1.0761 -3.1302
 4838TIP3   OH238708   5.683   6.232   9.383  0.2277  0.2419 -0.2423
 4838TIP3    H138709   5.759   6.242   9.325 -0.5001  2.6296 -0.9071
 4838TIP3    H238710   5.632   6.162   9.343  0.7106  0.5218 -1.4020
 4839TIP3   OH238711   1.041   4.695   8.092 -0.1383  0.1623 -0.0242
 4839TIP3    H138712   1.127   4.707   8.131  0.8555  1.4397 -2.4212
 4839TIP3    H238713   1.045   4.608   8.051  0.2888  0.5155 -0.7458
 4840TIP3   OH238714   1.261   7.214   8.632  0.1934  0.0430  0.5291
 4840TIP3    H138715   1.312   7.279   8.584  0.1046 -0.2930 -0.0312
 4840TIP3    H238716   1.320   7.181   8.699  0.0997  1.0156  1.1144
 4841TIP3   OH238717   4.105   6.042   9.375 -0.4670  0.5420 -0.1149
 4841TIP3    H138718   4.133   5.998   9.455 -0.6088  2.3290  0.9767
 4841TIP3    H238719   4.155   6.124   9.375 -0.9061  0.8373 -1.5682
 4842TIP3   OH238720   0.605   5.128   7.637 -0.0656 -0.0400 -1.0928
 4842TIP3    H138721   0.641   5.172   7.561  0.2010  2.0139  0.1583
 4842TIP3    H238722   0.669   5.142   7.706 -0.4203 -1.6423 -0.3817
 4843TIP3   OH238723   0.060   3.193   8.814  0.3492  0.2102 -0.0176
 4843TIP3    H138724   0.114   3.185   8.735  2.8969 -1.0080  1.7034
 4843TIP3    H238725   0.038   3.103   8.838 -1.8046  0.6528 -0.1864
 4844TIP3   OH238726   3.786   4.064   9.805  0.4018  0.2715 -0.1366
 4844TIP3    H138727   3.799   4.133   9.740 -2.7741  1.6101  0.4917
 4844TIP3    H238728   3.733   4.105   9.873  0.3914 -2.1730  1.4464
 4845TIP3   OH238729   0.128   4.651   6.866  0.1784 -0.2604 -0.1431
 4845TIP3    H138730   0.215   4.661   6.828 -0.1513  0.2461 -0.7937
 4845TIP3    H238731   0.127   4.710   6.942  1.2235 -2.1211  1.3767
 4846TIP3   OH238732   0.850   5.883   8.647  0.0221  0.1285  0.3476
 4846TIP3    H138733   0.906   5.811   8.618 -0.8731 -0.3649 -0.1844
 4846TIP3    H238734   0.835   5.935   8.568 -0.0777  0.3941  0.5389
 4847TIP3   OH238735   4.142   1.630   6.809  0.2134 -0.1917  0.0149
 4847TIP3    H138736   4.151   1.703   6.746 -3.9829 -0.9234 -1.8059
 4847TIP3    H238737   4.128   1.553   6.754  0.4162 -1.6351  1.8997
 4848TIP3   OH238738   6.742   7.232   8.457 -0.1794  0.3067 -0.1984
 4848TIP3    H138739   6.819   7.284   8.436  0.1637 -0.5706 -1.2040
 4848TIP3    H238740   6.740   7.164   8.390 -2.7524  1.2485 -1.2111
 4849TIP3   OH238741   2.325   7.334   7.838 -0.2137  0.0843 -0.4080
 4849TIP3    H138742   2.236   7.331   7.873 -0.2277 -0.3129 -0.4716
 4849TIP3    H238743   2.382   7.323   7.914 -0.2615 -2.0776 -0.6264
 4850TIP3   OH238744   7.394   1.399   8.932  0.1233 -0.2805  0.2772
 4850TIP3    H138745   7.379   1.397   9.027 -1.7528 -0.1008  0.0184
 4850TIP3    H238746   7.487   1.379   8.922  0.7848  1.4381  2.2405
 4851TIP3   OH238747   2.399   5.363   8.918  0.3260 -0.5091  0.1661
 4851TIP3    H138748   2.361   5.364   9.005 -1.2856  0.0520 -0.5117
 4851TIP3    H238749   2.463   5.291   8.921 -0.9125 -1.6278  1.3205
 4852TIP3   OH238750   1.072   0.965   7.834  0.3654 -1.5338 -0.2861
 4852TIP3    H138751   1.101   0.992   7.747  0.1208  0.0922  0.0948
 4852TIP3    H238752   1.152   0.960   7.886  0.3554 -0.7648 -0.1812
 4853TIP3   OH238753   0.313   5.358   7.292  0.4516  0.0855 -0.3447
 4853TIP3    H138754   0.356   5.430   7.247  0.8372 -0.3558 -0.6859
 4853TIP3    H238755   0.311   5.386   7.384 -0.2320  0.9297 -0.6005
 4854TIP3   OH238756   1.373   5.433   6.977 -0.1041 -0.5227  0.3050
 4854TIP3    H138757   1.367   5.380   6.898 -1.8937 -0.2548  0.2187
 4854TIP3    H238758   1.461   5.471   6.975  0.4146 -1.7368 -0.7498
 4855TIP3   OH238759   5.626   5.853   7.402 -0.2398 -0.5374 -0.0314
 4855TIP3    H138760   5.709   5.862   7.449 -0.2035  0.7651 -0.3119
 4855TIP3    H238761   5.626   5.926   7.339 -1.0447 -1.2570 -0.8899
 4856TIP3   OH238762   6.776   0.359   7.449  0.6615 -0.5547  0.1482
 4856TIP3    H138763   6.793   0.452   7.434  0.1854 -0.7545 -1.7826
 4856TIP3    H238764   6.696   0.358   7.502  0.4640  0.1156 -0.1334
 4857TIP3   OH238765   1.933   0.747   7.062 -0.0433  0.6470 -0.2481
 4857TIP3    H138766   1.900   0.677   7.118 -2.8612  0.5639 -1.8404
 4857TIP3    H238767   1.894   0.827   7.097 -0.5576  0.7920 -1.1177
 4858TIP3   OH238768   5.407   3.254   8.689  0.1977 -0.3357 -0.0385
 4858TIP3    H138769   5.350   3.330   8.704 -0.9522 -1.4592  1.6238
 4858TIP3    H238770   5.493   3.282   8.720 -0.2008  0.3099  0.5181
 4859TIP3   OH238771   2.872   3.668   9.138 -0.0314  0.3913 -0.2110
 4859TIP3    H138772   2.908   3.734   9.078 -0.3658  0.2001 -0.6299
 4859TIP3    H238773   2.862   3.714   9.221 -0.9259  1.0849 -0.6823
 4860TIP3   OH238774   2.519   0.637   7.629 -0.0829  0.0506 -0.4249
 4860TIP3    H138775   2.557   0.594   7.553 -1.2583  0.9669 -1.5779
 4860TIP3    H238776   2.535   0.730   7.615  0.8246  0.1603  1.1192
 4861TIP3   OH238777   6.695   3.892   8.346 -0.2357 -0.2236 -0.0495
 4861TIP3    H138778   6.683   3.824   8.413 -0.0331 -0.2924 -0.0844
 4861TIP3    H238779   6.783   3.926   8.362 -0.0566 -0.4766 -0.4972
 4862TIP3   OH238780   3.978   0.514   8.891 -0.3123  0.1411 -0.1859
 4862TIP3    H138781   3.981   0.427   8.930  2.2525 -0.4179 -1.4582
 4862TIP3    H238782   4.013   0.572   8.959  0.9550 -0.3191 -0.4316
 4863TIP3   OH238783   0.166   1.730   8.514  0.1154 -0.0431  0.9776
 4863TIP3    H138784   0.196   1.820   8.516  2.2153 -0.6771  0.3126
 4863TIP3    H238785   0.070   1.736   8.521  0.1006  2.2746 -0.3698
 4864TIP3   OH238786   4.151   6.830   7.999 -0.4400 -0.6047 -0.4989
 4864TIP3    H138787   4.071   6.792   8.035 -0.3969 -0.8662 -0.6759
 4864TIP3    H238788   4.202   6.755   7.970 -0.0577 -0.4499 -0.2412
 4865TIP3   OH238789   0.210   2.399   8.656  0.1745  0.5286  0.1366
 4865TIP3    H138790   0.277   2.463   8.631 -0.4102  1.3545  0.6340
 4865TIP3    H238791   0.222   2.387   8.751  1.2069 -1.2054 -0.1765
 4866TIP3   OH238792   0.161   5.876   8.130 -0.1893 -0.4846 -0.1438
 4866TIP3    H138793   0.138   5.845   8.042  0.4318  2.3502 -1.4250
 4866TIP3    H238794   0.222   5.948   8.114  0.1351 -0.0451  2.6613
 4867TIP3   OH238795   3.978   3.165   8.141 -0.1530 -0.1696 -0.6919
 4867TIP3    H138796   3.917   3.202   8.205  0.8286  0.6080 -0.1637
 4867TIP3    H238797   4.064   3.195   8.170  0.3837 -0.3259 -2.0343
 4868TIP3   OH238798   7.205   5.996   8.487 -0.2598  0.1065  0.1783
 4868TIP3    H138799   7.223   5.968   8.576 -1.1061 -0.1941  0.2674
 4868TIP3    H238800   7.273   6.060   8.467  0.2542 -0.2237  0.8438
 4869TIP3   OH238801   6.696   5.731   8.575 -0.0804  0.2320  0.2477
 4869TIP3    H138802   6.775   5.762   8.620  0.8138 -0.2801 -0.9105
 4869TIP3    H238803   6.648   5.811   8.552  0.3400  0.5703  0.5355
 4870TIP3   OH238804   4.939   2.273   8.725 -0.1250  0.2322 -0.0422
 4870TIP3    H138805   5.019   2.286   8.777  0.7106 -1.9794 -0.6775
 4870TIP3    H238806   4.966   2.215   8.654 -2.5746 -1.7134  0.4966
 4871TIP3   OH238807   0.670   6.576   8.474  0.2722 -0.1746 -0.5299
 4871TIP3    H138808   0.729   6.591   8.400 -0.2943  0.9823 -0.7797
 4871TIP3    H238809   0.582   6.590   8.437  0.0360  1.6264  0.5992
 4872TIP3   OH238810   6.044   5.281   8.145 -0.3271 -0.0599  0.1366
 4872TIP3    H138811   5.957   5.309   8.172  0.5899  2.4458  0.7727
 4872TIP3    H238812   6.089   5.257   8.226  0.3828  1.2280  0.1498
 4873TIP3   OH238813   0.299   0.745   8.459 -0.4813  0.1787 -0.1043
 4873TIP3    H138814   0.366   0.814   8.462  0.1605 -0.3065 -2.0498
 4873TIP3    H238815   0.239   0.772   8.389 -1.1009 -0.4863  0.1493
 4874TIP3   OH238816   5.432   1.669   8.024  0.3303  0.1959  0.2446
 4874TIP3    H138817   5.426   1.765   8.015  1.8929  0.5047  1.7366
 4874TIP3    H238818   5.342   1.638   8.017 -0.0606  1.5997 -1.7542
 4875TIP3   OH238819   6.693   0.212   9.726  0.0403  0.1350 -0.1217
 4875TIP3    H138820   6.644   0.173   9.798  1.1469 -1.6827 -0.3194
 4875TIP3    H238821   6.782   0.222   9.759  0.5366 -0.6078 -1.1670
 4876TIP3   OH238822   6.593   6.603   8.145  0.3897  0.5468  0.4033
 4876TIP3    H138823   6.540   6.682   8.141 -0.3348  0.1205  1.1623
 4876TIP3    H238824   6.588   6.575   8.237  2.4159  0.8098  0.6402
 4877TIP3   OH238825   5.902   4.681   7.622  0.0173 -0.2492 -0.1313
 4877TIP3    H138826   5.938   4.663   7.535 -3.0418  0.6742 -1.7763
 4877TIP3    H238827   5.838   4.611   7.636 -0.7177  0.5490  0.6014
 4878TIP3   OH238828   6.595   5.555   8.221  0.2070 -0.1116  1.1591
 4878TIP3    H138829   6.557   5.473   8.189 -0.8646  1.0572 -0.7091
 4878TIP3    H238830   6.525   5.596   8.271 -0.0547  0.7075  0.1483
 4879TIP3   OH238831   2.121   4.109   9.531 -0.1195 -0.6577 -0.3172
 4879TIP3    H138832   2.056   4.120   9.462  1.7408 -0.9276 -2.2136
 4879TIP3    H238833   2.150   4.018   9.522 -0.2216 -0.8781  1.2275
 4880TIP3   OH238834   2.532   0.491   9.413 -0.0112 -0.0264  0.0877
 4880TIP3    H138835   2.463   0.425   9.415 -1.2748  1.2293 -0.0506
 4880TIP3    H238836   2.551   0.504   9.320  1.8528 -1.7499  0.1677
 4881TIP3   OH238837   0.822   0.555   8.879 -0.2223  0.3950 -0.0838
 4881TIP3    H138838   0.818   0.526   8.970  0.2674  0.6293  0.0139
 4881TIP3    H238839   0.891   0.621   8.877 -0.7319  0.9279 -0.4761
 4882TIP3   OH238840   4.143   5.616   8.287 -0.5987  0.6303  0.3865
 4882TIP3    H138841   4.136   5.619   8.192 -0.6113  1.3827  0.4035
 4882TIP3    H238842   4.127   5.524   8.310 -0.1659  0.3600 -0.3689
 4883TIP3   OH238843   5.047   6.595   9.012 -0.1287  0.4229 -0.3007
 4883TIP3    H138844   4.959   6.558   9.019  0.4772 -0.6685  2.4476
 4883TIP3    H238845   5.033   6.681   8.971 -2.3096 -0.1237 -0.8608
 4884TIP3   OH238846   3.152   0.354   6.611  0.2121  0.3489  0.2053
 4884TIP3    H138847   3.060   0.342   6.634  0.2152 -0.7645 -0.3193
 4884TIP3    H238848   3.163   0.305   6.529  0.9519  1.5784 -0.4679
 4885TIP3   OH238849   0.949   0.001   7.859 -0.3207 -0.2680  0.3197
 4885TIP3    H138850   0.864  -0.016   7.819 -1.6252 -0.0020  2.8383
 4885TIP3    H238851   0.982  -0.086   7.883 -1.1610 -0.1954  1.7935
 4886TIP3   OH238852   2.441   7.008   7.473  0.5709 -0.1558 -0.0042
 4886TIP3    H138853   2.449   6.964   7.388  1.1699 -1.4242  0.6811
 4886TIP3    H238854   2.348   7.025   7.482 -0.1014 -3.4579  0.6945
 4887TIP3   OH238855   6.635   2.030   9.102  0.3966 -0.0530 -0.2251
 4887TIP3    H138856   6.584   1.967   9.154  0.5997 -0.8942 -1.0096
 4887TIP3    H238857   6.571   2.096   9.076 -0.0160 -0.3967 -0.1116
 4888TIP3   OH238858   2.795   7.092   9.699 -0.3607  0.6069  0.0373
 4888TIP3    H138859   2.879   7.047   9.703 -1.3391 -1.2387  1.0529
 4888TIP3    H238860   2.814   7.182   9.726  1.1676  0.0749  0.8285
 4889TIP3   OH238861   4.709   4.839   8.204  0.1155  0.0712  0.7511
 4889TIP3    H138862   4.721   4.762   8.260  0.2498 -0.5363 -0.0979
 4889TIP3    H238863   4.781   4.897   8.227 -0.0690  0.0158  1.5038
 4890TIP3   OH238864   2.268   3.621   7.467  0.9432 -0.4082 -0.1791
 4890TIP3    H138865   2.172   3.615   7.471  0.9684 -0.8051 -0.1535
 4890TIP3    H238866   2.291   3.679   7.539  0.8108 -1.2690  0.5735
 4891TIP3   OH238867   6.006   0.426   7.317  0.0197 -0.1917 -0.4399
 4891TIP3    H138868   5.920   0.446   7.354 -0.0729  0.1612 -0.8326
 4891TIP3    H238869   6.049   0.371   7.383  0.1119  0.9521  0.4987
 4892TIP3   OH238870   2.775   6.740   8.455 -0.2683  0.3917  0.7047
 4892TIP3    H138871   2.853   6.710   8.409  0.1087  0.8346  1.0529
 4892TIP3    H238872   2.722   6.782   8.388 -1.1007 -1.5499  0.0615
 4893TIP3   OH238873   0.816   2.632   6.511 -0.0880  0.0768  0.1900
 4893TIP3    H138874   0.780   2.680   6.585 -0.4567 -0.4992  0.3895
 4893TIP3    H238875   0.858   2.699   6.457  0.9788  0.4027  1.3690
 4894TIP3   OH238876   2.796   5.792   7.323 -0.3255 -0.1270  0.0447
 4894TIP3    H138877   2.794   5.783   7.227  1.1536 -1.4278  0.0967
 4894TIP3    H238878   2.748   5.716   7.355 -1.9791  0.9944  0.3729
 4895TIP3   OH238879   4.132   6.755   8.696  0.4951  0.3041 -0.3094
 4895TIP3    H138880   4.224   6.729   8.701  0.7834  1.4720  1.2404
 4895TIP3    H238881   4.125   6.828   8.758 -1.2286  0.9840 -1.2615
 4896TIP3   OH238882   2.592   1.714   8.044  0.3109 -1.1402 -0.4286
 4896TIP3    H138883   2.682   1.744   8.032  0.1114 -1.1795 -2.5265
 4896TIP3    H238884   2.538   1.782   8.005 -0.7468 -0.3476  2.2135
 4897TIP3   OH238885   6.842   3.329   8.944 -0.0506 -0.0009  0.1098
 4897TIP3    H138886   6.840   3.235   8.924 -2.1203 -0.2357  1.1544
 4897TIP3    H238887   6.879   3.334   9.032  1.6585  0.3450 -0.5978
 4898TIP3   OH238888   2.859   0.195   7.040 -0.0585 -0.1325  0.0230
 4898TIP3    H138889   2.906   0.206   7.122  0.2249  0.8364 -0.2563
 4898TIP3    H238890   2.819   0.280   7.023 -0.5443 -0.4678 -0.5846
 4899TIP3   OH238891   0.920   1.737   7.062  0.3970  0.2350 -0.6121
 4899TIP3    H138892   0.918   1.821   7.015 -0.7812  0.2105 -0.6367
 4899TIP3    H238893   0.891   1.759   7.151  0.5425 -0.0804 -0.4850
 4900TIP3   OH238894   3.674   2.196   9.371  0.2111 -0.0137 -0.6275
 4900TIP3    H138895   3.610   2.126   9.370 -1.3776  1.3160  0.8595
 4900TIP3    H238896   3.718   2.190   9.286 -1.5755 -1.2538 -1.5232
 4901TIP3   OH238897   5.526   2.992   7.905  0.1005 -0.0364  0.5892
 4901TIP3    H138898   5.474   2.995   7.824  1.0470 -2.3473 -0.1888
 4901TIP3    H238899   5.564   3.080   7.912 -1.1897  0.6693 -0.6497
 4902TIP3   OH238900   4.526   3.607   8.676  0.5790  0.3329 -0.4387
 4902TIP3    H138901   4.558   3.568   8.594  0.4987 -1.0311  0.1577
 4902TIP3    H238902   4.546   3.542   8.743 -2.1882 -0.0032  0.1807
 4903TIP3   OH238903   0.446   3.539   8.780 -0.0145 -0.0421  0.1645
 4903TIP3    H138904   0.449   3.532   8.684  0.2610  0.1752  0.1576
 4903TIP3    H238905   0.513   3.603   8.802 -0.9851  0.9199  0.4069
 4904TIP3   OH238906   4.286   4.394   8.092  0.0695  0.2023 -0.3523
 4904TIP3    H138907   4.375   4.414   8.062  0.4926  0.3837  0.9580
 4904TIP3    H238908   4.287   4.416   8.186 -1.0433 -0.8087 -0.0844
 4905TIP3   OH238909   5.108   6.370   9.188  0.0926 -0.0301 -0.3625
 4905TIP3    H138910   5.185   6.403   9.234  1.0584 -1.5878 -0.7754
 4905TIP3    H238911   5.082   6.441   9.130 -0.0231  1.2696  1.2368
 4906TIP3   OH238912   1.207   4.742   9.538 -0.0426  0.2087  0.4438
 4906TIP3    H138913   1.248   4.663   9.574  0.6340  0.6527  0.6573
 4906TIP3    H238914   1.127   4.753   9.589  0.0443 -0.1309  0.6588
 4907TIP3   OH238915   5.160   2.046   7.557  0.0177 -0.5294  0.2155
 4907TIP3    H138916   5.198   2.058   7.470 -1.1988  1.2825 -0.1085
 4907TIP3    H238917   5.114   1.963   7.552  1.9818 -1.6650 -0.0702
 4908TIP3   OH238918   1.562   5.629   9.220  0.1143  0.1027 -0.1278
 4908TIP3    H138919   1.575   5.626   9.125  0.7603  1.3334 -0.1089
 4908TIP3    H238920   1.514   5.711   9.235 -0.2653 -0.2381  0.5880
 4909TIP3   OH238921   6.525   2.692   7.115  0.0046 -0.3504 -0.5653
 4909TIP3    H138922   6.484   2.680   7.030  1.8616  1.0419 -1.7449
 4909TIP3    H238923   6.602   2.636   7.113  0.9880  0.9459 -0.5219
 4910TIP3   OH238924   4.022   0.221   7.792 -0.3161 -0.1559  0.1440
 4910TIP3    H138925   4.062   0.166   7.724 -1.9773 -1.1484 -0.0972
 4910TIP3    H238926   4.095   0.248   7.847  0.9229 -0.3239 -1.3368
 4911TIP3   OH238927   5.566   5.548   8.168 -0.2143  0.1188  0.0810
 4911TIP3    H138928   5.623   5.624   8.180 -0.8925  0.5287  0.7297
 4911TIP3    H238929   5.478   5.581   8.184 -1.0508  0.2070 -3.7693
 4912TIP3   OH238930   1.459   6.005   8.089  0.3951 -0.3626 -0.3163
 4912TIP3    H138931   1.399   5.956   8.034  0.4653  0.1232 -0.8434
 4912TIP3    H238932   1.540   6.009   8.038  0.5682 -0.1894 -0.0326
 4913TIP3   OH238933   7.078   3.495   7.692 -0.4232  0.2687 -0.5228
 4913TIP3    H138934   7.158   3.443   7.699 -1.2159 -0.9996 -0.6502
 4913TIP3    H238935   7.108   3.586   7.699  1.3283 -0.0389 -3.0215
 4914TIP3   OH238936   1.739   6.551   7.942  0.3053  0.1004 -0.6948
 4914TIP3    H138937   1.752   6.475   7.999  0.7184  1.6529  1.3871
 4914TIP3    H238938   1.828   6.580   7.922  0.1589 -0.3649 -2.0985
 4915TIP3   OH238939   4.717   1.658   8.190 -0.0734  0.0092 -0.2353
 4915TIP3    H138940   4.654   1.666   8.119  0.0237  0.7763 -0.2376
 4915TIP3    H238941   4.730   1.563   8.199  0.5404 -0.0881 -1.7957
 4916TIP3   OH238942   7.132   5.103  19.796  0.0342 -0.4708 -0.2460
 4916TIP3    H138943   7.109   5.167  19.863 -1.0099 -1.3554  0.2669
 4916TIP3    H238944   7.161   5.156  19.721 -2.1977  0.6775 -0.3692
 4917TIP3   OH238945   0.843   6.227   8.275 -0.0928  0.3205 -0.2909
 4917TIP3    H138946   0.883   6.280   8.206 -0.1075 -2.1513 -2.3573
 4917TIP3    H238947   0.755   6.263   8.285  0.3841  1.5949 -0.5747
 4918TIP3   OH238948   7.424   6.883   8.108 -0.3057 -0.2366 -0.2512
 4918TIP3    H138949   7.419   6.930   8.191  0.9583  0.5406 -0.5866
 4918TIP3    H238950   7.518   6.871   8.093 -0.5610 -2.0964 -0.6348
 4919TIP3   OH238951   2.580   2.073   8.566 -0.4328  0.5892 -0.4135
 4919TIP3    H138952   2.633   2.084   8.487 -0.0850 -1.0489 -0.4298
 4919TIP3    H238953   2.489   2.072   8.535 -0.3145  0.3463 -0.7522
 4920TIP3   OH238954   0.782   1.914   8.471 -0.3618 -0.3168  0.2146
 4920TIP3    H138955   0.861   1.965   8.489 -0.5876 -0.0292  0.4039
 4920TIP3    H238956   0.732   1.918   8.552  0.0039 -1.5600  0.5220
 4921TIP3   OH238957   5.714   5.169   9.378 -0.4818  0.1836  0.0849
 4921TIP3    H138958   5.778   5.188   9.309 -1.4890 -0.5923 -1.1092
 4921TIP3    H238959   5.759   5.189   9.460  1.5909 -1.2048 -0.6656
 4922TIP3   OH238960   6.482   4.912   7.496 -0.0098  0.1805  0.0672
 4922TIP3    H138961   6.397   4.890   7.459  0.0969 -0.6531  0.3087
 4922TIP3    H238962   6.484   5.008   7.496 -0.1123  0.2300 -1.8873
 4923TIP3   OH238963   6.274   3.314   7.652  0.1470  0.0446  1.2271
 4923TIP3    H138964   6.302   3.296   7.562  0.6916 -1.3930  1.6581
 4923TIP3    H238965   6.328   3.256   7.706 -1.0140  0.0038  2.3895
 4924TIP3   OH238966   1.808   6.228   8.959  1.2245 -0.1286  0.3555
 4924TIP3    H138967   1.827   6.311   9.003  3.6583 -1.0859  1.3252
 4924TIP3    H238968   1.863   6.230   8.881  0.9609 -0.6553  0.1554
 4925TIP3   OH238969   1.489   2.046   6.836 -0.8947 -0.3377  0.0533
 4925TIP3    H138970   1.564   2.045   6.896 -1.0436 -2.1407  0.2743
 4925TIP3    H238971   1.470   2.139   6.824  1.6759  0.2099 -0.4234
 4926TIP3   OH238972   3.651   2.155   6.684  0.0297 -0.0375 -0.4094
 4926TIP3    H138973   3.556   2.160   6.675  0.1748  1.0749 -1.7566
 4926TIP3    H238974   3.670   2.061   6.687 -1.1031 -0.2664 -0.0991
 4927TIP3   OH238975   4.370   4.001   7.825  0.0768  0.3377 -0.2669
 4927TIP3    H138976   4.305   4.057   7.868 -0.5935 -0.0438 -0.7620
 4927TIP3    H238977   4.450   4.053   7.825 -0.6050  1.4233 -1.0000
 4928TIP3   OH238978   5.166   3.599   7.538  0.1165  0.1097 -0.4262
 4928TIP3    H138979   5.173   3.679   7.487  1.8216 -0.0866 -0.5451
 4928TIP3    H238980   5.092   3.615   7.597  0.5751  1.8670 -0.2737
 4929TIP3   OH238981   1.568   4.204   8.536 -0.1740  0.0103 -0.1003
 4929TIP3    H138982   1.556   4.110   8.549 -1.3652  0.1337 -0.1696
 4929TIP3    H238983   1.613   4.234   8.615  1.8332 -0.8795 -0.8539
 4930TIP3   OH238984   7.375   0.975   7.468  0.5157 -0.4958  0.6031
 4930TIP3    H138985   7.408   0.889   7.443  1.1602 -0.0852 -0.0202
 4930TIP3    H238986   7.353   1.017   7.385  1.7041  0.5085  0.7567
 4931TIP3   OH238987   4.245   1.518   8.281  0.2169 -0.1913  0.1457
 4931TIP3    H138988   4.178   1.472   8.230  0.0823 -0.4103  0.5109
 4931TIP3    H238989   4.248   1.470   8.364 -0.2297  0.7319  0.7040
 4932TIP3   OH238990   2.769   0.035   7.595  0.3478  0.1058 -0.2255
 4932TIP3    H138991   2.849   0.006   7.551 -0.3527 -1.4606 -0.5430
 4932TIP3    H238992   2.798   0.103   7.656  1.7855  0.1498 -0.9143
 4933TIP3   OH238993   4.562   0.642   7.151 -0.1028  0.1435  0.1398
 4933TIP3    H138994   4.572   0.595   7.233 -1.4589  0.4525  0.5131
 4933TIP3    H238995   4.561   0.735   7.176 -0.9540  0.2294 -0.1466
 4934TIP3   OH238996   3.493   7.158   9.029  0.0221  0.1333  0.0518
 4934TIP3    H138997   3.478   7.195   9.116 -1.6866 -0.6240  0.1276
 4934TIP3    H238998   3.488   7.232   8.969  0.0116  0.4916  0.4978
 4935TIP3   OH238999   0.325   3.777   7.392  0.5326 -0.3542  0.0624
 4935TIP3    H139000   0.253   3.750   7.448 -0.5679 -1.0105 -1.6027
 4935TIP3    H239001   0.331   3.709   7.325  0.4817  1.3333 -1.7692
 4936TIP3   OH239002   3.225   3.571   9.470 -0.3365 -0.5204  0.7955
 4936TIP3    H139003   3.164   3.638   9.438 -2.0661 -1.5017  1.8763
 4936TIP3    H239004   3.272   3.613   9.542 -1.4665 -0.4626  1.5186
 4937TIP3   OH239005   7.490   6.504   8.844 -0.5180  0.5178 -0.1518
 4937TIP3    H139006   7.403   6.543   8.848 -0.7455 -0.0926  1.9008
 4937TIP3    H239007   7.520   6.501   8.935  1.8231  1.0434 -0.8259
 4938TIP3   OH239008   1.073   2.082   8.359 -0.5652 -0.2513  0.0278
 4938TIP3    H139009   1.036   2.032   8.287 -0.7102  0.7228 -0.5898
 4938TIP3    H239010   1.074   2.020   8.433 -1.4746 -0.9168 -0.4909
 4939TIP3   OH239011   0.397   3.673   9.111 -0.2476  0.5279 -0.0935
 4939TIP3    H139012   0.304   3.671   9.135 -0.0907  1.7820  0.6893
 4939TIP3    H239013   0.417   3.766   9.098  1.0720  0.3483  0.4723
 4940TIP3   OH239014   1.501   2.591   7.898  0.0264  0.1790 -0.8834
 4940TIP3    H139015   1.506   2.684   7.877  4.1337 -0.5429 -4.3298
 4940TIP3    H239016   1.535   2.584   7.987 -2.8336  2.0224  0.5085
 4941TIP3   OH239017   1.236   3.040   8.610 -0.0818  0.3892 -1.0654
 4941TIP3    H139018   1.288   3.071   8.536  1.1606  1.0525  0.0466
 4941TIP3    H239019   1.297   3.036   8.683 -1.1793 -0.6637 -0.1505
 4942TIP3   OH239020   3.628   6.263   7.731 -0.0662  0.5853  0.1526
 4942TIP3    H139021   3.683   6.268   7.808 -0.8153 -2.0990  0.9714
 4942TIP3    H239022   3.685   6.227   7.663  0.5612  2.8383 -0.5823
 4943TIP3   OH239023   7.400   1.309   9.554  0.5531 -0.0577  0.3242
 4943TIP3    H139024   7.318   1.348   9.524  0.0741 -1.4785 -0.2835
 4943TIP3    H239025   7.466   1.376   9.535  0.1652 -0.4975 -3.2119
 4944TIP3   OH239026   3.024   7.191   8.707  0.0698  0.3664 -0.1850
 4944TIP3    H139027   3.066   7.206   8.792 -1.1299  0.4148  0.4145
 4944TIP3    H239028   3.083   7.232   8.644  0.9756  0.3410  0.6135
 4945TIP3   OH239029   6.997   1.518   7.757  0.2339 -0.2966  0.3985
 4945TIP3    H139030   6.980   1.458   7.829  0.6681 -1.0895 -0.1378
 4945TIP3    H239031   6.988   1.464   7.678  1.2894  0.1718 -0.0665
 4946TIP3   OH239032   6.283   2.245   7.659  0.1018 -0.0782 -0.0711
 4946TIP3    H139033   6.297   2.332   7.698 -0.9226 -0.0815  0.3239
 4946TIP3    H239034   6.213   2.258   7.595 -0.3498 -0.6923  0.2913
 4947TIP3   OH239035   4.957   1.383   8.814 -0.3133  0.3468 -0.1575
 4947TIP3    H139036   4.885   1.330   8.780 -0.1708  0.8489 -1.2782
 4947TIP3    H239037   4.980   1.442   8.742  0.6433  0.7848  0.4828
 4948TIP3   OH239038   4.440   6.265   8.164 -0.0753  0.0399  0.0526
 4948TIP3    H139039   4.500   6.340   8.164  0.0615 -0.0699 -0.0453
 4948TIP3    H239040   4.354   6.304   8.177  0.1205  0.1178  1.2506
 4949TIP3   OH239041   1.911   3.183   8.350 -0.4056 -0.2515 -0.5418
 4949TIP3    H139042   1.945   3.259   8.397  1.5393 -0.6884 -1.1462
 4949TIP3    H239043   1.885   3.122   8.420  0.6626 -0.1321 -0.0153
 4950TIP3   OH239044   1.777   1.776   8.006 -0.4625  0.0925  0.4304
 4950TIP3    H139045   1.859   1.728   7.996 -0.8552 -0.7009  0.9136
 4950TIP3    H239046   1.804   1.864   8.032  0.2075 -0.4622  1.7039
 4951TIP3   OH239047   2.039   0.647   6.835  0.3481  0.0440  0.2970
 4951TIP3    H139048   2.010   0.679   6.921  1.8138 -0.1669  0.8937
 4951TIP3    H239049   2.058   0.555   6.849  1.0137  0.1106 -0.1424
 4952TIP3   OH239050   4.093   2.776   9.628 -0.1053  0.6232 -0.1206
 4952TIP3    H139051   4.150   2.706   9.594  0.0372  1.4132 -1.6211
 4952TIP3    H239052   4.154   2.844   9.657 -0.2366  1.3738 -1.5142
 4953TIP3   OH239053   6.158   4.606   6.686 -0.6357  0.5015 -0.3548
 4953TIP3    H139054   6.172   4.625   6.593  1.8482  0.2737 -0.0975
 4953TIP3    H239055   6.169   4.511   6.692  0.8676  0.6843  0.3572
 4954TIP3   OH239056   5.307   2.184   8.528  0.1097  0.4597  0.2077
 4954TIP3    H139057   5.401   2.206   8.529 -0.2759  2.2194  1.5574
 4954TIP3    H239058   5.278   2.198   8.618 -1.7663  1.4127 -0.5057
 4955TIP3   OH239059   0.407   2.613   8.599  0.0185  0.0349  0.0091
 4955TIP3    H139060   0.346   2.686   8.586  0.1456  0.0253 -0.6921
 4955TIP3    H239061   0.494   2.653   8.590  0.0858 -0.2436 -0.6938
 4956TIP3   OH239062   5.741   0.876   8.743 -0.1610 -0.1781 -0.1517
 4956TIP3    H139063   5.749   0.846   8.652 -1.6792  0.7687 -0.6494
 4956TIP3    H239064   5.649   0.858   8.765 -0.6762  2.4566  0.0990
 4957TIP3   OH239065   2.799   5.973   7.522  0.2561  0.9840 -0.2437
 4957TIP3    H139066   2.792   5.910   7.450  0.0978 -2.2042  2.3754
 4957TIP3    H239067   2.788   6.058   7.479 -0.0408 -0.7076 -3.9329
 4958TIP3   OH239068   5.272   7.177   7.562 -0.0248 -0.5374 -0.4042
 4958TIP3    H139069   5.193   7.129   7.537  0.4464 -0.4958 -2.0709
 4958TIP3    H239070   5.250   7.269   7.543  0.0449 -0.3927  0.1910
 4959TIP3   OH239071   6.321   5.160   7.451 -0.4804 -0.3801 -0.7296
 4959TIP3    H139072   6.264   5.179   7.525 -1.2008  1.7320 -1.7488
 4959TIP3    H239073   6.265   5.174   7.374  0.5941 -1.2700 -1.7127
 4960TIP3   OH239074   5.815   1.602   8.875 -0.0051  0.0157 -0.3346
 4960TIP3    H139075   5.850   1.543   8.809 -1.5849 -1.4119  0.0362
 4960TIP3    H239076   5.728   1.626   8.843  0.1192  1.1533  0.1291
 4961TIP3   OH239077   6.442   6.926   7.950  0.7310 -0.5283 -0.1529
 4961TIP3    H139078   6.487   6.981   7.885  0.6511 -1.4617 -1.0261
 4961TIP3    H239079   6.399   6.858   7.898 -0.6201 -0.4138  0.7715
 4962TIP3   OH239080   4.736   5.737   8.850 -0.1016  0.1168  0.1236
 4962TIP3    H139081   4.824   5.773   8.840  0.3309 -1.2331 -1.6104
 4962TIP3    H239082   4.726   5.679   8.774 -1.9329 -0.8959  1.0696
 4963TIP3   OH239083   5.202   5.202   7.952 -0.3869 -0.0826 -0.1270
 4963TIP3    H139084   5.137   5.198   7.882  0.1814  0.1721 -0.6831
 4963TIP3    H239085   5.251   5.282   7.935  0.5569 -0.6532 -0.1626
 4964TIP3   OH239086   1.922   1.228   7.882  0.4005 -0.1776  0.0363
 4964TIP3    H139087   1.925   1.167   7.808  0.8073  1.4598 -1.3632
 4964TIP3    H239088   2.011   1.263   7.888  0.0944  0.5336  0.5706
 4965TIP3   OH239089   1.232   5.808   9.322 -0.7054 -0.1343  0.1465
 4965TIP3    H139090   1.286   5.803   9.401 -1.3427 -1.7426  0.5150
 4965TIP3    H239091   1.236   5.900   9.296  3.2754 -0.3340 -0.6137
 4966TIP3   OH239092   3.733   0.126   9.039  0.2460  0.3762  0.2667
 4966TIP3    H139093   3.789   0.102   9.113 -0.1012  0.3081  0.5082
 4966TIP3    H239094   3.792   0.124   8.963 -0.2653 -4.0373 -0.2409
 4967TIP3   OH239095   1.793   5.327   7.672  0.7565 -0.4464  0.1138
 4967TIP3    H139096   1.738   5.365   7.604  0.3524 -0.0140  0.6809
 4967TIP3    H239097   1.793   5.391   7.743  3.6958  0.5877 -0.6602
 4968TIP3   OH239098   6.158   0.186   8.340  0.0980 -0.3208 -0.5660
 4968TIP3    H139099   6.141   0.138   8.259  0.7454  0.8779 -1.4369
 4968TIP3    H239100   6.155   0.119   8.409  0.7941 -1.5833 -1.7192
 4969TIP3   OH239101   4.894   0.219   9.316  0.2599  0.0391  0.3918
 4969TIP3    H139102   4.906   0.159   9.391 -1.3267 -0.4663  0.2796
 4969TIP3    H239103   4.805   0.200   9.285  0.2747  1.4538 -0.5636
 4970TIP3   OH239104   2.350   2.229   8.206  0.3002 -0.3054 -0.0597
 4970TIP3    H139105   2.354   2.137   8.232  0.4914 -0.5016 -0.7619
 4970TIP3    H239106   2.260   2.242   8.176  0.8403 -0.8452 -2.0057
 4971TIP3   OH239107   0.385   4.823   8.316 -0.5710 -0.0881  0.1461
 4971TIP3    H139108   0.374   4.732   8.290 -0.6481 -0.1129  0.2618
 4971TIP3    H239109   0.464   4.852   8.271 -0.9352 -0.0050 -0.4394
 4972TIP3   OH239110   5.105   7.265   8.721  0.4602  0.8024  0.1432
 4972TIP3    H139111   5.188   7.218   8.711 -0.7446 -1.5619  0.6266
 4972TIP3    H239112   5.096   7.314   8.640  1.2290 -0.7889 -0.9640
 4973TIP3   OH239113   5.523   0.539   7.865  0.1346 -0.2611  0.4438
 4973TIP3    H139114   5.494   0.623   7.901 -0.5784  0.0350 -0.7684
 4973TIP3    H239115   5.537   0.483   7.942 -3.0084 -0.2036  1.1681
 4974TIP3   OH239116   5.094   6.058   7.945 -0.0991 -0.0461  0.0536
 4974TIP3    H139117   5.145   6.104   8.011 -2.1126 -0.0917  1.7452
 4974TIP3    H239118   5.109   6.108   7.864 -0.3443  2.1804  1.3183
 4975TIP3   OH239119   3.534   0.707   6.911  0.2033 -0.3334 -0.3971
 4975TIP3    H139120   3.479   0.785   6.918  0.7570  0.2633 -2.2515
 4975TIP3    H239121   3.570   0.711   6.823  3.4037 -0.5771  0.7785
 4976TIP3   OH239122   3.854   2.699   9.266  0.0960 -0.2481  0.0130
 4976TIP3    H139123   3.804   2.618   9.251  0.9101 -0.7726  0.0513
 4976TIP3    H239124   3.944   2.669   9.278  0.6815  0.7915 -1.5396
 4977TIP3   OH239125   1.439   2.335   8.834 -0.1425 -0.3551  0.0089
 4977TIP3    H139126   1.344   2.351   8.835  0.1888  2.1995 -0.9099
 4977TIP3    H239127   1.452   2.279   8.757 -0.7819  0.6105 -0.8377
 4978TIP3   OH239128   6.224   7.528   8.885  0.0376  0.0196  0.3459
 4978TIP3    H139129   6.251   7.538   8.976 -3.3011 -1.9336  1.7333
 4978TIP3    H239130   6.295   7.480   8.844  0.0285 -2.6127  3.0460
 4979TIP3   OH239131   4.241   3.363   8.611  0.2286 -0.6451 -0.4023
 4979TIP3    H139132   4.332   3.345   8.585  0.2247 -1.3739  0.0621
 4979TIP3    H239133   4.222   3.296   8.677 -0.0551  0.5974  0.8208
 4980TIP3   OH239134   3.885   3.396   9.039 -0.0312  0.1714  0.3030
 4980TIP3    H139135   3.907   3.409   9.131  0.1576  0.9330  0.1543
 4980TIP3    H239136   3.930   3.467   8.992 -1.1214  0.5480 -0.2310
 4981TIP3   OH239137   1.224   5.242   7.106 -0.1615  0.0976  0.5238
 4981TIP3    H139138   1.265   5.323   7.075  0.6762  0.2080  1.8434
 4981TIP3    H239139   1.146   5.271   7.152  0.8740  0.3378  2.2437
 4982TIP3   OH239140   5.032   5.274   7.736  0.2011 -0.4670 -0.6483
 4982TIP3    H139141   4.991   5.198   7.695  0.3431 -0.3100 -1.0843
 4982TIP3    H239142   4.973   5.297   7.808 -0.1137 -0.6736 -0.8372
 4983TIP3   OH239143   7.035   0.000   8.769  0.3918  0.5085  0.3300
 4983TIP3    H139144   7.052   0.084   8.726  0.0901  0.0353 -0.7557
 4983TIP3    H239145   7.064  -0.065   8.705  2.5255 -0.2344  1.9532
 4984TIP3   OH239146   5.789   6.826   6.884 -0.0452 -0.2787 -0.0621
 4984TIP3    H139147   5.870   6.784   6.911  0.2995 -0.0486 -0.7079
 4984TIP3    H239148   5.746   6.761   6.828 -0.9271 -0.8946  1.2691
 4985TIP3   OH239149   2.275   4.072   9.165  0.3199  0.3310 -0.5887
 4985TIP3    H139150   2.309   4.125   9.237  0.1945  1.3746 -1.2833
 4985TIP3    H239151   2.220   4.132   9.115 -1.6324 -0.9986 -0.1622
 4986TIP3   OH239152   5.310   4.636   8.042 -0.9842  0.5773 -0.3893
 4986TIP3    H139153   5.265   4.715   8.072 -0.7878  0.0701  1.3560
 4986TIP3    H239154   5.402   4.661   8.036 -0.7247  0.2250  1.3611
 4987TIP3   OH239155   5.944   1.400   6.795 -0.0456  0.0065  1.0178
 4987TIP3    H139156   6.031   1.393   6.755 -0.4907 -0.2288  0.0844
 4987TIP3    H239157   5.896   1.459   6.738 -0.9756 -1.0375  0.6995
 4988TIP3   OH239158   0.114   7.389   7.997 -0.0407  0.1280  0.3467
 4988TIP3    H139159   0.180   7.377   8.065 -1.4602  0.9350  1.9396
 4988TIP3    H239160   0.151   7.457   7.941  1.0427 -0.3685  0.4190
 4989TIP3   OH239161   4.507   4.554   7.975 -0.0181  0.2821  0.6499
 4989TIP3    H139162   4.517   4.518   7.887 -0.8916  1.1113  0.1902
 4989TIP3    H239163   4.582   4.520   8.023  0.1386 -0.6825 -0.2421
 4990TIP3   OH239164   4.593   1.858   7.626  0.1501 -0.1863 -0.2176
 4990TIP3    H139165   4.525   1.800   7.590 -1.7940  0.7409  1.7779
 4990TIP3    H239166   4.562   1.946   7.608  0.6768  0.2640  0.9713
 4991TIP3   OH239167   5.781   0.757   7.827 -0.1194  0.5782  0.1147
 4991TIP3    H139168   5.733   0.837   7.806 -2.4994 -0.1623  2.2843
 4991TIP3    H239169   5.732   0.717   7.899  2.7609 -1.2409  1.2410
 4992TIP3   OH239170   3.630   2.557   7.101 -0.7808 -0.2710 -0.0863
 4992TIP3    H139171   3.699   2.547   7.166  1.2855  1.1759 -1.9112
 4992TIP3    H239172   3.646   2.488   7.038 -0.7858  0.2622 -0.6855
 4993TIP3   OH239173   6.153   6.397   7.757  0.1864  0.0587  0.0967
 4993TIP3    H139174   6.108   6.442   7.828  1.2318  1.0483  0.1674
 4993TIP3    H239175   6.243   6.387   7.789 -0.1757 -2.9210  0.4469
 4994TIP3   OH239176   3.516   3.933   9.030 -0.5884 -0.9373  0.4033
 4994TIP3    H139177   3.498   3.893   8.945 -0.7373  0.8628 -0.4542
 4994TIP3    H239178   3.570   4.009   9.010 -0.0220 -0.8837  2.0071
 4995TIP3   OH239179   0.601   7.408   9.320  0.6178 -0.6315  0.3190
 4995TIP3    H139180   0.687   7.411   9.277  0.2561 -1.6077 -0.5299
 4995TIP3    H239181   0.610   7.341   9.388 -0.2832 -3.1129 -1.8172
 4996TIP3   OH239182   2.438   5.205   7.369  0.4745  0.9480 -0.2571
 4996TIP3    H139183   2.435   5.168   7.457 -1.9372 -0.8909 -0.9765
 4996TIP3    H239184   2.524   5.181   7.336  0.8146  0.2488  1.0498
 4997TIP3   OH239185   7.150   4.686   9.106  0.0716 -0.5056 -0.7291
 4997TIP3    H139186   7.067   4.674   9.153  1.0809 -0.7479  1.0575
 4997TIP3    H239187   7.163   4.781   9.105 -0.7833 -0.3642 -2.1035
 4998TIP3   OH239188   2.733   3.572   9.506  0.5084  0.8467 -0.5107
 4998TIP3    H139189   2.734   3.657   9.461  0.3782  0.9154 -0.3848
 4998TIP3    H239190   2.737   3.595   9.599 -0.2405  0.7433 -0.4431
 4999TIP3   OH239191   1.844   4.618   8.309 -0.3079  0.4234 -0.6578
 4999TIP3    H139192   1.766   4.564   8.295 -0.0279 -0.0679 -0.3726
 4999TIP3    H239193   1.912   4.555   8.335  0.3506  0.7588 -1.5089
 5000TIP3   OH239194   1.860   0.684   8.222  0.0039 -0.1513 -0.0515
 5000TIP3    H139195   1.907   0.724   8.148 -0.9683 -0.0174 -0.6070
 5000TIP3    H239196   1.770   0.715   8.213 -0.0867  0.0629  1.3412
 5001TIP3   OH239197   6.704   0.012   8.738 -1.2711  0.3143 -0.2453
 5001TIP3    H139198   6.700   0.083   8.802  0.4650  0.3181 -0.0736
 5001TIP3    H239199   6.705   0.056   8.653 -1.4720  0.4266 -0.1883
 5002TIP3   OH239200   6.732   6.697   8.975 -0.1382 -0.0778 -0.5100
 5002TIP3    H139201   6.670   6.767   8.956  0.9500  1.4436  1.2385
 5002TIP3    H239202   6.679   6.617   8.972 -2.1810  1.1235  0.7290
 5003TIP3   OH239203   3.293   2.890   7.467  0.0901 -0.1759  0.1669
 5003TIP3    H139204   3.301   2.884   7.372  1.7407 -0.3092  0.2867
 5003TIP3    H239205   3.250   2.975   7.482  0.7657  0.3303 -0.6594
 5004TIP3   OH239206   7.324   3.758   7.309  0.0392  0.1210  0.0961
 5004TIP3    H139207   7.281   3.675   7.332 -0.2029  0.4611  0.8750
 5004TIP3    H239208   7.267   3.796   7.242  0.2719 -0.4445 -0.4324
 5005TIP3   OH239209   6.090   5.009   8.119  0.0000  0.0945 -0.6728
 5005TIP3    H139210   6.094   5.105   8.109 -0.0128  0.0623 -1.0150
 5005TIP3    H239211   6.075   4.995   8.212  1.5337  0.3782 -0.3556
 5006TIP3   OH239212   3.283   5.608   7.918 -0.2056  0.1213 -0.3020
 5006TIP3    H139213   3.279   5.699   7.947 -2.2172  0.6557 -2.0704
 5006TIP3    H239214   3.227   5.604   7.841  0.6471 -2.4105 -0.8896
 5007TIP3   OH239215   2.380   4.363   7.915 -0.0042  0.7037  0.8064
 5007TIP3    H139216   2.297   4.403   7.888 -0.3780 -0.1917  0.5839
 5007TIP3    H239217   2.394   4.395   8.004 -0.7480  0.6266  0.9561
 5008TIP3   OH239218   2.540   5.345   9.648 -0.2930  0.1079  0.2491
 5008TIP3    H139219   2.620   5.355   9.699 -0.7035  3.0104  0.5129
 5008TIP3    H239220   2.474   5.394   9.696 -2.2852 -2.1107 -0.0240
 5009TIP3   OH239221   1.755   4.838   6.546 -0.4059  0.1902 -0.5304
 5009TIP3    H139222   1.840   4.871   6.519  0.2103  0.8902  2.0841
 5009TIP3    H239223   1.770   4.745   6.566 -0.1243  0.4358  0.4188
 5010TIP3   OH239224   4.216   1.550   7.306  0.0032  0.2450 -0.5022
 5010TIP3    H139225   4.183   1.548   7.216  1.2406  0.2950 -0.9677
 5010TIP3    H239226   4.311   1.545   7.297  0.0979 -0.8157  0.8544
 5011TIP3   OH239227   2.530   2.351   8.069 -0.0720 -0.6328  0.2143
 5011TIP3    H139228   2.467   2.377   8.002 -1.7672 -1.8657  1.2331
 5011TIP3    H239229   2.477   2.311   8.138  1.6720 -0.1002  1.9653
 5012TIP3   OH239230   3.056   1.570   9.235  0.7430 -0.2712 -0.8403
 5012TIP3    H139231   3.073   1.525   9.152  1.1336 -0.3634 -0.7136
 5012TIP3    H239232   2.979   1.526   9.271  1.5231 -1.3201 -0.3866
 5013TIP3   OH239233   2.720   5.066   6.706  0.0847 -0.5108 -0.1244
 5013TIP3    H139234   2.676   4.991   6.746  0.9136 -0.5075  0.8269
 5013TIP3    H239235   2.807   5.067   6.745  0.1517  0.8442 -0.2469
 5014TIP3   OH239236   0.644   5.363   7.185 -0.4453  0.0683  0.6166
 5014TIP3    H139237   0.713   5.428   7.171 -0.1932 -0.3339 -0.0453
 5014TIP3    H239238   0.564   5.406   7.155  0.0036 -0.5883 -1.7575
 5015TIP3   OH239239   3.411   6.298   8.943  0.3500  0.9587 -0.0300
 5015TIP3    H139240   3.463   6.377   8.924 -0.8247  1.6854 -0.3339
 5015TIP3    H239241   3.442   6.234   8.879  2.7829  0.4414  1.5344
 5016TIP3   OH239242   1.502   4.258   9.358 -0.3082  0.5199  0.3507
 5016TIP3    H139243   1.496   4.189   9.424 -2.0250  2.1531  2.0078
 5016TIP3    H239244   1.453   4.331   9.395  0.2083  2.1467 -1.9783
 5017TIP3   OH239245   6.464   6.612   7.677  0.2587  0.5191 -0.2281
 5017TIP3    H139246   6.531   6.591   7.742  0.4083  2.4660  0.3066
 5017TIP3    H239247   6.398   6.661   7.726 -1.5487 -1.2410 -0.7645
 5018TIP3   OH239248   3.735   1.168   7.238  0.8051  0.4160  0.3623
 5018TIP3    H139249   3.735   1.091   7.181  0.2584  0.0561  0.8335
 5018TIP3    H239250   3.725   1.132   7.326 -1.3476  1.0889  0.4606
 5019TIP3   OH239251   1.400   0.126   9.587  0.0777  0.7703  0.1817
 5019TIP3    H139252   1.443   0.093   9.508 -0.1586  0.1214  0.3237
 5019TIP3    H239253   1.462   0.107   9.658  0.1488  1.0622  0.1986
 5020TIP3   OH239254   5.347   0.170   8.731 -0.0136 -0.0355 -0.6539
 5020TIP3    H139255   5.432   0.192   8.771 -1.6245  0.9677  2.6366
 5020TIP3    H239256   5.344   0.075   8.731  0.9293 -0.0737 -0.3662
 5021TIP3   OH239257   3.128   1.550   6.455  0.2059  0.5577  0.3312
 5021TIP3    H139258   3.066   1.622   6.465 -0.7799 -0.4728  2.3219
 5021TIP3    H239259   3.103   1.487   6.524  1.3010 -1.4669 -1.0118
 5022TIP3   OH239260   3.718   6.347   8.872  0.5302  0.0149 -0.6619
 5022TIP3    H139261   3.794   6.376   8.821  0.6109  2.8168  0.8563
 5022TIP3    H239262   3.652   6.325   8.806  0.9923  2.4411 -2.0467
 5023TIP3   OH239263   7.393   0.635   8.089 -0.1455 -0.0326 -0.1012
 5023TIP3    H139264   7.480   0.666   8.116 -0.6825  2.5820 -1.1210
 5023TIP3    H239265   7.389   0.654   7.995 -0.6984 -3.0677 -0.8134
 5024TIP3   OH239266   2.256   5.009   8.338  0.0993  0.1831 -0.0209
 5024TIP3    H139267   2.198   5.067   8.387  1.4059  1.3231  0.2246
 5024TIP3    H239268   2.256   4.928   8.389  1.4038  1.3337  1.9250
 5025TIP3   OH239269   4.981   6.979   8.243 -0.7148  0.0814  0.0796
 5025TIP3    H139270   4.966   7.036   8.168  0.8414  1.1745  0.5532
 5025TIP3    H239271   4.923   7.013   8.311 -1.8879 -0.7104 -0.4852
 5026TIP3   OH239272   1.731   1.966   8.807  0.0276 -0.3017 -0.2053
 5026TIP3    H139273   1.807   1.924   8.846  0.4817 -0.9219 -1.6809
 5026TIP3    H239274   1.743   1.955   8.713 -2.2089 -1.0054 -0.4703
 5027TIP3   OH239275   7.509   0.611   9.052  0.5290 -0.4467 -0.3868
 5027TIP3    H139276   7.417   0.638   9.054  0.6878  0.5398 -3.0525
 5027TIP3    H239277   7.511   0.534   8.996  1.3023 -0.5725 -0.1972
 5028TIP3   OH239278   4.948   4.295   8.366  0.3703 -0.1045  0.1186
 5028TIP3    H139279   4.934   4.343   8.284  1.3061 -0.1802 -0.0932
 5028TIP3    H239280   4.878   4.326   8.424 -0.2483  0.0206 -0.6734
 5029TIP3   OH239281   6.499   4.760   7.819 -0.4504  0.2617  0.7255
 5029TIP3    H139282   6.424   4.793   7.868  0.3175  0.3657  1.8743
 5029TIP3    H239283   6.536   4.691   7.875  0.0445 -0.1087 -0.0303
 5030TIP3   OH239284   1.401   4.522   7.223  0.9392  0.0848  0.0455
 5030TIP3    H139285   1.384   4.601   7.172  0.8568  1.2755  1.8303
 5030TIP3    H239286   1.471   4.477   7.175  2.7231  2.4855  0.2187
 5031TIP3   OH239287   4.437   5.195   7.631  0.1381  0.1425 -0.1696
 5031TIP3    H139288   4.432   5.142   7.710  0.7764 -1.2394 -1.0137
 5031TIP3    H239289   4.346   5.207   7.604 -0.1872  1.7546  1.4393
 5032TIP3   OH239290   2.097   0.116   7.458  0.4467  0.0920 -0.7867
 5032TIP3    H139291   2.067   0.110   7.548  0.4750 -0.1497 -0.7944
 5032TIP3    H239292   2.163   0.186   7.460 -0.2913  0.8102 -0.8222
 5033TIP3   OH239293   3.339   4.882   8.901 -0.1130  0.3236  0.7909
 5033TIP3    H139294   3.407   4.922   8.956  0.9190 -1.8079  1.1462
 5033TIP3    H239295   3.343   4.789   8.921 -0.4160 -0.4216 -2.1423
 5034TIP3   OH239296   2.994   6.111   8.398 -0.1322  0.2323 -0.4833
 5034TIP3    H139297   2.949   6.195   8.406 -1.8350 -0.7684  1.5092
 5034TIP3    H239298   3.061   6.114   8.466 -1.2197 -0.5531  0.6708
 5035TIP3   OH239299   4.587   4.164   7.826 -0.5130  0.1352  0.5425
 5035TIP3    H139300   4.681   4.152   7.840 -0.3895  0.5035  0.0639
 5035TIP3    H239301   4.554   4.193   7.911  0.3834  3.3006 -0.0509
 5036TIP3   OH239302   4.354   0.447   7.275  0.2951 -0.3144 -0.0742
 5036TIP3    H139303   4.352   0.396   7.356 -0.1648 -1.1735 -0.6196
 5036TIP3    H239304   4.363   0.382   7.206  0.4262  0.3961 -0.7342
 5037TIP3   OH239305   7.012   2.331   9.050 -0.1444 -0.7082  0.8640
 5037TIP3    H139306   7.022   2.305   8.959  0.8014  0.5730  0.5754
 5037TIP3    H239307   6.924   2.367   9.056  0.2046  0.2770  0.1658
 5038TIP3   OH239308   6.604   0.748   9.616 -0.2116 -0.0620 -0.0595
 5038TIP3    H139309   6.524   0.772   9.569 -1.2521  0.9715  2.1261
 5038TIP3    H239310   6.578   0.676   9.673  0.5020  0.0166  0.3745
 5039TIP3   OH239311   0.789   1.053   8.084 -0.2656 -0.4802 -0.4313
 5039TIP3    H139312   0.754   0.973   8.122 -0.5434  0.3427  1.0911
 5039TIP3    H239313   0.876   1.061   8.123 -1.0223  1.0128  1.0322
 5040TIP3   OH239314   4.016   2.918   7.566 -0.4948 -0.0959 -0.0104
 5040TIP3    H139315   3.928   2.939   7.599 -0.4732  1.0983 -0.6459
 5040TIP3    H239316   4.004   2.838   7.515 -1.4784  0.6657 -1.0461
 5041TIP3   OH239317   2.900   3.727   7.007  0.2802  1.1627 -0.3408
 5041TIP3    H139318   2.879   3.655   6.947 -0.1521  1.5091 -0.6177
 5041TIP3    H239319   2.856   3.704   7.089 -2.4350  2.4959 -1.2799
 5042TIP3   OH239320   4.792   6.692   7.921  0.0834  0.3680 -0.5012
 5042TIP3    H139321   4.806   6.700   8.015  0.0556  2.1820 -0.6207
 5042TIP3    H239322   4.875   6.656   7.887  1.1128  2.2257 -0.0843
 5043TIP3   OH239323   3.110   7.437   7.255 -0.0061  0.0642 -0.3571
 5043TIP3    H139324   3.183   7.496   7.273 -1.1214  1.5617 -0.5362
 5043TIP3    H239325   3.105   7.379   7.331  1.3691 -0.0999 -0.3693
 5044TIP3   OH239326   4.756   4.492   7.606 -0.0800 -0.1500 -0.0882
 5044TIP3    H139327   4.750   4.476   7.512 -1.2271  1.5276 -0.3514
 5044TIP3    H239328   4.710   4.574   7.619 -1.3803 -1.1301  2.1683
 5045TIP3   OH239329   6.545   0.377   8.975 -0.0443  0.2854  0.5339
 5045TIP3    H139330   6.521   0.467   8.998  0.0600  0.1438  1.2158
 5045TIP3    H239331   6.540   0.329   9.058  2.4922  0.2184  0.7180
 5046TIP3   OH239332   0.723   2.561   8.775 -0.4313 -0.3266  0.1737
 5046TIP3    H139333   0.676   2.619   8.835  0.5800  0.2303  0.4497
 5046TIP3    H239334   0.802   2.609   8.753 -0.4528 -0.8247 -1.0680
 5047TIP3   OH239335   7.029   1.845   8.158 -0.7035  0.5340 -0.0839
 5047TIP3    H139336   7.076   1.908   8.103 -1.3473 -1.3380 -3.0351
 5047TIP3    H239337   6.955   1.895   8.193  0.3599  2.0987  0.0484
 5048TIP3   OH239338   5.822   0.063   7.823 -0.0873  0.3160 -0.1389
 5048TIP3    H139339   5.743   0.060   7.877  0.0316  0.5148  0.0428
 5048TIP3    H239340   5.798   0.015   7.743 -0.8074  1.4744 -0.6326
 5049TIP3   OH239341   0.544   0.324   9.106 -0.3806  0.2265 -0.1204
 5049TIP3    H139342   0.574   0.255   9.165 -0.6604  0.4103  0.2389
 5049TIP3    H239343   0.621   0.379   9.092 -0.3492  0.2636  0.1892
 5050TIP3   OH239344   5.610   2.241   8.341  0.3957  0.0697  0.1957
 5050TIP3    H139345   5.595   2.158   8.385 -0.6272 -0.3818 -0.9411
 5050TIP3    H239346   5.669   2.219   8.268 -1.1157  0.0046 -1.0469
 5051TIP3   OH239347   7.378   6.624   7.475  0.0714 -0.3097  0.7121
 5051TIP3    H139348   7.429   6.595   7.551  1.0299 -1.0283 -0.1802
 5051TIP3    H239349   7.390   6.555   7.410 -1.6618 -0.2597  0.2838
 5052TIP3   OH239350   2.368   5.462   7.347 -0.3722 -0.3455 -0.2285
 5052TIP3    H139351   2.311   5.453   7.424 -0.5809  0.8936 -0.2111
 5052TIP3    H239352   2.402   5.374   7.332  0.7126 -0.3968  2.1011
 5053TIP3   OH239353   1.709   6.820   8.006 -0.1120  0.4237 -0.8126
 5053TIP3    H139354   1.718   6.734   7.965  0.8942  0.6299 -1.0575
 5053TIP3    H239355   1.775   6.821   8.076 -1.6857  0.1476  0.7459
 5054TIP3   OH239356   0.087   4.838   8.707 -0.0272 -0.1057  0.3979
 5054TIP3    H139357   0.033   4.761   8.726 -1.2135  0.1996 -1.5107
 5054TIP3    H239358   0.163   4.804   8.662  0.2303 -0.3000  0.9682
 5055TIP3   OH239359   2.286   5.161   7.055 -0.2754  0.0146 -0.5724
 5055TIP3    H139360   2.370   5.203   7.071 -0.1864 -0.1138 -0.7022
 5055TIP3    H239361   2.265   5.182   6.964  0.5951 -1.6581 -1.1966
 5056TIP3   OH239362   0.010   1.525   9.455  0.2470  0.6860 -0.3775
 5056TIP3    H139363   0.034   1.592   9.518  0.7460 -0.2031  0.4081
 5056TIP3    H239364   0.039   1.560   9.370 -0.3042  1.8265 -0.1179
 5057TIP3   OH239365   0.298   1.888   9.068 -0.0703  0.2828 -0.4377
 5057TIP3    H139366   0.329   1.975   9.047  0.6014  0.2022  0.1753
 5057TIP3    H239367   0.261   1.896   9.156 -0.9354  0.1651 -0.7774
 5058TIP3   OH239368   5.067   2.311   8.229 -0.3778 -0.6153 -0.4195
 5058TIP3    H139369   5.035   2.394   8.266 -0.1146 -0.6973  0.0015
 5058TIP3    H239370   5.161   2.325   8.216 -0.3199 -0.8694 -0.2794
 5059TIP3   OH239371   2.097   2.985   7.751  0.2140  0.5207 -0.2269
 5059TIP3    H139372   2.008   2.964   7.722 -0.3641 -1.3243  2.5243
 5059TIP3    H239373   2.149   2.908   7.727  0.6019  0.7245 -0.0467
 5060TIP3   OH239374   0.647   2.421   8.525 -0.0552 -0.1984 -0.5152
 5060TIP3    H139375   0.714   2.451   8.463  0.0171 -1.0225 -0.8395
 5060TIP3    H239376   0.667   2.469   8.606  0.8360 -0.3174 -0.6554
 5061TIP3   OH239377   1.911   2.038   7.617  0.1538 -0.0981  0.2383
 5061TIP3    H139378   1.865   1.974   7.670 -0.2860  0.4222  0.4949
 5061TIP3    H239379   1.842   2.087   7.572  0.4830  0.1314 -0.0293
 5062TIP3   OH239380   5.103   2.511   9.263 -0.6972  0.1793  0.1039
 5062TIP3    H139381   5.135   2.552   9.343 -0.8658  0.6733 -0.0758
 5062TIP3    H239382   5.091   2.584   9.202  1.6957 -0.3890 -1.1938
 5063TIP3   OH239383   0.108   3.709   7.564 -0.1632  0.0295 -0.2966
 5063TIP3    H139384   0.046   3.781   7.549  1.5969  1.4563 -1.1732
 5063TIP3    H239385   0.149   3.731   7.648  0.7254  0.3549 -0.8013
 5064TIP3   OH239386   4.683   4.698   9.513  0.2966 -0.3811  0.0632
 5064TIP3    H139387   4.750   4.677   9.448 -1.1213  0.3347 -1.7338
 5064TIP3    H239388   4.664   4.614   9.556 -0.7175 -1.5688 -2.4726
 5065TIP3   OH239389   0.621   5.886   9.084  0.2276  0.5480 -0.0588
 5065TIP3    H139390   0.558   5.822   9.051  0.0696  0.3558  0.6119
 5065TIP3    H239391   0.607   5.964   9.031 -1.3898  0.9165  0.8550
 5066TIP3   OH239392   2.005   0.994   7.200  0.5691  0.0601 -0.3982
 5066TIP3    H139393   1.942   0.963   7.265 -0.4218 -0.1204 -1.4169
 5066TIP3    H239394   2.053   1.064   7.245 -1.4006  1.2835 -0.0389
 5067TIP3   OH239395   0.835   5.175   8.108 -0.4078 -0.1161 -0.7698
 5067TIP3    H139396   0.913   5.228   8.126 -0.2034 -0.3447 -0.9774
 5067TIP3    H239397   0.868   5.086   8.098 -0.7430 -0.2751 -0.4856
 5068TIP3   OH239398   0.344   3.789   7.757  0.0092  0.1392  0.0589
 5068TIP3    H139399   0.435   3.805   7.781 -0.1675 -0.2759  1.0709
 5068TIP3    H239400   0.308   3.738   7.830 -1.0205  0.2525 -0.3406
 5069TIP3   OH239401   6.868   4.751   9.001  0.7007 -0.2358 -0.3344
 5069TIP3    H139402   6.915   4.822   8.957 -0.6517  0.7842 -0.1990
 5069TIP3    H239403   6.891   4.761   9.093  0.4530  0.0895 -0.3055
 5070TIP3   OH239404   5.970   3.469   8.628 -0.3597  0.0926 -0.3111
 5070TIP3    H139405   6.038   3.509   8.574  0.4877  0.3756  0.9329
 5070TIP3    H239406   5.906   3.539   8.642  0.7718  0.8737  1.2778
 5071TIP3   OH239407   2.882   6.642   9.231  0.0481  0.6712 -0.6335
 5071TIP3    H139408   2.950   6.598   9.283 -0.5402 -1.8098 -1.8252
 5071TIP3    H239409   2.808   6.581   9.231 -1.1011  1.9711 -1.8695
 5072TIP3   OH239410   6.737   4.924   8.586  0.5991 -0.1582 -0.2328
 5072TIP3    H139411   6.821   4.970   8.588  1.1203 -1.0355 -1.1543
 5072TIP3    H239412   6.760   4.831   8.589 -0.2800 -0.4432 -1.4878
 5073TIP3   OH239413   3.268   0.033   7.627  0.0165 -0.4389 -0.6268
 5073TIP3    H139414   3.304   0.067   7.709 -1.4342  0.4385 -0.3174
 5073TIP3    H239415   3.345   0.018   7.571  0.8486  2.0432 -0.2731
 5074TIP3   OH239416   5.928   2.725   8.661  0.6097  0.5888 -0.0809
 5074TIP3    H139417   5.912   2.689   8.574  2.4972  0.1349 -0.2707
 5074TIP3    H239418   6.012   2.689   8.687 -0.5418 -0.4111  2.5631
 5075TIP3   OH239419   1.357   7.394   8.029  0.7116  0.7336 -0.2002
 5075TIP3    H139420   1.451   7.388   8.012  0.6857  0.8105 -0.3743
 5075TIP3    H239421   1.341   7.488   8.039  0.3463  0.9039 -1.9754
 5076TIP3   OH239422   1.510   3.921   8.440 -0.4657 -0.0740  0.0270
 5076TIP3    H139423   1.509   3.977   8.363  0.1961  1.5694  1.1587
 5076TIP3    H239424   1.564   3.846   8.415 -0.5240  0.2769 -1.1976
 5077TIP3   OH239425   6.257   0.288   9.167 -0.0575  0.3325  0.4294
 5077TIP3    H139426   6.211   0.221   9.117  2.3803 -1.5949  0.6091
 5077TIP3    H239427   6.256   0.365   9.111  1.1036 -1.2484 -1.8933
 5078TIP3   OH239428   1.128   1.006   8.642  0.0418 -0.0397 -0.2116
 5078TIP3    H139429   1.053   1.066   8.645 -0.7505 -0.8523 -2.1105
 5078TIP3    H239430   1.172   1.018   8.726 -0.7564  2.3179 -0.0597
 5079TIP3   OH239431   6.528   2.511   8.415  0.2961  0.1282  0.2929
 5079TIP3    H139432   6.438   2.487   8.437  0.2233  0.5221  0.4274
 5079TIP3    H239433   6.537   2.602   8.444  1.1053 -0.2734  1.4156
 5080TIP3   OH239434   2.956   0.872   7.571  0.6228 -0.2941  0.1968
 5080TIP3    H139435   2.944   0.821   7.491 -0.9339  0.8915 -0.3683
 5080TIP3    H239436   2.983   0.808   7.637  4.2089 -0.9890 -1.7148
 5081TIP3   OH239437   7.500   5.489   7.070 -0.3524  0.7680  0.4588
 5081TIP3    H139438   7.409   5.481   7.042  0.1362  3.3160 -2.3713
 5081TIP3    H239439   7.548   5.429   7.014 -0.1803  0.0479  1.3679
 5082TIP3   OH239440   3.336   6.322   9.634 -0.4420  0.4971  0.3054
 5082TIP3    H139441   3.251   6.282   9.650  0.6665 -2.0142  0.3465
 5082TIP3    H239442   3.344   6.323   9.538 -0.0593 -0.3739  0.3192
 5083TIP3   OH239443   0.403   1.376   6.727 -0.2290 -0.0820  0.0036
 5083TIP3    H139444   0.349   1.345   6.800  1.0815  1.3343  1.6523
 5083TIP3    H239445   0.379   1.468   6.717  0.9896  0.2472 -0.0393
 5084TIP3   OH239446   1.333   4.681   8.945 -0.1975 -0.1827 -0.1188
 5084TIP3    H139447   1.238   4.685   8.945 -0.1730  0.5810 -0.1404
 5084TIP3    H239448   1.354   4.599   8.900 -0.8312  1.0077 -2.7980
 5085TIP3   OH239449   1.929   3.574   6.965  0.2473  0.2528 -0.5163
 5085TIP3    H139450   1.974   3.598   6.884  0.2313 -2.0541 -1.2824
 5085TIP3    H239451   1.999   3.570   7.030  0.2577  2.1407 -0.3419
 5086TIP3   OH239452   0.632   3.672   6.633  0.4748  1.0669  0.5179
 5086TIP3    H139453   0.712   3.719   6.608 -0.4617  1.6947 -1.4938
 5086TIP3    H239454   0.570   3.741   6.656 -0.2613  0.7341 -0.4170
 5087TIP3   OH239455   2.850   3.046   7.536 -0.3902  0.1304  0.0799
 5087TIP3    H139456   2.782   3.040   7.468 -0.3493 -0.3485  0.0784
 5087TIP3    H239457   2.811   3.102   7.603 -0.3564  0.7776 -0.4238
 5088TIP3   OH239458   7.410   1.938   7.805 -0.6522  0.0880 -0.3633
 5088TIP3    H139459   7.406   1.900   7.717 -0.0094 -0.6957 -0.0614
 5088TIP3    H239460   7.319   1.941   7.833 -0.6512 -3.7014  0.6223
 5089TIP3   OH239461   0.854   3.200   6.684  0.2320  0.0876 -0.1304
 5089TIP3    H139462   0.789   3.246   6.737 -0.5813 -0.8523 -0.2791
 5089TIP3    H239463   0.803   3.141   6.629  1.1793 -0.2157 -0.7114
 5090TIP3   OH239464   4.220   1.409   7.703  0.7924  0.0392  0.5378
 5090TIP3    H139465   4.260   1.385   7.620  0.7060  0.6226  0.3297
 5090TIP3    H239466   4.152   1.343   7.717  0.4542  0.2536 -0.1085
 5091TIP3   OH239467   6.512   1.936   9.658  0.1817  0.2678 -0.0105
 5091TIP3    H139468   6.492   1.884   9.735  0.0692  0.1150 -0.1423
 5091TIP3    H239469   6.477   1.885   9.585  2.5777 -0.9042 -0.4477
 5092TIP3   OH239470   6.190   2.085   7.268 -0.2057  0.2206 -0.7697
 5092TIP3    H139471   6.127   2.157   7.264 -0.5098 -0.0793 -1.5991
 5092TIP3    H239472   6.276   2.129   7.271 -0.4549  0.6340  0.9042
 5093TIP3   OH239473   2.099   3.192   6.878  0.0320 -0.1556 -0.4319
 5093TIP3    H139474   2.095   3.248   6.800 -0.5420  1.0849  0.4454
 5093TIP3    H239475   2.189   3.201   6.910 -0.3440  1.2052  0.3279
 5094TIP3   OH239476   6.162   6.561   8.529  0.1640 -0.3585 -0.5352
 5094TIP3    H139477   6.075   6.585   8.561  0.8547 -0.8174  1.9443
 5094TIP3    H239478   6.213   6.642   8.537 -0.4054  0.4337 -3.7778
 5095TIP3   OH239479   5.080   4.070   8.128  0.3330  0.0110 -0.2748
 5095TIP3    H139480   4.996   4.090   8.170 -1.1148 -0.8613 -2.5137
 5095TIP3    H239481   5.093   3.976   8.145  0.8092  0.1164 -0.0443
 5096TIP3   OH239482   3.186   6.435   7.665  0.6763 -0.4951 -0.1177
 5096TIP3    H139483   3.188   6.349   7.622  0.2018 -0.9456  0.7346
 5096TIP3    H239484   3.221   6.419   7.753  1.8079  0.4456 -0.3706
 5097TIP3   OH239485   6.469   2.598   6.867 -0.3541 -0.2223 -0.1219
 5097TIP3    H139486   6.519   2.608   6.786 -0.1929  0.2918  0.0390
 5097TIP3    H239487   6.414   2.521   6.852 -1.2343  0.5889 -1.1800
 5098TIP3   OH239488   0.196   4.925   9.286  0.0633 -0.3586  0.0288
 5098TIP3    H139489   0.140   5.001   9.302 -1.0587 -1.1145 -0.2385
 5098TIP3    H239490   0.237   4.907   9.371  0.9201  0.9580 -0.0565
 5099TIP3   OH239491   0.602   1.889   8.961 -0.4364 -0.5857  0.3460
 5099TIP3    H139492   0.527   1.941   8.989 -1.3511 -1.9916  0.5873
 5099TIP3    H239493   0.652   1.874   9.041 -0.4252 -0.4818  0.3587
 5100TIP3   OH239494   1.707   4.827   8.080  0.0774 -0.1415  0.0268
 5100TIP3    H139495   1.699   4.844   8.173  0.1706  2.3032 -0.3446
 5100TIP3    H239496   1.800   4.806   8.067  0.2010  0.1759  0.3993
 5101TIP3   OH239497   3.874   4.854   8.480 -0.8599 -0.3905 -0.0674
 5101TIP3    H139498   3.850   4.924   8.418  0.3304 -0.9544 -1.2025
 5101TIP3    H239499   3.868   4.896   8.566 -4.1294  0.0049 -0.3310
 5102TIP3   OH239500   7.339   4.542   8.489 -0.2362 -0.2560  0.1888
 5102TIP3    H139501   7.347   4.601   8.413 -2.1254 -0.0174  0.1388
 5102TIP3    H239502   7.245   4.525   8.497  0.0728 -1.5327  1.5469
 5103TIP3   OH239503   4.647   6.966   8.656 -0.8071 -0.4501 -0.2845
 5103TIP3    H139504   4.635   7.043   8.602 -0.1860 -0.5380 -0.5544
 5103TIP3    H239505   4.732   6.978   8.698 -1.2823 -0.3700  0.7003
 5104TIP3   OH239506   5.336   5.285   7.577 -0.3268 -0.3166 -0.3894
 5104TIP3    H139507   5.289   5.359   7.615  1.5238  0.5764  0.2655
 5104TIP3    H239508   5.286   5.208   7.605 -2.1851  0.6237 -0.9372
 5105TIP3   OH239509   6.951   3.687   8.832 -0.1599  0.1362 -0.0618
 5105TIP3    H139510   7.020   3.622   8.846 -0.4876 -0.2157 -0.0757
 5105TIP3    H239511   6.876   3.653   8.881 -0.8907 -0.4077 -1.5091
 5106TIP3   OH239512   1.649   1.054   7.864 -0.1212 -0.1311 -0.0852
 5106TIP3    H139513   1.673   1.044   7.956  0.2330  0.4033 -0.1127
 5106TIP3    H239514   1.639   0.965   7.831  0.2361 -0.3309  0.3475
 5107TIP3   OH239515   0.568   0.141   8.885  0.3452 -0.4783 -0.1425
 5107TIP3    H139516   0.570   0.197   8.962  1.7787  0.0769 -0.5466
 5107TIP3    H239517   0.491   0.085   8.897  0.2963 -0.0946  1.4537
 5108TIP3   OH239518   6.147   2.516   9.332  0.1538 -0.1621  0.5160
 5108TIP3    H139519   6.056   2.493   9.351  0.3025 -1.3246 -0.0645
 5108TIP3    H239520   6.153   2.610   9.351 -0.9994 -0.2042  1.1542
 5109TIP3   OH239521   5.733   1.276   9.331  0.0615  0.4774 -0.2743
 5109TIP3    H139522   5.821   1.241   9.349  0.0374  0.7083  0.3186
 5109TIP3    H239523   5.749   1.352   9.276  0.3158  1.0889  0.6199
 5110TIP3   OH239524   6.976   5.193   9.212  0.0920  1.1224 -0.1875
 5110TIP3    H139525   6.950   5.220   9.124 -1.0948 -0.8151 -0.4990
 5110TIP3    H239526   6.948   5.264   9.269 -1.3389  1.3395 -1.1218
 5111TIP3   OH239527   3.277   6.013   7.685  0.1793 -0.1577 -0.4132
 5111TIP3    H139528   3.218   5.969   7.623 -0.1562 -1.4506  0.7737
 5111TIP3    H239529   3.218   6.061   7.743  0.4775  0.7911 -0.8688
 5112TIP3   OH239530   2.055   1.448   8.598  0.4623  0.3982 -0.1965
 5112TIP3    H139531   2.082   1.431   8.688  1.2460  1.6297 -0.1787
 5112TIP3    H239532   2.067   1.364   8.553 -1.5081 -0.6974  1.1779
 5113TIP3   OH239533   1.716   7.287   8.642  0.0662 -0.2131  0.3378
 5113TIP3    H139534   1.689   7.200   8.613  0.2679 -0.3842  0.6568
 5113TIP3    H239535   1.781   7.314   8.577  1.6324 -1.2238  1.4094
 5114TIP3   OH239536   4.943   5.844   6.603  0.2328 -0.9200 -0.3229
 5114TIP3    H139537   4.997   5.772   6.636  1.2833 -0.9633 -2.0557
 5114TIP3    H239538   4.946   5.835   6.508  0.7094  1.6489 -0.5990
 5115TIP3   OH239539   6.786   2.041   7.236  0.6251 -0.1390  0.8719
 5115TIP3    H139540   6.736   2.063   7.158 -1.8435  0.6390  2.5459
 5115TIP3    H239541   6.856   2.105   7.239  1.3587 -0.7819 -1.1582
 5116TIP3   OH239542   1.758   5.831   9.400  0.0179  0.0183  0.0477
 5116TIP3    H139543   1.799   5.897   9.345 -2.2332  1.8648  0.4137
 5116TIP3    H239544   1.666   5.857   9.403 -0.4069 -1.4493  2.6478
 5117TIP3   OH239545   1.048   3.828   8.380  0.7318  0.4816 -0.1366
 5117TIP3    H139546   1.118   3.764   8.364  2.0996  2.1023 -0.9520
 5117TIP3    H239547   1.048   3.884   8.303 -1.4801  0.5700 -0.1335
 5118TIP3   OH239548   5.941   0.247   8.716 -0.3179  0.2207  0.0352
 5118TIP3    H139549   5.954   0.300   8.638 -0.5466 -0.0866 -0.2168
 5118TIP3    H239550   5.891   0.171   8.685  0.1805 -0.2426  0.3429
 5119TIP3   OH239551   4.793   7.475   7.512  0.1999 -0.1178 -0.2036
 5119TIP3    H139552   4.885   7.467   7.535  0.1899 -1.1558 -0.4961
 5119TIP3    H239553   4.747   7.423   7.578 -0.1607  0.1607 -0.2269
 5120TIP3   OH239554   4.641   1.972   7.324  0.1799  0.2977 -0.1305
 5120TIP3    H139555   4.561   2.025   7.318 -0.2898 -0.1670  1.5844
 5120TIP3    H239556   4.614   1.895   7.374  1.4935 -0.2999 -0.3289
 5121TIP3   OH239557   7.220   4.196   8.586 -0.0867  0.0709  0.7829
 5121TIP3    H139558   7.154   4.241   8.638  0.7088  2.2083  0.0627
 5121TIP3    H239559   7.187   4.199   8.496  1.0819  1.4615  0.3625
 5122TIP3   OH239560   3.704   4.799   9.671  0.6716 -0.3948  0.1921
 5122TIP3    H139561   3.763   4.734   9.709  0.8168  0.4825  1.4990
 5122TIP3    H239562   3.740   4.883   9.697 -1.2525  0.1695  1.2404
 5123TIP3   OH239563   1.719   5.966   8.893 -0.0953 -0.0900 -0.2263
 5123TIP3    H139564   1.776   5.940   8.821 -0.3961  0.0051 -0.4982
 5123TIP3    H239565   1.737   6.060   8.905  0.6479 -0.3074  0.4487
 5124TIP3   OH239566   0.041   7.100   7.283  0.2653  0.4095 -0.0135
 5124TIP3    H139567  -0.047   7.139   7.284  0.4478  0.8995 -1.5671
 5124TIP3    H239568   0.056   7.075   7.374 -1.1272  1.1196  0.4460
 5125TIP3   OH239569   7.533   3.113   7.189  0.1106  0.3507 -0.0464
 5125TIP3    H139570   7.594   3.062   7.135  1.3526 -1.4235  2.8082
 5125TIP3    H239571   7.561   3.097   7.279 -1.9212  3.0548  1.2013
 5126TIP3   OH239572   2.491   5.587   8.401 -0.1645  0.1162 -0.7123
 5126TIP3    H139573   2.479   5.676   8.368 -1.2861  1.1118  2.0691
 5126TIP3    H239574   2.473   5.594   8.495  0.1137 -2.9971 -0.3319
 5127TIP3   OH239575   6.749   5.690   7.673 -0.1603  0.5150 -0.2238
 5127TIP3    H139576   6.710   5.603   7.669  1.7543 -0.3761 -1.0751
 5127TIP3    H239577   6.742   5.715   7.765 -0.5477 -0.6365  0.0786
 5128TIP3   OH239578   7.122   3.633   9.168 -0.2673 -0.3027 -0.7473
 5128TIP3    H139579   7.079   3.638   9.253  0.0198 -0.5118 -0.5865
 5128TIP3    H239580   7.056   3.596   9.110 -0.8123  0.7842 -0.8548
 5129TIP3   OH239581   1.645   0.875   7.139  0.2451  0.6027 -0.5839
 5129TIP3    H139582   1.627   0.801   7.081  0.6573 -0.0273  0.0732
 5129TIP3    H239583   1.562   0.890   7.185  0.0782  0.7394 -0.9274
 5130TIP3   OH239584   0.900   6.008   7.288  0.6930  0.0503  0.4147
 5130TIP3    H139585   0.812   6.027   7.255  0.7489 -0.3065  0.0593
 5130TIP3    H239586   0.943   5.961   7.217  1.0423 -0.1234  0.7379
 5131TIP3   OH239587   6.441   2.821   8.827 -0.1063 -0.4694  0.0355
 5131TIP3    H139588   6.478   2.909   8.829 -1.7732  0.2913 -0.6071
 5131TIP3    H239589   6.419   2.803   8.919  1.3593 -0.7565  0.3581
 5132TIP3   OH239590   7.512   5.487   8.276  0.4054  0.4009  0.3819
 5132TIP3    H139591   7.568   5.478   8.199 -1.7510  0.5944 -1.2985
 5132TIP3    H239592   7.570   5.521   8.344  1.9046  2.5707 -1.8267
 5133TIP3   OH239593   4.604   7.533   8.282 -0.2848  0.7391  0.1778
 5133TIP3    H139594   4.623   7.480   8.205 -1.1874  0.3694  0.2009
 5133TIP3    H239595   4.655   7.613   8.268  0.6648  0.1047 -0.1140
 5134TIP3   OH239596   4.981   4.444   8.116 -0.4245 -0.0663 -0.3846
 5134TIP3    H139597   5.073   4.469   8.109 -0.2404 -0.9088 -1.3222
 5134TIP3    H239598   4.948   4.448   8.026 -1.0566 -0.6134 -0.1888
 5135TIP3   OH239599   4.254   2.565   9.092  0.0954  0.2311 -0.2921
 5135TIP3    H139600   4.244   2.605   9.005  1.7271 -0.0715 -0.6447
 5135TIP3    H239601   4.283   2.476   9.073 -0.2440 -0.0667  0.5704
 5136TIP3   OH239602   0.519   3.512   8.067 -0.1973 -0.3496 -0.4869
 5136TIP3    H139603   0.449   3.565   8.027  0.2012  0.8577  0.3618
 5136TIP3    H239604   0.539   3.445   8.001  0.3793  1.5118 -2.3078
 5137TIP3   OH239605   3.159   6.711   7.523  0.0832  0.2598  0.0309
 5137TIP3    H139606   3.199   6.634   7.563  0.0402  0.3918  0.3305
 5137TIP3    H239607   3.078   6.679   7.484 -0.1256  0.2230  0.4882
 5138TIP3   OH239608   6.276   5.527   8.091 -0.3995  0.0086 -0.3116
 5138TIP3    H139609   6.210   5.560   8.030  0.8084  1.5857 -0.8461
 5138TIP3    H239610   6.246   5.557   8.177 -1.1048 -0.5262 -0.3627
 5139TIP3   OH239611   3.834   7.532   8.074 -0.4067  0.3849  0.0348
 5139TIP3    H139612   3.899   7.533   8.003  1.5755 -0.2152  1.7579
 5139TIP3    H239613   3.822   7.625   8.096 -1.6188  0.6411 -1.5318
 5140TIP3   OH239614   1.458   4.187   9.033  0.7448 -0.0422 -0.4473
 5140TIP3    H139615   1.428   4.172   9.123  3.8481 -1.8234  0.4314
 5140TIP3    H239616   1.533   4.245   9.043  0.7281  0.2676 -1.9988
 5141TIP3   OH239617   6.920   7.562   6.785 -0.4641 -0.0956  0.4333
 5141TIP3    H139618   6.851   7.571   6.850  0.2463 -2.1127  1.5714
 5141TIP3    H239619   7.000   7.552   6.837  0.4635  0.6272 -0.8101
 5142TIP3   OH239620   1.255   4.133   8.852  0.1392  0.3652  0.3814
 5142TIP3    H139621   1.303   4.130   8.769 -0.1548 -1.6858  0.2457
 5142TIP3    H239622   1.322   4.127   8.919  0.4709  3.0009  0.4011
 5143TIP3   OH239623   5.955   2.908   7.442 -0.4254  0.1466 -0.1535
 5143TIP3    H139624   5.870   2.909   7.487  0.1399  1.7417  0.9828
 5143TIP3    H239625   5.969   2.999   7.416  0.4057 -0.3226 -1.4291
 5144TIP3   OH239626   1.581   6.016   7.115 -0.4101  0.0956 -0.6889
 5144TIP3    H139627   1.613   5.927   7.101  0.1186  0.0730  0.5166
 5144TIP3    H239628   1.543   6.014   7.202 -2.4609  0.4957 -1.5301
 5145TIP3   OH239629   2.811   3.555   7.219 -0.1174  0.5415 -0.1661
 5145TIP3    H139630   2.863   3.487   7.260 -0.6530  1.1583  1.6021
 5145TIP3    H239631   2.741   3.574   7.281 -1.8448  0.5059 -1.9836
 5146TIP3   OH239632   5.130   6.910   7.433  0.0727  0.1172 -0.0243
 5146TIP3    H139633   5.153   6.838   7.375  0.9477  0.1080  0.3194
 5146TIP3    H239634   5.104   6.981   7.375  1.9547  0.4696 -0.5192
 5147TIP3   OH239635   6.169   5.486   9.222  0.3757 -0.0301  0.6955
 5147TIP3    H139636   6.155   5.553   9.156 -0.8032 -0.9748 -0.0407
 5147TIP3    H239637   6.259   5.501   9.253  0.1793  1.7829  0.4706
 5148TIP3   OH239638   2.976   3.355   8.597  0.0227 -0.1370 -0.2574
 5148TIP3    H139639   3.038   3.286   8.576 -1.4727 -1.7093  0.2130
 5148TIP3    H239640   3.001   3.384   8.685 -0.2819 -1.2205  0.2003
 5149TIP3   OH239641   5.357   6.753   9.460 -0.0109 -0.4274  0.6296
 5149TIP3    H139642   5.312   6.766   9.544 -0.1063  0.4759  0.4561
 5149TIP3    H239643   5.349   6.838   9.416  0.8116 -0.6257  0.0824
 5150TIP3   OH239644   4.870   4.012   8.303 -0.0927  0.1766  0.4858
 5150TIP3    H139645   4.900   4.074   8.369  1.4693 -0.9505  0.8754
 5150TIP3    H239646   4.834   3.939   8.354 -0.4250  0.0294  0.0478
 5151TIP3   OH239647   4.055   0.450   8.131  0.2543 -0.5737  0.0478
 5151TIP3    H139648   4.088   0.412   8.213  3.0213  2.3853  0.5101
 5151TIP3    H239649   4.128   0.443   8.070  0.0050  1.6555 -0.5834
 5152TIP3   OH239650   0.848   5.688   9.030  0.1775 -0.2287  0.9897
 5152TIP3    H139651   0.793   5.610   9.032  0.4895 -0.5842 -1.2728
 5152TIP3    H239652   0.798   5.754   9.078 -1.5918 -0.9353  0.2055
 5153TIP3   OH239653   0.292   5.054   8.099 -0.3045  0.7483  0.3079
 5153TIP3    H139654   0.301   5.020   8.010  0.1657  1.2010  0.1834
 5153TIP3    H239655   0.373   5.029   8.143 -0.9333 -0.3337  0.9091
 5154TIP3   OH239656   7.512   6.263   8.721  0.2415 -0.7194 -0.0352
 5154TIP3    H139657   7.603   6.260   8.692 -0.0340  0.6852 -1.1432
 5154TIP3    H239658   7.505   6.345   8.771 -0.2493 -1.1796  0.6790
 5155TIP3   OH239659   1.581   4.663   9.659  0.4375  0.1752  0.0861
 5155TIP3    H139660   1.587   4.714   9.578  2.1115  0.0996  0.1288
 5155TIP3    H239661   1.633   4.713   9.723  0.0550 -0.3346  0.8049
 5156TIP3   OH239662   4.106   5.592   9.240  0.2911  0.3572 -0.4888
 5156TIP3    H139663   4.072   5.526   9.180 -1.2229 -1.5973  2.3063
 5156TIP3    H239664   4.199   5.572   9.249 -0.1377 -1.4341  0.2624
 5157TIP3   OH239665   2.025   3.232   9.509 -0.2994  0.0775 -0.1794
 5157TIP3    H139666   2.080   3.155   9.496 -0.1045  0.1342  0.2813
 5157TIP3    H239667   1.987   3.221   9.596 -1.6247 -0.3269 -0.7877
 5158TIP3   OH239668   0.778   4.538   7.895 -0.1762  0.9873 -0.0291
 5158TIP3    H139669   0.819   4.552   7.809  1.1021  1.1461  0.5834
 5158TIP3    H239670   0.772   4.625   7.933 -0.3744  0.8713  0.2053
 5159TIP3   OH239671   7.012   5.449   7.388  0.1454  0.4020 -0.1639
 5159TIP3    H139672   7.058   5.467   7.470 -0.2108  0.4958  0.0168
 5159TIP3    H239673   6.983   5.358   7.396  1.5215 -0.1200 -0.8724
 5160TIP3   OH239674   2.888   2.625   8.422 -0.0406  0.1076  0.1827
 5160TIP3    H139675   2.928   2.690   8.480  0.4068 -1.0911  1.2737
 5160TIP3    H239676   2.952   2.613   8.351 -0.8565  2.0189 -0.9479
 5161TIP3   OH239677   0.119   0.825   7.603  0.1799  0.3110  0.0177
 5161TIP3    H139678   0.089   0.756   7.662  1.4197 -0.5223 -0.2868
 5161TIP3    H239679   0.212   0.833   7.620  0.6516 -0.1621 -1.9955
 5162TIP3   OH239680   3.624   2.243   7.310  0.5011  0.3372  0.7861
 5162TIP3    H139681   3.635   2.184   7.385  0.5183 -0.0312  0.4967
 5162TIP3    H239682   3.670   2.200   7.238 -2.0951 -0.8809 -0.2700
 5163TIP3   OH239683   0.098   5.850   8.797 -0.1093 -0.6471  0.0021
 5163TIP3    H139684   0.138   5.881   8.879  0.0236 -0.6686 -0.0539
 5163TIP3    H239685   0.173   5.822   8.744 -0.2761 -2.2803  0.5580
 5164TIP3   OH239686   4.438   6.287   7.437 -0.3640  0.0890 -0.3074
 5164TIP3    H139687   4.400   6.374   7.423  0.9163  0.8039  0.4805
 5164TIP3    H239688   4.532   6.298   7.418 -0.5129 -1.6852 -2.5112
 5165TIP3   OH239689   2.837   3.924   6.810  0.1949 -0.4919 -0.7661
 5165TIP3    H139690   2.853   3.845   6.862  1.8296  0.2948 -0.0027
 5165TIP3    H239691   2.913   3.979   6.827  0.4307  0.1250 -3.4279
 5166TIP3   OH239692   4.912   4.564   9.395  0.4849  0.0056 -0.0954
 5166TIP3    H139693   4.916   4.483   9.447 -0.0923 -0.9187 -1.4363
 5166TIP3    H239694   4.995   4.565   9.347  1.0066  0.8431  0.8069
 5167TIP3   OH239695   4.588   7.256   8.812 -0.1724  0.0416  0.0355
 5167TIP3    H139696   4.503   7.270   8.854 -1.1562 -1.1612 -1.4571
 5167TIP3    H239697   4.626   7.182   8.859 -0.4253 -0.0993  0.0184
 5168TIP3   OH239698   5.766   3.357   9.207  0.4918  0.5435  0.2628
 5168TIP3    H139699   5.818   3.278   9.221 -0.6306 -0.5489 -1.3213
 5168TIP3    H239700   5.708   3.362   9.282  1.5306  0.6955  1.0796
 5169TIP3   OH239701   2.862   4.109   7.154  0.3439 -0.1566 -0.4381
 5169TIP3    H139702   2.816   4.030   7.182  0.5550  0.5869  2.2786
 5169TIP3    H239703   2.793   4.172   7.134  0.1493 -0.1728  0.1492
 5170TIP3   OH239704   1.843   5.804   7.662  0.8999 -0.5191 -0.3239
 5170TIP3    H139705   1.779   5.866   7.697  0.9723 -0.0161 -1.0604
 5170TIP3    H239706   1.924   5.853   7.656  1.2777 -1.0558  0.2684
 5171TIP3   OH239707   4.654   5.802   9.472  0.5547  0.5285  0.2736
 5171TIP3    H139708   4.721   5.853   9.519  1.9899 -0.1440 -0.9653
 5171TIP3    H239709   4.703   5.752   9.407 -0.9271 -1.6625  0.7402
 5172TIP3   OH239710   0.881   5.234   9.126 -0.7690  0.0581  0.2855
 5172TIP3    H139711   0.974   5.218   9.139 -0.3572  0.9522 -1.2505
 5172TIP3    H239712   0.837   5.172   9.184  0.7714 -0.2172  1.2060
 5173TIP3   OH239713   5.268   4.323   8.113 -0.4259  0.1521 -0.1111
 5173TIP3    H139714   5.231   4.245   8.155  0.7151 -1.1291 -1.3729
 5173TIP3    H239715   5.290   4.381   8.185 -2.9782  0.1432  0.7949
 5174TIP3   OH239716   0.283   5.102   6.502  0.0741  0.3766 -0.2117
 5174TIP3    H139717   0.315   5.028   6.554 -2.5539 -0.4126  0.4474
 5174TIP3    H239718   0.353   5.167   6.506  1.6725 -1.3180  0.7907
 5175TIP3   OH239719   5.406   7.358   7.798 -0.5618  0.2398  0.1049
 5175TIP3    H139720   5.428   7.339   7.889  1.9413  1.8728 -0.0496
 5175TIP3    H239721   5.378   7.275   7.761 -0.1656 -0.7697  1.9871
 5176TIP3   OH239722   1.414   4.544   9.190  0.3521 -0.4267 -0.1420
 5176TIP3    H139723   1.509   4.550   9.180  0.3255 -1.8477 -1.5005
 5176TIP3    H239724   1.379   4.603   9.124  0.2693  0.0017  0.2762
 5177TIP3   OH239725   2.557   5.450   6.851 -0.6795  0.0558 -0.5045
 5177TIP3    H139726   2.482   5.476   6.903  0.5838 -0.5337  1.7193
 5177TIP3    H239727   2.608   5.530   6.839 -0.2432 -0.0604  0.4674
 5178TIP3   OH239728   2.215   6.577   7.413 -0.3472  0.3880 -0.4408
 5178TIP3    H139729   2.196   6.602   7.323 -0.9966  3.4885  0.4153
 5178TIP3    H239730   2.308   6.595   7.423 -0.6087  1.7095 -0.1075
 5179TIP3   OH239731   5.151   0.862   8.352 -0.2744 -0.0772  0.0333
 5179TIP3    H139732   5.118   0.846   8.441 -0.5155 -1.3084 -0.2674
 5179TIP3    H239733   5.077   0.899   8.305  0.2272  1.8762  0.6748
 5180TIP3   OH239734   6.171   1.591   9.550  0.1033  0.2072 -0.7925
 5180TIP3    H139735   6.114   1.545   9.612  1.0638 -0.5734 -0.4577
 5180TIP3    H239736   6.137   1.566   9.464  0.5040 -1.0346 -0.6134
 5181TIP3   OH239737   2.739   7.095   8.857  0.1901 -0.3428  0.2637
 5181TIP3    H139738   2.710   7.045   8.933  0.7997  1.9011  2.0996
 5181TIP3    H239739   2.834   7.103   8.868 -0.0671  2.9829  1.3601
 5182TIP3   OH239740   6.344   2.227   8.761 -0.1613  0.2446  0.0554
 5182TIP3    H139741   6.334   2.321   8.778  0.0371  1.0139 -3.3599
 5182TIP3    H239742   6.258   2.199   8.730 -0.3742 -0.8924  1.5705
 5183TIP3   OH239743   6.866   7.022   7.882 -0.3243 -0.2075 -0.0572
 5183TIP3    H139744   6.907   6.995   7.964 -2.0740 -0.3588  0.8232
 5183TIP3    H239745   6.881   6.948   7.823 -1.5437 -1.4058  1.0631
 5184TIP3   OH239746   3.071   6.200   8.662  0.5195  0.1229 -0.5372
 5184TIP3    H139747   3.073   6.204   8.758 -0.2137  1.2108 -0.5562
 5184TIP3    H239748   3.163   6.188   8.637  0.8438  0.7926  0.2661
 5185TIP3   OH239749   3.581   6.274   9.374  0.4723 -0.3220  0.4839
 5185TIP3    H139750   3.577   6.235   9.461 -0.4408 -0.7669  0.2538
 5185TIP3    H239751   3.675   6.282   9.355  0.7919  2.1137  2.5176
 5186TIP3   OH239752   0.907   3.657   7.734  0.6550  0.0589 -0.2019
 5186TIP3    H139753   0.850   3.733   7.748 -1.0707 -1.5525  2.1533
 5186TIP3    H239754   0.957   3.680   7.656  0.0202  3.4864  0.2140
 5187TIP3   OH239755   1.981   4.826   8.217 -0.2850 -0.1068  0.0330
 5187TIP3    H139756   1.947   4.752   8.267 -0.3696 -0.5415 -0.6561
 5187TIP3    H239757   2.040   4.871   8.277  0.5395 -1.3077  0.1566
 5188TIP3   OH239758   1.807   1.117   8.128 -0.0862  0.4355  0.2539
 5188TIP3    H139759   1.856   1.140   8.049  0.6172 -1.6455  0.0225
 5188TIP3    H239760   1.767   1.200   8.156  2.6506  2.0186 -0.1571
 5189TIP3   OH239761   3.292   4.389   9.367  0.6714 -0.3762 -0.1690
 5189TIP3    H139762   3.339   4.359   9.289 -1.1874  0.4405 -1.7030
 5189TIP3    H239763   3.207   4.344   9.363  1.0445 -1.4543  2.2462
 5190TIP3   OH239764   5.113   1.419   7.563 -0.3532 -0.3692  0.1131
 5190TIP3    H139765   5.119   1.415   7.468 -0.2811 -1.7256  0.1578
 5190TIP3    H239766   5.190   1.372   7.594  0.9737  2.1201  0.9061
 5191TIP3   OH239767   1.429   1.856   8.169 -0.5379 -0.0212  0.0595
 5191TIP3    H139768   1.367   1.799   8.124 -0.8282  0.7002 -0.4790
 5191TIP3    H239769   1.391   1.944   8.162  0.9598  0.5869 -1.0889
 5192TIP3   OH239770   6.790   3.510   7.021  0.1946  0.7348  0.4507
 5192TIP3    H139771   6.718   3.454   6.993  1.0352 -0.4631  0.5976
 5192TIP3    H239772   6.752   3.598   7.025 -1.1613  0.1874  0.2206
 5193TIP3   OH239773   2.604   0.815   7.278 -0.2733 -0.2425  0.5047
 5193TIP3    H139774   2.554   0.883   7.233 -2.4250 -0.6349  2.1185
 5193TIP3    H239775   2.581   0.734   7.232  1.4599 -0.0843 -0.7454
 5194TIP3   OH239776   4.977   1.697   8.947 -0.5885 -0.0736 -0.2612
 5194TIP3    H139777   5.044   1.632   8.966 -0.3705  0.5516  1.1916
 5194TIP3    H239778   4.994   1.722   8.856  1.0519 -0.0432  0.0205
 5195TIP3   OH239779   5.382   0.024   9.263 -0.0547  0.6479  0.2293
 5195TIP3    H139780   5.384  -0.072   9.270  4.2808  0.5146  0.1700
 5195TIP3    H239781   5.345   0.053   9.346 -0.6173 -1.0716  0.6293
 5196TIP3   OH239782   1.179   0.598   6.488 -0.5292  0.3193 -0.0575
 5196TIP3    H139783   1.267   0.566   6.470 -0.7723  0.4761 -1.6559
 5196TIP3    H239784   1.145   0.539   6.556  0.7059  0.1177  0.4047
 5197TIP3   OH239785   5.808   7.472   8.189  0.5667 -0.2104  0.3650
 5197TIP3    H139786   5.750   7.432   8.253 -0.6970  0.0048 -0.6006
 5197TIP3    H239787   5.782   7.564   8.187 -1.5300 -0.7023 -2.4952
 5198TIP3   OH239788   6.041   3.639   7.142  0.5826 -0.1677 -0.0341
 5198TIP3    H139789   6.070   3.676   7.059 -0.4575 -1.7696 -1.1845
 5198TIP3    H239790   5.984   3.706   7.180  0.8550  0.4734 -0.7369
 5199TIP3   OH239791   2.057   5.643   7.779  0.1329  0.6258 -0.0747
 5199TIP3    H139792   2.040   5.734   7.803  0.1236  0.1377  1.9584
 5199TIP3    H239793   2.078   5.600   7.862  2.1016 -0.8176 -1.2292
 5200TIP3   OH239794   3.470   6.083   9.192 -0.3803 -0.2391 -0.2004
 5200TIP3    H139795   3.376   6.098   9.189 -0.3090 -0.0267 -2.4120
 5200TIP3    H239796   3.500   6.136   9.267 -1.7657  1.1236 -0.5695
 5201TIP3   OH239797   0.317   6.144   8.121  0.1010 -0.0063  0.3390
 5201TIP3    H139798   0.334   6.206   8.050  1.7577 -0.3104  0.4197
 5201TIP3    H239799   0.250   6.186   8.174  0.7953  1.4819  0.0991
 5202TIP3   OH239800   2.928   6.521   8.952  0.1563  0.1115  0.2279
 5202TIP3    H139801   2.903   6.602   8.909 -1.8702  0.4318  1.8660
 5202TIP3    H239802   2.942   6.545   9.043 -0.1025 -1.3201  0.6720
 5203TIP3   OH239803   0.409   2.604   7.524  0.2666  0.4402  0.4606
 5203TIP3    H139804   0.442   2.557   7.600  1.8413 -0.9748 -0.9883
 5203TIP3    H239805   0.449   2.559   7.449 -2.2543  0.9084 -1.2973
 5204TIP3   OH239806   0.025   2.154   8.807 -0.2562 -0.5542  0.1539
 5204TIP3    H139807  -0.014   2.084   8.859  3.4071 -1.2779  2.1851
 5204TIP3    H239808   0.040   2.115   8.721  1.1573 -2.1155  1.0767
 5205TIP3   OH239809   2.819   5.841   9.573  0.0505 -0.5386 -0.0964
 5205TIP3    H139810   2.805   5.925   9.616 -1.1502 -0.7755  0.0177
 5205TIP3    H239811   2.868   5.862   9.493 -1.4534  0.4689 -0.7982
 5206TIP3   OH239812   5.584   1.105   7.537  0.0455 -0.7619 -0.4156
 5206TIP3    H139813   5.628   1.180   7.496 -0.3345  0.2117  0.8806
 5206TIP3    H239814   5.515   1.081   7.475 -0.2431  0.3937 -0.5755
 5207TIP3   OH239815   5.302   3.254   8.040  0.5842  0.1572  0.1714
 5207TIP3    H139816   5.256   3.208   7.970  1.6105  0.4426 -0.7260
 5207TIP3    H239817   5.342   3.330   7.996  0.8803  0.5890  1.1562
 5208TIP3   OH239818   2.753   5.046   7.388 -0.1934  0.2899 -0.4640
 5208TIP3    H139819   2.755   5.059   7.483 -1.7680  0.5507 -0.4296
 5208TIP3    H239820   2.807   4.969   7.373  1.0358  0.9105  0.4964
 5209TIP3   OH239821   5.253   5.968   8.755 -0.5695  0.1016  0.1031
 5209TIP3    H139822   5.236   6.034   8.688 -1.9187 -0.0779  0.2536
 5209TIP3    H239823   5.263   5.886   8.707  0.2683  0.2581 -0.0109
 5210TIP3   OH239824   5.405   7.208   8.090 -0.1713  0.3490 -0.3155
 5210TIP3    H139825   5.335   7.222   8.154  1.1730  0.8345  1.0926
 5210TIP3    H239826   5.372   7.138   8.034 -2.1712  1.1846 -0.2853
 5211TIP3   OH239827   3.376   7.025   6.575 -0.1206 -0.5942  0.4576
 5211TIP3    H139828   3.388   7.118   6.591  2.2051 -0.4390 -1.5248
 5211TIP3    H239829   3.459   6.985   6.601 -0.8771 -2.0412  0.7596
 5212TIP3   OH239830   5.469   4.442   8.258  0.0013  0.4608 -0.8959
 5212TIP3    H139831   5.450   4.536   8.251 -0.2336  0.3503 -1.9210
 5212TIP3    H239832   5.563   4.435   8.243  0.0565  0.5597 -0.5884
 5213TIP3   OH239833   3.641   6.912   8.648  0.4793  0.2934  0.0085
 5213TIP3    H139834   3.552   6.935   8.676  0.4824  1.3879 -0.8458
 5213TIP3    H239835   3.641   6.816   8.648 -1.1892  0.2345 -1.4266
 5214TIP3   OH239836   1.950   3.266   9.203  0.4402 -0.3073 -0.0032
 5214TIP3    H139837   1.883   3.303   9.146  1.5946  1.0208 -0.5551
 5214TIP3    H239838   1.908   3.261   9.289 -0.7014 -0.5527 -0.5470
 5215TIP3   OH239839   2.753   6.196   9.273 -0.2147 -0.3988 -0.0841
 5215TIP3    H139840   2.672   6.159   9.237 -0.2474 -0.9306  0.5023
 5215TIP3    H239841   2.739   6.290   9.272 -1.2885 -0.5194  0.9966
 5216TIP3   OH239842   2.790   1.117   7.648 -0.0031  0.1691  0.6241
 5216TIP3    H139843   2.848   1.041   7.655 -0.7486 -0.7541 -2.0991
 5216TIP3    H239844   2.847   1.189   7.622  0.2281 -0.2744 -0.1204
 5217TIP3   OH239845   4.158   6.805   9.549  0.1545  0.4108 -0.5212
 5217TIP3    H139846   4.172   6.773   9.638 -2.6991 -1.4528 -0.5895
 5217TIP3    H239847   4.225   6.760   9.497  0.3754 -0.3230  0.3630
 5218TIP3   OH239848   2.948   1.497   7.328 -0.1511  0.5055 -0.4758
 5218TIP3    H139849   2.956   1.592   7.328  1.7600  0.3923  0.4932
 5218TIP3    H239850   3.035   1.465   7.352 -1.2068 -1.4244  1.1217
 5219TIP3   OH239851   6.183   0.834   9.029 -0.5908 -0.1972 -0.2524
 5219TIP3    H139852   6.090   0.855   9.016 -1.1330 -2.8038 -1.2197
 5219TIP3    H239853   6.186   0.788   9.113 -0.2635 -0.5609 -0.4591
 5220TIP3   OH239854   3.870   5.389   7.723  0.4833 -0.0405  0.2780
 5220TIP3    H139855   3.826   5.459   7.771  0.2857 -0.1405  0.2434
 5220TIP3    H239856   3.963   5.411   7.729  0.3702  0.7246 -0.5143
 5221TIP3   OH239857   6.792   6.764   9.228 -0.1957 -0.1679 -0.0261
 5221TIP3    H139858   6.744   6.703   9.284  0.2139 -0.4894 -0.0177
 5221TIP3    H239859   6.771   6.735   9.139 -1.4688  0.8206 -0.0767
 5222TIP3   OH239860   1.719   5.802   8.334  0.3082 -0.2312 -0.5800
 5222TIP3    H139861   1.755   5.814   8.422  1.6731 -2.2416 -0.8053
 5222TIP3    H239862   1.629   5.775   8.348  0.6658 -1.0503  0.2386
 5223TIP3   OH239863   6.895   6.689   6.520 -0.3314 -0.6319 -0.1642
 5223TIP3    H139864   6.947   6.710   6.597 -1.3981 -0.6941  0.6005
 5223TIP3    H239865   6.957   6.650   6.458  0.5346 -0.5884  0.6596
 5224TIP3   OH239866   6.662   4.809   9.341  0.1571  0.0776 -0.3653
 5224TIP3    H139867   6.568   4.794   9.334  0.0867  0.3170  0.0127
 5224TIP3    H239868   6.669   4.895   9.384  0.5373  0.8463 -1.8899
 5225TIP3   OH239869   0.706   0.536   7.016 -0.1481  0.0181  0.4429
 5225TIP3    H139870   0.639   0.598   7.047 -0.2127 -0.1126  0.5648
 5225TIP3    H239871   0.773   0.537   7.083  0.2166  0.5317  0.0759
 5226TIP3   OH239872   6.745   7.295   7.902 -0.4023 -0.3564  0.4072
 5226TIP3    H139873   6.690   7.294   7.824  0.0917  0.9143  0.0230
 5226TIP3    H239874   6.803   7.219   7.891 -0.2374 -0.1098 -0.5500
 5227TIP3   OH239875   0.824   4.734   8.494  0.2219 -0.7557  0.3150
 5227TIP3    H139876   0.905   4.730   8.545  0.1508  1.4075  0.6966
 5227TIP3    H239877   0.841   4.681   8.417  1.4051 -1.6582  1.1709
 5228TIP3   OH239878   0.189   2.983   7.083 -0.2239 -0.5295  0.2286
 5228TIP3    H139879   0.198   3.019   6.995  3.1791 -0.7268  0.3802
 5228TIP3    H239880   0.203   2.889   7.073  1.0117 -0.4532  1.0422
 5229TIP3   OH239881   3.259   0.754   7.688  0.0536  0.3939  0.1418
 5229TIP3    H139882   3.193   0.722   7.627 -0.2803  0.4351  0.4783
 5229TIP3    H239883   3.337   0.704   7.667  0.0591  0.7085 -0.5975
 5230TIP3   OH239884   5.004   4.825   6.953  0.4656 -0.0009 -0.3452
 5230TIP3    H139885   4.989   4.901   6.896 -1.2204  1.0770  1.3948
 5230TIP3    H239886   5.091   4.794   6.928 -0.6598 -0.5127 -4.4254
 5231TIP3   OH239887   2.687   4.480   7.302  0.2730  0.0676 -0.4207
 5231TIP3    H139888   2.723   4.414   7.362  0.0093 -1.6432 -2.0533
 5231TIP3    H239889   2.688   4.437   7.217 -1.2743  1.6811 -1.3040
 5232TIP3   OH239890   0.653   4.541   8.293 -0.4851 -0.0309  0.5045
 5232TIP3    H139891   0.745   4.527   8.269 -1.0338 -0.2291 -1.6749
 5232TIP3    H239892   0.644   4.499   8.379  0.7652 -2.6573 -0.5376
 5233TIP3   OH239893   1.413   1.254   8.689  0.3703  0.2134 -0.4958
 5233TIP3    H139894   1.501   1.276   8.659  1.5212 -0.9323  1.7961
 5233TIP3    H239895   1.378   1.337   8.724 -0.4510  1.2221 -3.4669
 5234TIP3   OH239896   5.771   2.690   7.074 -0.6034  0.4438 -0.4944
 5234TIP3    H139897   5.805   2.607   7.043 -0.9361  0.3724 -0.6733
 5234TIP3    H239898   5.818   2.707   7.156  0.5015  0.7784 -1.1783
 5235TIP3   OH239899   4.247   4.259   9.279  0.2162 -0.5552 -0.2642
 5235TIP3    H139900   4.249   4.185   9.218  0.7344 -1.7084  1.0833
 5235TIP3    H239901   4.338   4.291   9.281  0.3582 -0.9797  0.4117
 5236TIP3   OH239902   7.423   0.891   7.885 -0.0144  0.4296 -0.2084
 5236TIP3    H139903   7.410   0.928   7.972 -0.2411  1.3943 -0.6404
 5236TIP3    H239904   7.517   0.879   7.878  0.0042  0.3346  0.1698
 5237TIP3   OH239905   5.334   6.369   7.329 -0.2229  0.1154 -0.3907
 5237TIP3    H139906   5.382   6.310   7.387  0.1547 -0.3163 -1.1292
 5237TIP3    H239907   5.258   6.319   7.300 -0.7071  0.5212  0.1404
 5238TIP3   OH239908   6.733   1.452   7.528 -0.2092  0.6085 -0.3670
 5238TIP3    H139909   6.647   1.446   7.571  0.3428  1.0654  0.8275
 5238TIP3    H239910   6.780   1.374   7.557 -0.9348 -0.8309 -2.7563
 5239TIP3   OH239911   3.599   0.227   8.676  0.1125  0.1647  0.0637
 5239TIP3    H139912   3.648   0.202   8.598 -1.8583 -2.2940 -0.5182
 5239TIP3    H239913   3.643   0.305   8.708  3.2555 -0.8321 -1.4001
 5240TIP3   OH239914   2.592   0.067   7.046  0.4214 -0.2670 -0.2514
 5240TIP3    H139915   2.613   0.063   6.953 -1.0792  0.6162 -0.6647
 5240TIP3    H239916   2.599   0.160   7.068 -4.5576  0.5294 -0.9206
 5241TIP3   OH239917   2.966   1.788   7.408  0.1782  0.0149  0.0384
 5241TIP3    H139918   2.897   1.792   7.341 -0.2380 -1.2999  0.3737
 5241TIP3    H239919   2.919   1.791   7.491  0.5961  0.0371  0.2759
 5242TIP3   OH239920   1.535   3.247   9.305 -0.5483 -0.2835  0.0667
 5242TIP3    H139921   1.614   3.203   9.337 -0.4350  0.3096  0.6170
 5242TIP3    H239922   1.525   3.214   9.216 -0.3665 -1.2800  0.3966
 5243TIP3   OH239923   1.077   2.440   7.587 -0.1815  0.4994 -0.8859
 5243TIP3    H139924   1.099   2.494   7.512  1.7727 -0.5675 -1.1519
 5243TIP3    H239925   1.143   2.463   7.653 -1.4074  0.8762  0.2619
 5244TIP3   OH239926   0.341   0.118   7.643 -0.1252 -0.1986 -0.1833
 5244TIP3    H139927   0.413   0.074   7.598  1.2745  2.0319 -0.2303
 5244TIP3    H239928   0.317   0.058   7.714 -0.1326 -2.2366 -1.8179
 5245TIP3   OH239929   0.318   1.879   8.764 -0.1063 -0.0865  0.2470
 5245TIP3    H139930   0.312   1.891   8.859  0.0266  0.3933  0.1970
 5245TIP3    H239931   0.288   1.962   8.728 -1.6111 -0.7914 -0.1679
 5246TIP3   OH239932   4.644   0.427   7.687  0.1274  0.2238  0.0311
 5246TIP3    H139933   4.597   0.485   7.746 -0.3243 -1.3716  1.3156
 5246TIP3    H239934   4.623   0.339   7.718  0.9062 -0.6395 -1.7440
 5247TIP3   OH239935   4.171   1.202   6.925 -0.3640 -0.6204 -0.6400
 5247TIP3    H139936   4.233   1.240   6.987 -2.2284  2.2215 -0.3135
 5247TIP3    H239937   4.091   1.190   6.976 -0.4144 -3.4648 -1.2280
 5248TIP3   OH239938   1.113   4.977   8.187  0.2985  0.1477 -0.2334
 5248TIP3    H139939   1.031   4.958   8.141  0.8059  0.9934 -1.5490
 5248TIP3    H239940   1.092   5.052   8.243  0.2452  0.5832 -0.8264
 5249TIP3   OH239941   7.050   6.698   8.654 -0.2033  0.2689  0.2226
 5249TIP3    H139942   7.044   6.673   8.562 -1.0720 -0.2503  0.4095
 5249TIP3    H239943   7.031   6.792   8.654  1.4088  0.6434 -0.2889
 5250TIP3   OH239944   2.587   5.229   7.046 -0.5043  0.1280  0.2524
 5250TIP3    H139945   2.581   5.306   6.989 -0.0564  0.8715  1.1940
 5250TIP3    H239946   2.636   5.259   7.122 -1.4651 -0.7406  1.2414
 5251TIP3   OH239947   7.014   2.449   9.321 -0.3367 -0.0312  0.3179
 5251TIP3    H139948   7.016   2.385   9.250 -1.1292  0.6822 -0.3722
 5251TIP3    H239949   7.063   2.524   9.287 -1.3391  0.6015  0.2124
 5252TIP3   OH239950   6.087   6.921   7.413 -0.2430  0.2249  0.5611
 5252TIP3    H139951   6.090   7.016   7.409  1.7867  0.5041  4.2194
 5252TIP3    H239952   6.158   6.892   7.356  0.5075  1.0704  1.0403
 5253TIP3   OH239953   1.559   6.467   7.340  0.1528  0.6633 -0.4805
 5253TIP3    H139954   1.569   6.374   7.361 -2.0522  0.3921 -0.3836
 5253TIP3    H239955   1.624   6.484   7.272  1.6347 -0.5485  0.5724
 5254TIP3   OH239956   4.897   5.948   9.552 -0.1795 -0.1457  0.6029
 5254TIP3    H139957   4.929   5.926   9.465  1.5723 -0.1134  1.1813
 5254TIP3    H239958   4.947   6.026   9.576 -2.7592  1.6399  0.5129
 5255TIP3   OH239959   5.810   1.159   8.093 -0.2256  0.6106  0.2531
 5255TIP3    H139960   5.778   1.070   8.106 -0.7245  0.9081  1.1130
 5255TIP3    H239961   5.782   1.182   8.004  1.0044 -0.5309 -0.4650
 5256TIP3   OH239962   4.903   6.671   9.698 -0.3569  0.3474 -0.3143
 5256TIP3    H139963   4.965   6.645   9.630 -0.4361 -0.3245 -0.1338
 5256TIP3    H239964   4.947   6.742   9.745  1.0403 -1.2595  0.9264
 5257TIP3   OH239965   2.630   3.124   9.458 -0.0978  0.8803  0.6310
 5257TIP3    H139966   2.606   3.177   9.382  0.4258  0.4734  0.1688
 5257TIP3    H239967   2.710   3.078   9.430 -0.0041  0.5911  1.3652
 5258TIP3   OH239968   1.616   3.500   9.749  0.6171 -0.1934 -0.0659
 5258TIP3    H139969   1.663   3.582   9.732 -1.8744  1.3477 -0.1571
 5258TIP3    H239970   1.551   3.495   9.678 -0.6646 -1.1155  1.1217
 5259TIP3   OH239971   2.114   6.122   9.181 -0.0402  0.1250  0.3776
 5259TIP3    H139972   2.074   6.079   9.105  1.0976 -1.0541  0.4103
 5259TIP3    H239973   2.042   6.131   9.244 -0.3925 -1.5102  0.2588
 5260TIP3   OH239974   7.425   6.015   8.749 -0.1127  0.0891 -0.2511
 5260TIP3    H139975   7.447   6.101   8.715 -1.6799 -0.3340 -2.5578
 5260TIP3    H239976   7.509   5.974   8.770  0.8255  1.0988 -1.9196
 5261TIP3   OH239977   4.843   2.056   7.493  0.2919 -0.6201 -0.1490
 5261TIP3    H139978   4.920   2.065   7.437  1.4756 -1.1860  1.3393
 5261TIP3    H239979   4.770   2.049   7.431  1.2928  0.8727 -1.5777
 5262TIP3   OH239980   6.320   2.310   9.448 -0.0221 -0.5101 -0.2772
 5262TIP3    H139981   6.290   2.392   9.407  0.8920 -0.1803 -0.3035
 5262TIP3    H239982   6.241   2.273   9.487 -0.2128  1.0895  0.9643
 5263TIP3   OH239983   2.249   3.985   9.884 -0.5746  0.1396 -0.2538
 5263TIP3    H139984   2.302   4.051   9.928  1.9121 -1.1716 -1.0859
 5263TIP3    H239985   2.184   4.035   9.834 -1.1981  1.7446  2.0109
 5264TIP3   OH239986   6.450   3.104   8.780 -0.0310  0.2782 -0.3728
 5264TIP3    H139987   6.512   3.171   8.809 -1.6529  2.1082 -0.9226
 5264TIP3    H239988   6.425   3.131   8.692  1.7162 -2.9458 -2.0427
 5265TIP3   OH239989   1.659   3.027   6.951  0.3315 -0.3351 -0.1386
 5265TIP3    H139990   1.640   2.933   6.950 -0.9145 -0.1114 -0.1837
 5265TIP3    H239991   1.685   3.048   6.861  1.4415 -0.7740  0.0681
 5266TIP3   OH239992   6.058   3.153   7.400  0.1502  0.1130 -0.3897
 5266TIP3    H139993   6.047   3.219   7.332  1.5755  2.1034  1.1626
 5266TIP3    H239994   6.152   3.133   7.398  0.1410 -0.0863  0.7044
 5267TIP3   OH239995   3.526   1.959   9.283 -0.0254  0.4565 -0.0472
 5267TIP3    H139996   3.528   1.944   9.378  0.7881  2.5926  0.3336
 5267TIP3    H239997   3.465   1.893   9.250 -2.0022  0.9517  2.2522
 5268TIP3   OH239998   0.947   2.472   6.693  0.5383 -0.5865 -0.3490
 5268TIP3    H139999   0.920   2.545   6.637 -1.0704 -1.1612 -0.3622
 5268TIP3    H240000   0.950   2.397   6.633  0.5881 -0.8475 -0.0186
 5269TIP3   OH240001   2.137   6.552   8.536 -0.8041 -0.1408  0.0574
 5269TIP3    H140002   2.162   6.643   8.522 -2.1423  0.2664  0.1841
 5269TIP3    H240003   2.181   6.527   8.618 -1.7874  0.9481  0.9517
 5270TIP3   OH240004   7.167   5.054   7.431  0.4756  0.4453 -0.1401
 5270TIP3    H140005   7.087   5.106   7.425  0.0789 -0.0466  0.7256
 5270TIP3    H240006   7.149   4.977   7.377  0.6701  0.7030 -0.5794
 5271TIP3   OH240007   2.233   2.786   7.636 -0.0542  0.4183 -0.5108
 5271TIP3    H140008   2.185   2.703   7.636 -0.7293  0.6432  3.4192
 5271TIP3    H240009   2.319   2.764   7.673  0.2402  1.2581 -0.6734
 5272TIP3   OH240010   7.411   7.436   8.613  0.3008 -0.3842  0.1366
 5272TIP3    H140011   7.440   7.495   8.543  1.3688 -2.8442 -1.6283
 5272TIP3    H240012   7.316   7.446   8.615  0.1506 -0.7005 -2.1947
 5273TIP3   OH240013   1.301   1.172   7.355 -0.0873  0.3611  0.6363
 5273TIP3    H140014   1.373   1.232   7.372 -0.3359  1.5617 -1.9999
 5273TIP3    H240015   1.245   1.219   7.292 -1.1936 -1.9731 -0.2481
 5274TIP3   OH240016   4.907   0.447   7.597  0.2840  0.6835 -0.0215
 5274TIP3    H140017   4.818   0.453   7.631  1.2025  0.4570  2.7212
 5274TIP3    H240018   4.930   0.355   7.605  0.9677  0.8390 -0.0661
 5275TIP3   OH240019   1.136   1.280   7.176  0.0846  0.2525  0.0229
 5275TIP3    H140020   1.133   1.236   7.091  1.1073  2.1101 -1.0414
 5275TIP3    H240021   1.058   1.335   7.177 -0.9800 -1.1953  1.1797
 5276TIP3   OH240022   7.229   6.207   7.191  0.1656 -0.4567 -0.4804
 5276TIP3    H140023   7.278   6.206   7.109 -0.4932  0.4412 -0.9150
 5276TIP3    H240024   7.257   6.129   7.238  1.6459 -0.2130 -0.9178
 5277TIP3   OH240025   6.195   6.603   8.940 -0.4640 -0.4785  0.2795
 5277TIP3    H140026   6.100   6.604   8.957 -0.7443  1.7720 -0.9618
 5277TIP3    H240027   6.231   6.663   9.005 -0.0962 -0.1402 -0.2369
 5278TIP3   OH240028   7.413   2.008   8.261 -0.1027  0.4066  0.6056
 5278TIP3    H140029   7.406   2.050   8.175  1.4495 -0.7705 -0.1326
 5278TIP3    H240030   7.388   1.917   8.246 -1.7035  0.5963  1.8349
 5279TIP3   OH240031   6.397   5.682   8.388  0.5014  0.4592  0.2365
 5279TIP3    H140032   6.402   5.758   8.445 -1.1059  0.0212  0.9971
 5279TIP3    H240033   6.311   5.688   8.347  1.9263  1.3272 -3.0403
 5280TIP3   OH240034   6.987   4.013   8.398 -0.5110  0.4684  0.2708
 5280TIP3    H140035   7.040   3.972   8.465  0.0220 -0.6368 -0.7912
 5280TIP3    H240036   6.948   4.089   8.441 -0.9659 -0.7451  2.0869
 5281TIP3   OH240037   6.401   0.128   8.663 -0.1874  0.3731  0.5060
 5281TIP3    H140038   6.436   0.060   8.721  0.0118  0.4002  0.4186
 5281TIP3    H240039   6.352   0.186   8.722 -2.0803 -0.9456  0.2923
 5282TIP3   OH240040   3.734   0.979   8.368  0.0980  0.5042 -0.1243
 5282TIP3    H140041   3.734   0.912   8.299 -0.5941  0.5819 -0.2048
 5282TIP3    H240042   3.682   0.941   8.439 -0.8818  1.2132 -0.4397
 5283TIP3   OH240043   0.747   2.405   6.874 -0.1424  0.4829 -0.0945
 5283TIP3    H140044   0.698   2.488   6.873  1.0191  1.1967 -0.2036
 5283TIP3    H240045   0.830   2.427   6.832  0.6357 -0.4545  0.9083
 5284TIP3   OH240046   2.316   4.878   6.923 -0.1445  0.3685  0.4911
 5284TIP3    H140047   2.307   4.871   6.827  0.6594 -1.2195  0.4808
 5284TIP3    H240048   2.232   4.848   6.957 -0.4628  1.0151  0.2898
 5285TIP3   OH240049   3.392   1.918   8.762  0.3006 -0.2919  0.7785
 5285TIP3    H140050   3.350   1.996   8.799 -0.4065 -1.0732  1.6559
 5285TIP3    H240051   3.484   1.928   8.784  0.5284  1.1095 -0.5765
 5286TIP3   OH240052   3.146   2.973   8.357  0.1237 -0.2656  0.6472
 5286TIP3    H140053   3.138   2.877   8.363  1.9709 -0.4221  1.2820
 5286TIP3    H240054   3.200   2.987   8.279  0.2004  0.2389  0.7936
 5287TIP3   OH240055   2.491   3.150   7.459 -0.0230 -0.4001  0.3864
 5287TIP3    H140056   2.496   3.186   7.547 -0.3731 -1.2478  0.7656
 5287TIP3    H240057   2.492   3.226   7.401 -0.2087  0.1838  1.1445
 5288TIP3   OH240058   7.490   5.352   7.551  0.0651 -0.2189  0.1618
 5288TIP3    H140059   7.420   5.300   7.592  0.2911  0.3059  1.2547
 5288TIP3    H240060   7.532   5.292   7.489 -2.4823 -0.0393 -1.9106
 5289TIP3   OH240061   1.777   3.372   9.029  0.2009  0.1232 -0.2235
 5289TIP3    H140062   1.787   3.423   8.949 -1.6351  1.2153  0.1917
 5289TIP3    H240063   1.717   3.301   9.004 -0.2712  0.3909  0.1481
 5290TIP3   OH240064   4.864   2.784   8.398  0.0068 -0.3664 -0.6047
 5290TIP3    H140065   4.960   2.791   8.392  0.1751 -0.4245  1.3345
 5290TIP3    H240066   4.849   2.713   8.459 -1.1418  2.0789  2.2277
 5291TIP3   OH240067   3.379   6.908   9.207 -0.5450  0.5162  0.1283
 5291TIP3    H140068   3.390   6.967   9.282 -2.8234  0.0601  0.9056
 5291TIP3    H240069   3.390   6.821   9.244  0.8683  0.3435 -0.6289
 5292TIP3   OH240070   2.134   1.811   8.037 -0.6870 -0.2802 -0.3597
 5292TIP3    H140071   2.198   1.741   8.032 -0.6844 -0.5017  1.7098
 5292TIP3    H240072   2.067   1.788   7.974 -2.1283 -3.7427  2.1269
 5293TIP3   OH240073   3.579   1.490   6.254  0.2335  1.1236  0.1268
 5293TIP3    H140074   3.655   1.499   6.196 -1.1799  0.8833 -1.8585
 5293TIP3    H240075   3.520   1.561   6.228 -1.6761 -0.6990 -0.7758
 5294TIP3   OH240076   2.918   2.987   8.986 -0.6120 -0.1455  0.8605
 5294TIP3    H140077   2.993   3.026   8.942 -1.1176 -0.1039  0.0061
 5294TIP3    H240078   2.949   2.902   9.015 -0.5614 -0.6244 -0.5306
 5295TIP3   OH240079   2.911   1.366   8.314 -0.3381 -0.4359 -0.1887
 5295TIP3    H140080   2.842   1.314   8.356 -0.8131 -1.6714 -2.3501
 5295TIP3    H240081   2.942   1.425   8.383 -2.6808 -0.7018  1.1927
 5296TIP3   OH240082   3.696   2.146   8.140  0.0976 -0.7522  0.3246
 5296TIP3    H140083   3.730   2.234   8.122 -0.2393 -0.5428  0.6851
 5296TIP3    H240084   3.747   2.088   8.083 -1.7974 -0.0052 -2.3816
 5297TIP3   OH240085   6.606   0.881   8.528  0.1402  0.2023  0.3162
 5297TIP3    H140086   6.576   0.937   8.457 -1.4690 -2.0280 -0.8942
 5297TIP3    H240087   6.611   0.939   8.604 -0.6230  2.1187 -1.0347
 5298TIP3   OH240088   3.446   6.595   8.369  0.1602  0.3635 -0.3826
 5298TIP3    H140089   3.385   6.669   8.375 -0.2117 -0.0488  1.1974
 5298TIP3    H240090   3.390   6.517   8.369  0.6580 -0.1104  2.8108
 5299TIP3   OH240091   5.073   2.823   9.142  0.3174 -0.0449  0.2679
 5299TIP3    H140092   4.993   2.873   9.120 -0.2192  0.0650  2.2979
 5299TIP3    H240093   5.132   2.841   9.069 -0.7645  1.5687 -0.2815
 5300TIP3   OH240094   5.602   0.133   9.140 -0.0044 -0.3144 -0.3471
 5300TIP3    H140095   5.520   0.107   9.183 -1.2874 -0.1380 -2.5369
 5300TIP3    H240096   5.641   0.050   9.111 -0.5870 -0.2723 -1.2859
 5301TIP3   OH240097   5.623   1.803   6.805 -0.0900 -0.0972 -0.1798
 5301TIP3    H140098   5.576   1.812   6.722  1.3067  2.1261 -0.8196
 5301TIP3    H240099   5.567   1.847   6.869 -0.4672 -0.4914 -0.2339
 5302TIP3   OH240100   3.219   3.954   8.254 -0.1686  0.3654 -0.1405
 5302TIP3    H140101   3.141   3.927   8.304 -1.0338  1.1606 -1.0271
 5302TIP3    H240102   3.234   3.881   8.194 -1.6968  1.1697 -1.6008
 5303TIP3   OH240103   4.054   6.275   6.824 -0.5198 -0.0367 -0.1281
 5303TIP3    H140104   3.979   6.224   6.795 -1.1591  0.6312  0.3083
 5303TIP3    H240105   4.118   6.266   6.754 -1.7334  0.9345 -1.4206
 5304TIP3   OH240106   1.982   3.519   7.692  0.0926  0.2962 -0.7830
 5304TIP3    H140107   1.960   3.437   7.649 -0.1155 -0.1190  0.0862
 5304TIP3    H240108   1.922   3.583   7.655 -0.2748 -0.1123 -0.8977
 5305TIP3   OH240109   1.392   6.724   8.088  0.0682 -0.3433 -0.2615
 5305TIP3    H140110   1.443   6.768   8.020  0.7873 -0.6372  0.0808
 5305TIP3    H240111   1.383   6.789   8.158 -0.9823  0.0851 -0.7690
 5306TIP3   OH240112   1.380   6.572   8.320 -0.0959 -0.1746  0.4237
 5306TIP3    H140113   1.385   6.632   8.245 -0.1987 -1.4003 -0.5892
 5306TIP3    H240114   1.329   6.620   8.385  0.1359  0.9847 -0.2099
 5307TIP3   OH240115   5.794   6.581   9.217  0.3613 -0.3195  0.3137
 5307TIP3    H140116   5.752   6.608   9.299 -0.9296  1.0740 -0.7397
 5307TIP3    H240117   5.723   6.540   9.166  0.9384 -0.4203 -0.4312
 5308TIP3   OH240118   5.472   5.255   6.708 -0.1680  0.0403  0.7920
 5308TIP3    H140119   5.425   5.178   6.677 -1.0477  1.7152 -2.5339
 5308TIP3    H240120   5.488   5.238   6.801 -3.5510 -2.4906  1.0925
 5309TIP3   OH240121   5.886   6.175   9.211  0.1195  0.2781  0.5409
 5309TIP3    H140122   5.956   6.131   9.259 -0.3971 -0.1035  0.9642
 5309TIP3    H240123   5.874   6.122   9.132 -0.5692 -0.4231  1.0962
 5310TIP3   OH240124   3.638   0.480   7.528 -0.3347 -0.5910 -0.5466
 5310TIP3    H140125   3.715   0.506   7.578 -0.2652 -0.1344 -0.8912
 5310TIP3    H240126   3.602   0.405   7.577 -0.1356 -0.2999  0.0553
 5311TIP3   OH240127   1.847   6.713   9.148 -0.3867  0.1290 -0.2820
 5311TIP3    H140128   1.916   6.778   9.132  0.8188 -1.5249 -2.1810
 5311TIP3    H240129   1.766   6.757   9.119  0.1866  1.2949 -0.1664
 5312TIP3   OH240130   4.038   3.131   9.327  0.1270 -0.9667  0.0346
 5312TIP3    H140131   3.978   3.068   9.289  0.5896 -0.5736 -1.3833
 5312TIP3    H240132   4.110   3.078   9.362  0.8816 -1.2355 -1.8052
 5313TIP3   OH240133   2.796   7.065   6.465  0.1356 -0.5467  0.4097
 5313TIP3    H140134   2.829   7.129   6.401 -1.4283 -0.6412 -0.5665
 5313TIP3    H240135   2.797   6.982   6.417  0.4685 -0.9238  1.0681
 5314TIP3   OH240136   5.452   6.537   9.784 -0.7087  0.5107 -0.1187
 5314TIP3    H140137   5.465   6.455   9.736 -0.5776  1.1178 -1.1549
 5314TIP3    H240138   5.378   6.579   9.740 -0.9990  0.7923  0.6291
 5315TIP3   OH240139   5.187   3.352   9.331  0.5294  0.4109 -0.4357
 5315TIP3    H140140   5.180   3.383   9.241  0.6248  0.4603 -0.4260
 5315TIP3    H240141   5.104   3.376   9.371 -0.2340 -1.1437 -0.9834
 5316TIP3   OH240142   1.328   3.224   7.420  0.3251  0.7838  0.4317
 5316TIP3    H140143   1.355   3.294   7.480 -1.4273  1.2302  0.7469
 5316TIP3    H240144   1.235   3.241   7.404  0.2716 -0.5365 -0.7904
 5317TIP3   OH240145   2.944   0.302   9.309 -0.4334 -0.5115 -0.2275
 5317TIP3    H140146   2.904   0.309   9.396  1.2725  0.2530  0.5488
 5317TIP3    H240147   2.990   0.385   9.298  0.1801 -0.9928 -1.4561
 5318TIP3   OH240148   1.606   1.140   7.348 -0.1588  0.5885 -0.1417
 5318TIP3    H140149   1.562   1.189   7.417  0.7553  0.7628  0.3329
 5318TIP3    H240150   1.668   1.083   7.394  0.2112  0.4468 -0.7960
 5319TIP3   OH240151   3.516   6.343   8.079  0.2255  0.1940  0.6976
 5319TIP3    H140152   3.609   6.364   8.083  0.4676 -0.6882 -0.0214
 5319TIP3    H240153   3.472   6.428   8.081  1.0713  0.6474  0.4211
 5320TIP3   OH240154   5.798   1.667   6.986 -0.4500  0.0470  0.2690
 5320TIP3    H140155   5.728   1.693   6.926 -1.0742 -0.7392  0.6419
 5320TIP3    H240156   5.779   1.714   7.067  0.1898  0.8282 -0.0196
 5321TIP3   OH240157   2.308   4.374   7.432  0.0636  0.1323  0.8485
 5321TIP3    H140158   2.269   4.413   7.510 -0.0634  0.8442  0.4371
 5321TIP3    H240159   2.331   4.449   7.377 -0.7594 -0.3795 -0.2379
 5322TIP3   OH240160   3.888   0.258   7.382  0.0989  0.2816 -0.3909
 5322TIP3    H140161   3.940   0.331   7.416 -0.4513 -0.2101  1.6474
 5322TIP3    H240162   3.906   0.257   7.288  2.2971  1.2861 -0.0412
 5323TIP3   OH240163   4.564   7.121   8.421 -0.1914 -0.2476  0.2323
 5323TIP3    H140164   4.479   7.081   8.439 -0.2553 -0.5678 -0.7241
 5323TIP3    H240165   4.547   7.186   8.353  0.4245 -0.7597 -0.4285
 5324TIP3   OH240166   3.799   2.272   7.843 -0.2255 -0.1903  0.2322
 5324TIP3    H140167   3.775   2.350   7.893 -0.0984  1.2720 -1.8495
 5324TIP3    H240168   3.846   2.306   7.766  0.3619 -2.3646 -0.4522
 5325TIP3   OH240169   2.012   1.395   9.162  0.1594 -0.3549 -0.2879
 5325TIP3    H140170   2.096   1.386   9.207  0.9993 -1.2909 -1.9446
 5325TIP3    H240171   1.990   1.488   9.172  1.5059 -0.0324 -0.0132
 5326TIP3   OH240172   7.532   5.923   7.301  0.0558 -0.3445 -0.5688
 5326TIP3    H140173   7.437   5.932   7.293  0.0907  1.0515  0.2173
 5326TIP3    H240174   7.565   6.012   7.295  1.3080 -0.7930 -0.6104
 5327TIP3   OH240175   5.912   0.362   8.086 -0.3083 -0.5309  0.4793
 5327TIP3    H140176   5.838   0.416   8.060 -0.3783 -0.2988  1.1516
 5327TIP3    H240177   5.986   0.395   8.034 -0.7685 -1.0754 -0.5406
 5328TIP3   OH240178   4.580   7.366   7.729 -0.0994  0.1036 -0.0526
 5328TIP3    H140179   4.556   7.275   7.713  1.4116 -0.0875 -1.4489
 5328TIP3    H240180   4.648   7.361   7.796 -1.1346  0.3625  1.0620
 5329TIP3   OH240181   4.895   3.928   7.167  0.0210  0.3547  0.0393
 5329TIP3    H140182   4.874   3.870   7.241  0.7702  0.6777  0.5137
 5329TIP3    H240183   4.978   3.894   7.133 -1.3254 -1.1071 -2.0171
 5330TIP3   OH240184   0.118   3.775   8.480 -0.0188 -0.0362 -0.5899
 5330TIP3    H140185   0.180   3.724   8.428  0.9556  1.1151 -0.6236
 5330TIP3    H240186   0.095   3.719   8.554 -0.9252 -1.4519 -1.8964
 5331TIP3   OH240187   3.414   1.326   7.396 -0.0080 -0.7926  0.3475
 5331TIP3    H140188   3.462   1.390   7.449 -1.5583  0.9874 -0.2966
 5331TIP3    H240189   3.326   1.362   7.388 -1.0471 -3.1811  0.1796
 5332TIP3   OH240190   5.187   0.948   7.741  0.1360 -0.1159 -0.5624
 5332TIP3    H140191   5.235   0.948   7.658  0.1947 -1.9454 -0.5737
 5332TIP3    H240192   5.147   0.861   7.745 -0.4481  0.1929  1.0138
 5333TIP3   OH240193   3.716   2.000   7.488  0.0331  0.3879  0.3054
 5333TIP3    H140194   3.642   1.942   7.470  0.8982 -1.2214  1.7336
 5333TIP3    H240195   3.788   1.964   7.437  0.3984  0.6888  0.6057
 5334TIP3   OH240196   7.402   1.836   9.560 -0.2582 -0.4098 -0.0744
 5334TIP3    H140197   7.355   1.796   9.487  1.5231  1.1539 -2.2160
 5334TIP3    H240198   7.476   1.777   9.575 -0.4001 -0.5182  0.2060
 5335TIP3   OH240199   7.243   2.024   7.519 -0.2178 -0.6925 -0.0465
 5335TIP3    H140200   7.246   1.946   7.574  0.1667  0.0204  0.9637
 5335TIP3    H240201   7.332   2.031   7.483  0.2792  0.2487  1.2793
 5336TIP3   OH240202   6.985   5.314   7.061  0.2327  0.1894  0.1769
 5336TIP3    H140203   6.969   5.299   7.154 -1.4313  0.0923 -0.0822
 5336TIP3    H240204   6.904   5.354   7.029  0.5479 -0.3171 -1.3531
 5337TIP3   OH240205   4.795   6.332   7.971 -0.3075 -0.0259  0.5514
 5337TIP3    H140206   4.750   6.265   8.022  0.6816 -1.1479 -0.0088
 5337TIP3    H240207   4.797   6.297   7.882  0.4401  0.6348  0.2971
 5338TIP3   OH240208   4.747   6.421   9.202  0.2649  0.0951  0.4758
 5338TIP3    H140209   4.779   6.391   9.117 -1.9286  1.0894 -0.7801
 5338TIP3    H240210   4.739   6.341   9.254  1.6188 -0.5314 -0.2136
 5339TIP3   OH240211   4.388   6.315   9.790  0.0178 -0.3808 -0.3620
 5339TIP3    H140212   4.384   6.356   9.876 -1.0892 -1.5642  0.1892
 5339TIP3    H240213   4.335   6.371   9.733 -0.0211 -0.0984 -0.0465
 5340TIP3   OH240214   0.656   0.097   7.988 -0.0092 -0.3008 -0.6644
 5340TIP3    H140215   0.562   0.104   7.970  0.0275 -0.0390 -0.7613
 5340TIP3    H240216   0.693   0.065   7.906 -0.2973 -2.7011  0.0623
 5341TIP3   OH240217   2.093   2.150   8.747 -0.4504 -0.0171  0.0377
 5341TIP3    H140218   2.036   2.211   8.794  1.7285  0.9189  1.6752
 5341TIP3    H240219   2.065   2.064   8.776 -1.5371  0.3687  0.1753
 5342TIP3   OH240220   4.738   4.602   8.368 -0.1943 -0.3417  0.0105
 5342TIP3    H140221   4.833   4.599   8.379 -0.3293 -2.8233  1.0815
 5342TIP3    H240222   4.705   4.541   8.433 -2.5177  0.1327 -0.6517
 5343TIP3   OH240223   2.458   1.477   8.448  0.0526  0.1293  0.0196
 5343TIP3    H140224   2.437   1.434   8.531  0.7490 -1.9190 -0.8099
 5343TIP3    H240225   2.516   1.549   8.473  1.5041 -1.3637  1.2333
 5344TIP3   OH240226   5.788   0.330   6.528 -0.4951 -0.6318  0.3845
 5344TIP3    H140227   5.779   0.235   6.526 -0.7997 -0.5932 -0.3600
 5344TIP3    H240228   5.699   0.363   6.532 -0.4137 -0.3628 -0.0013
 5345TIP3   OH240229   0.181   5.048   8.853 -0.3293  0.0429 -0.4177
 5345TIP3    H140230   0.132   4.989   8.796  0.4516 -1.7120  0.6369
 5345TIP3    H240231   0.223   4.990   8.917 -1.6616  1.9067  2.3561
 5346TIP3   OH240232   7.124   7.055   8.968 -0.8166  0.0176 -0.1843
 5346TIP3    H140233   7.205   7.039   8.920 -0.2436  1.5296  0.2332
 5346TIP3    H240234   7.152   7.070   9.058 -1.7296 -1.0495  0.3032
 5347TIP3   OH240235   4.264   3.179   8.814 -0.1112  0.2802 -0.4943
 5347TIP3    H140236   4.332   3.177   8.881 -0.6215 -0.7292  0.0242
 5347TIP3    H240237   4.290   3.112   8.751  0.8919  1.9030 -1.8811
 5348TIP3   OH240238   3.251   6.031   8.500 -0.5943  0.0895  0.0496
 5348TIP3    H140239   3.290   5.952   8.540 -0.9247 -0.1582 -0.1132
 5348TIP3    H240240   3.297   6.041   8.417  0.2962  0.7704  0.6059
 5349TIP3   OH240241   6.255   2.460   8.812 -0.4226 -0.1154  0.7938
 5349TIP3    H140242   6.250   2.530   8.747  3.9324  1.0391  1.3811
 5349TIP3    H240243   6.178   2.472   8.867  0.2539  4.5756  1.0990
 5350TIP3   OH240244   3.520   2.475   7.709 -0.0884  0.0950 -0.0929
 5350TIP3    H140245   3.581   2.475   7.635 -0.9156 -1.0164 -0.7932
 5350TIP3    H240246   3.501   2.568   7.723  0.6108  0.3677 -0.8244
 5351TIP3   OH240247   5.825   4.895   7.979  0.6755  0.8377  0.6703
 5351TIP3    H140248   5.907   4.917   8.022  0.1432  0.0006  2.1748
 5351TIP3    H240249   5.844   4.903   7.885  2.0531  2.0350  1.0197
 5352TIP3   OH240250   2.100   3.963   7.164 -0.7652 -0.0136  0.0547
 5352TIP3    H140251   2.083   3.962   7.070  0.1554  0.2525 -0.1267
 5352TIP3    H240252   2.121   3.872   7.185 -2.7834 -0.4461  0.3777
 5353TIP3   OH240253   6.885   7.262   7.494 -0.2032  1.0624 -0.4878
 5353TIP3    H140254   6.839   7.341   7.522 -1.1133  0.5145 -0.4215
 5353TIP3    H240255   6.939   7.238   7.570 -3.5237 -1.0915  1.4169
 5354TIP3   OH240256   6.940   2.638   8.950 -0.5262 -0.0981  0.3702
 5354TIP3    H140257   7.032   2.638   8.923 -0.7281  0.7303 -0.3800
 5354TIP3    H240258   6.940   2.681   9.036 -0.5369  3.0342 -1.0467
 5355TIP3   OH240259   6.886   6.133   8.101  0.0926  0.2664 -0.5018
 5355TIP3    H140260   6.895   6.226   8.122 -4.1794  1.0624 -1.3176
 5355TIP3    H240261   6.848   6.094   8.180 -0.7887 -0.1812 -1.1410
 5356TIP3   OH240262   2.015   7.232   8.968 -0.2217  0.5263 -0.3201
 5356TIP3    H140263   2.074   7.170   8.925 -1.1164 -0.1362 -0.6265
 5356TIP3    H240264   2.066   7.312   8.976  0.6342  0.0427 -0.7892
 5357TIP3   OH240265   7.342   6.560   9.199 -0.0838 -0.5432 -0.7429
 5357TIP3    H140266   7.427   6.533   9.163  0.5666 -0.3057  0.5634
 5357TIP3    H240267   7.280   6.498   9.162  0.5515 -0.3721 -2.1884
 5358TIP3   OH240268   5.563   1.305   9.575  0.2494  0.0965 -0.3393
 5358TIP3    H140269   5.629   1.371   9.596  0.0594  0.3785 -0.6195
 5358TIP3    H240270   5.599   1.257   9.500  1.2911 -1.4362  1.0707
 5359TIP3   OH240271   2.098   6.085   8.884  0.5751  0.4695 -0.0074
 5359TIP3    H140272   2.090   5.990   8.881  0.8474  0.4224  0.6210
 5359TIP3    H240273   2.057   6.115   8.803 -0.0233 -0.1472  0.0541
 5360TIP3   OH240274   5.556   0.694   7.593  0.1778 -0.2657  0.1798
 5360TIP3    H140275   5.486   0.656   7.539  0.5411 -2.6585  1.2517
 5360TIP3    H240276   5.546   0.651   7.678  0.9565  1.8104  1.3727
 5361TIP3   OH240277   0.777   2.737   8.244 -0.5385  0.3177 -0.0903
 5361TIP3    H140278   0.805   2.659   8.197  2.2529 -0.1159  2.0428
 5361TIP3    H240279   0.796   2.809   8.184 -0.7407 -0.4632 -1.1129
 5362TIP3   OH240280   1.635   3.884   9.083  0.2218 -0.1245  0.4573
 5362TIP3    H140281   1.716   3.852   9.123 -0.3378  1.4415  3.0639
 5362TIP3    H240282   1.586   3.923   9.155 -2.3905 -0.0098 -1.2391
 5363TIP3   OH240283   1.283   2.816   9.209  0.1752 -0.1853 -0.2273
 5363TIP3    H140284   1.210   2.878   9.217 -1.3896 -1.5238 -2.7598
 5363TIP3    H240285   1.279   2.763   9.289 -1.2690  0.1368 -0.0621
 5364TIP3   OH240286   3.023   0.013   7.499  0.4868 -0.4145  0.5899
 5364TIP3    H140287   3.099   0.024   7.556  0.4405  0.0420  0.5700
 5364TIP3    H240288   3.026   0.088   7.440  1.1115 -1.4161 -0.7030
 5365TIP3   OH240289   7.070   0.846   8.950  1.0964  0.3111  0.1834
 5365TIP3    H140290   7.027   0.900   9.015 -0.1785  1.1621 -1.2915
 5365TIP3    H240291   7.154   0.889   8.933  1.0363  0.5869  0.5956
 5366TIP3   OH240292   5.263   6.820   7.684  0.4107 -0.0372 -0.4278
 5366TIP3    H140293   5.337   6.800   7.627 -0.5851 -1.3863 -1.3064
 5366TIP3    H240294   5.192   6.843   7.623  0.2077  1.7176  0.4065
 5367TIP3   OH240295   4.943   7.144   7.350  0.6256 -0.3218  0.6075
 5367TIP3    H140296   4.876   7.076   7.347  1.0842 -0.7744  0.4912
 5367TIP3    H240297   4.950   7.167   7.443 -0.6997  0.7642  0.4772
 5368TIP3   OH240298   7.110   1.138   7.748  0.2163 -0.0314 -0.3944
 5368TIP3    H140299   7.131   1.047   7.726  0.4065  0.0520 -0.5562
 5368TIP3    H240300   7.184   1.167   7.800  0.7447  0.4159 -1.3739
 5369TIP3   OH240301   2.334   1.571   6.714  0.0749 -0.0974 -0.5302
 5369TIP3    H140302   2.367   1.655   6.748 -0.7611 -0.0172  0.1013
 5369TIP3    H240303   2.398   1.547   6.646  1.0851  0.3654  0.2212
 5370TIP3   OH240304   5.200   5.736   8.647 -0.5114  0.2764  0.4179
 5370TIP3    H140305   5.176   5.648   8.673 -0.7122  0.8819  2.4708
 5370TIP3    H240306   5.265   5.724   8.577 -1.1058 -1.4475  0.1106
 5371TIP3   OH240307   2.303   1.727   7.751 -0.1312  0.4951  0.2713
 5371TIP3    H140308   2.364   1.760   7.685 -0.8511  0.9432 -0.1860
 5371TIP3    H240309   2.218   1.759   7.722 -0.5429  0.1268  1.0625
 5372TIP3   OH240310   3.836   7.099   7.918 -0.4117  0.1884  0.1317
 5372TIP3    H140311   3.770   7.064   7.978 -0.5639  0.1812 -0.0410
 5372TIP3    H240312   3.786   7.152   7.856  0.0236  2.9198  1.9205
 5373TIP3   OH240313   5.190   6.362   9.699 -0.6761 -0.0718  0.5401
 5373TIP3    H140314   5.230   6.333   9.781 -0.1327  1.7405  0.9807
 5373TIP3    H240315   5.250   6.429   9.665 -1.2295 -0.3101 -0.9976
 5374TIP3   OH240316   4.632   3.094   7.979  0.5273  0.4639 -0.4011
 5374TIP3    H140317   4.560   3.157   7.978  0.4158  0.4251  1.6566
 5374TIP3    H240318   4.628   3.054   8.066 -0.4380 -3.6606 -2.0982
 5375TIP3   OH240319   1.216   0.532   8.241 -0.3700  0.1970 -0.7020
 5375TIP3    H140320   1.277   0.500   8.308  0.1425 -1.5642 -1.9188
 5375TIP3    H240321   1.273   0.572   8.175 -0.7572  0.8458 -0.6415
 5376TIP3   OH240322   7.486   0.120   7.578 -0.6537  0.0335 -0.0171
 5376TIP3    H140323   7.535   0.096   7.657  0.5946 -1.4013 -1.1712
 5376TIP3    H240324   7.395   0.126   7.608 -0.5191 -2.4778  1.1930
 5377TIP3   OH240325   7.378   0.034   8.097 -0.4216  0.6975  0.3247
 5377TIP3    H140326   7.375   0.108   8.158 -0.6578 -0.2537  1.4932
 5377TIP3    H240327   7.376  -0.044   8.153  1.1338 -0.2168 -0.8263
 5378TIP3   OH240328   4.322   4.602   9.289 -0.5058 -0.1243 -0.3844
 5378TIP3    H140329   4.244   4.653   9.267 -0.6760 -0.3844 -0.3867
 5378TIP3    H240330   4.341   4.553   9.209  0.3092  0.7662 -0.7511
 5379TIP3   OH240331   1.966   5.880   6.361  0.3248  0.3108  0.1276
 5379TIP3    H140332   1.883   5.834   6.370  0.4511 -0.0521 -0.5480
 5379TIP3    H240333   2.009   5.840   6.286  1.7971 -0.5783  1.3586
 5380TIP3   OH240334   0.000   6.177   7.182  0.9786  0.1681  0.3100
 5380TIP3    H140335  -0.032   6.133   7.104  2.2081 -0.9271  0.3803
 5380TIP3    H240336   0.028   6.264   7.152  1.0919 -0.1105 -0.4000
 5381TIP3   OH240337   6.369   0.865   8.220  0.0093 -0.2355 -0.3419
 5381TIP3    H140338   6.450   0.815   8.235  0.1845 -0.1960 -1.1112
 5381TIP3    H240339   6.373   0.889   8.127 -0.3966  0.6460 -0.1333
 5382TIP3   OH240340   1.268   5.095   8.756 -0.7314 -0.3381 -0.1411
 5382TIP3    H140341   1.316   5.103   8.839 -1.2192 -2.7683  0.4492
 5382TIP3    H240342   1.176   5.094   8.782 -0.9462  0.2048 -0.8637
 5383TIP3   OH240343   5.378   6.233   9.303 -0.5734  0.0464  0.2950
 5383TIP3    H140344   5.444   6.197   9.245  0.2602  0.5509  0.9127
 5383TIP3    H240345   5.359   6.163   9.365  0.6525  0.4582  1.1658
 5384TIP3   OH240346   5.605   0.688   9.294 -0.1687  0.1942 -0.4114
 5384TIP3    H140347   5.537   0.626   9.265  0.4647 -0.4117 -0.6112
 5384TIP3    H240348   5.606   0.679   9.389 -1.7814  1.6995 -0.1918
 5385TIP3   OH240349   6.859   3.850   8.616  0.5309  0.3555  0.3921
 5385TIP3    H140350   6.923   3.807   8.674  0.8851  2.4396  1.6739
 5385TIP3    H240351   6.829   3.926   8.667 -2.2602  0.0017 -0.5702
 5386TIP3   OH240352   2.258   3.825   9.041  0.2864  0.8727  0.0992
 5386TIP3    H140353   2.293   3.760   9.103  0.7575  0.6227 -0.4294
 5386TIP3    H240354   2.277   3.909   9.082  1.3105  0.7344 -0.0722
 5387TIP3   OH240355   7.300   3.544   9.426  0.3357  0.0100  0.4908
 5387TIP3    H140356   7.365   3.478   9.402 -0.1963 -0.1728 -0.5148
 5387TIP3    H240357   7.351   3.615   9.463  1.1715  0.0686 -0.7030
 5388TIP3   OH240358   5.154   3.324   9.767  0.3835  0.1855  0.1344
 5388TIP3    H140359   5.213   3.259   9.728 -0.9488 -0.0375 -1.5933
 5388TIP3    H240360   5.170   3.404   9.718  0.5062  0.6033  0.8499
 5389TIP3   OH240361   4.219   3.149   7.266  0.3483 -0.2801  0.0800
 5389TIP3    H140362   4.204   3.203   7.344 -2.4336  0.7943 -1.0914
 5389TIP3    H240363   4.222   3.211   7.194  0.8796 -1.4334 -0.9259
 5390TIP3   OH240364   5.398   5.751   8.434  0.2411 -0.5674  0.0279
 5390TIP3    H140365   5.493   5.758   8.430  0.6798 -4.4160 -0.1507
 5390TIP3    H240366   5.376   5.688   8.365 -2.1278 -1.6289  1.6200
 5391TIP3   OH240367   1.946   0.768   1.137  0.1255  0.2268  0.1935
 5391TIP3    H140368   1.912   0.856   1.121 -0.8628  0.0001  0.9548
 5391TIP3    H240369   1.985   0.772   1.224 -0.3946 -0.2214  0.4510
 5392TIP3   OH240370   2.292   4.692   1.244 -0.0709 -0.1698  0.3104
 5392TIP3    H140371   2.295   4.781   1.209  0.3058 -0.0603  0.6141
 5392TIP3    H240372   2.317   4.701   1.336  1.7898 -0.7977 -0.0961
 5393TIP3   OH240373   7.388   0.626   2.066  0.1307 -0.0676  0.6114
 5393TIP3    H140374   7.479   0.631   2.096  0.8898 -1.3028 -1.2718
 5393TIP3    H240375   7.356   0.542   2.099 -1.0148  1.1354  2.8169
 5394TIP3   OH240376   3.006   7.179   2.814 -0.1977  0.6281  0.4774
 5394TIP3    H140377   3.043   7.095   2.784 -1.0770  0.4055 -0.0228
 5394TIP3    H240378   3.077   7.242   2.804  0.2404  0.0848  0.1371
 5395TIP3   OH240379   4.008   1.988   0.904 -0.3240  0.2117  0.3633
 5395TIP3    H140380   4.011   1.930   0.980  0.8244 -2.0785 -1.3148
 5395TIP3    H240381   4.099   2.010   0.887 -0.5182  0.2440 -0.6632
 5396TIP3   OH240382   0.483   3.873   0.953  0.0215  0.3902  0.0294
 5396TIP3    H140383   0.521   3.788   0.973  0.8849  0.9437  0.8408
 5396TIP3    H240384   0.431   3.895   1.031 -1.0674  0.1412 -0.6122
 5397TIP3   OH240385   6.048   0.499   3.517  0.5770 -0.4588  0.7589
 5397TIP3    H140386   5.970   0.545   3.485 -0.0671 -2.1332 -0.1753
 5397TIP3    H240387   6.014   0.427   3.570  1.4698 -1.3393  0.1559
 5398TIP3   OH240388   4.772   5.762   2.761  0.2139  0.5859 -0.2263
 5398TIP3    H140389   4.774   5.672   2.728 -1.2328  0.3956  0.1655
 5398TIP3    H240390   4.861   5.777   2.793  0.1991 -1.0954  0.7333
 5399TIP3   OH240391   4.928   1.369   1.203  0.8571 -0.0394 -0.0985
 5399TIP3    H140392   4.925   1.295   1.264  1.4466  0.8810  1.0823
 5399TIP3    H240393   5.018   1.400   1.207  0.6227  0.7347 -0.6005
 5400TIP3   OH240394   2.272   5.867   1.414  0.1888 -0.3665  0.8469
 5400TIP3    H140395   2.198   5.921   1.383  0.1919 -0.6004  0.4208
 5400TIP3    H240396   2.231   5.798   1.466  0.0751 -0.7093  0.3050
 5401TIP3   OH240397   3.235   7.393   2.351  0.3750  1.0758  0.7854
 5401TIP3    H140398   3.257   7.378   2.442 -0.0503 -1.5828  0.5372
 5401TIP3    H240399   3.155   7.342   2.337  1.3142  0.0480 -1.4291
 5402TIP3   OH240400   3.394   5.132   0.635  0.3379  0.7852 -0.3329
 5402TIP3    H140401   3.436   5.073   0.573  0.8531  0.5525  0.2334
 5402TIP3    H240402   3.301   5.113   0.627  0.0625  2.7285 -3.1092
 5403TIP3   OH240403   3.886   2.640   1.535 -0.3373  0.1511 -0.0131
 5403TIP3    H140404   3.904   2.645   1.629 -2.2773 -0.8825  0.4731
 5403TIP3    H240405   3.911   2.551   1.510  0.1020  0.3991 -0.4550
 5404TIP3   OH240406   6.073   2.857   2.933 -0.1527  0.9604 -0.1230
 5404TIP3    H140407   6.085   2.931   2.874 -1.3155  1.4328  0.2057
 5404TIP3    H240408   6.159   2.815   2.938 -0.0526  0.8226 -2.2444
 5405TIP3   OH240409   6.058   1.726   1.316  0.0433 -0.7865 -0.3233
 5405TIP3    H140410   6.148   1.756   1.298 -0.6924  1.7348 -0.2249
 5405TIP3    H240411   6.059   1.704   1.409  0.5263 -0.5717 -0.2687
 5406TIP3   OH240412   1.738   1.774   0.534 -0.6997 -0.1506 -0.2938
 5406TIP3    H140413   1.767   1.683   0.526 -1.6773 -0.5032  0.0206
 5406TIP3    H240414   1.793   1.811   0.604 -0.9685 -0.7912  0.2678
 5407TIP3   OH240415   3.355   4.198   2.367 -0.1741 -0.6435 -0.4576
 5407TIP3    H140416   3.305   4.121   2.340 -0.3109 -1.0233  0.8093
 5407TIP3    H240417   3.293   4.270   2.363 -1.0495 -1.2070  1.6513
 5408TIP3   OH240418   1.045   3.202   0.891  0.1801 -0.1810 -0.2045
 5408TIP3    H140419   1.025   3.289   0.856 -0.7235 -0.0109  0.7076
 5408TIP3    H240420   1.119   3.215   0.949 -0.5107  0.1509  0.6196
 5409TIP3   OH240421   1.871   1.505   1.908  0.6805  0.8616  0.1607
 5409TIP3    H140422   1.812   1.480   1.836  1.2345  1.7359 -0.6198
 5409TIP3    H240423   1.866   1.432   1.969  1.9846 -1.0515 -1.8746
 5410TIP3   OH240424   2.428   6.103   1.566 -0.5971 -0.3781 -0.0564
 5410TIP3    H140425   2.404   6.191   1.536 -0.6556 -0.6610 -0.8390
 5410TIP3    H240426   2.349   6.051   1.555 -0.5908 -0.5126  0.4951
 5411TIP3   OH240427   7.040   1.965   3.122 -1.0428 -0.5299  0.3026
 5411TIP3    H140428   7.033   1.903   3.194 -0.6051 -0.2112  0.6267
 5411TIP3    H240429   7.111   1.931   3.068 -0.3681  0.0244  0.8257
 5412TIP3   OH240430   3.587   7.130   1.976 -0.2302 -0.2372 -0.1496
 5412TIP3    H140431   3.560   7.153   1.887  0.0940  0.7045 -0.0167
 5412TIP3    H240432   3.641   7.204   2.004 -0.1071 -0.6542  0.7319
 5413TIP3   OH240433   5.404   0.459   1.179 -0.3901  0.0596  0.4662
 5413TIP3    H140434   5.410   0.390   1.112  1.5540 -0.6277  1.2941
 5413TIP3    H240435   5.341   0.424   1.242 -0.9850 -0.0189 -0.1540
 5414TIP3   OH240436   1.644   5.294   1.651  0.2166 -0.4421  0.7479
 5414TIP3    H140437   1.595   5.213   1.644 -0.8780  0.2758 -0.2131
 5414TIP3    H240438   1.690   5.302   1.568 -2.1031  1.3878 -0.4728
 5415TIP3   OH240439   7.479   1.827   0.626  0.0397 -0.4526 -0.2073
 5415TIP3    H140440   7.434   1.898   0.580  0.7544  1.2683  1.6068
 5415TIP3    H240441   7.427   1.749   0.606  0.0729  0.2189 -3.4878
 5416TIP3   OH240442   0.721   4.332   0.752 -0.4718 -0.1146  0.2186
 5416TIP3    H140443   0.686   4.256   0.798  0.8587 -1.0827 -0.3085
 5416TIP3    H240444   0.659   4.348   0.681 -1.2294 -0.1207  0.8551
 5417TIP3   OH240445   3.342   7.128   1.052  0.4898 -0.4624 -0.0551
 5417TIP3    H140446   3.288   7.086   1.119 -0.2580 -0.3971 -0.6003
 5417TIP3    H240447   3.398   7.057   1.019  2.6198  0.0097  2.2849
 5418TIP3   OH240448   0.686   6.072   2.136 -0.0336 -0.5420 -0.1590
 5418TIP3    H140449   0.669   5.983   2.107  1.4928 -0.9450  0.0900
 5418TIP3    H240450   0.602   6.103   2.170 -0.8786 -1.4441 -1.3465
 5419TIP3   OH240451   4.695   0.162   2.063 -0.6411  0.1605 -0.0134
 5419TIP3    H140452   4.651   0.227   2.119  0.1778  0.4344  0.3327
 5419TIP3    H240453   4.764   0.126   2.119  1.1344  1.4668 -1.2336
 5420TIP3   OH240454   3.797   3.491   2.723  0.0311  0.5249 -0.4331
 5420TIP3    H140455   3.783   3.561   2.659  1.4328  0.2705 -1.0693
 5420TIP3    H240456   3.863   3.435   2.682 -0.6404 -0.8530  0.3193
 5421TIP3   OH240457   7.020   7.352   2.015  0.9347 -0.6969 -0.0837
 5421TIP3    H140458   7.079   7.284   2.049  1.1545 -0.7849 -0.6233
 5421TIP3    H240459   7.078   7.422   1.986  0.7057 -0.2446  0.5151
 5422TIP3   OH240460   2.392   1.013   1.627  0.0978 -0.5415 -0.4391
 5422TIP3    H140461   2.365   1.056   1.708  3.2043 -1.4067  1.2073
 5422TIP3    H240462   2.327   1.042   1.562 -2.3111  0.5065  2.1953
 5423TIP3   OH240463   7.519   7.430   1.267 -0.4708 -0.4245  0.0509
 5423TIP3    H140464   7.556   7.377   1.196 -0.2628 -2.2078  1.4111
 5423TIP3    H240465   7.440   7.382   1.293 -0.9342  0.5955  0.5511
 5424TIP3   OH240466   3.692   2.085   3.108 -0.3591  0.7260 -0.4230
 5424TIP3    H140467   3.692   2.026   3.184 -0.9146  0.7161 -0.4275
 5424TIP3    H240468   3.606   2.072   3.068 -0.2921  1.1744 -0.7137
 5425TIP3   OH240469   4.933   1.307   2.006  0.1881  0.1336  0.2815
 5425TIP3    H140470   4.997   1.244   1.974 -0.4199 -0.4773  0.2596
 5425TIP3    H240471   4.970   1.339   2.089  1.0892  0.6818 -0.3034
 5426TIP3   OH240472   4.724   3.515   3.316  0.0202 -0.2387 -0.1682
 5426TIP3    H140473   4.748   3.607   3.325 -1.2911  0.0581  0.5717
 5426TIP3    H240474   4.713   3.503   3.221  1.6412 -0.0457 -0.4005
 5427TIP3   OH240475   0.762   1.388   2.598  0.3604  0.1065 -0.1838
 5427TIP3    H140476   0.783   1.307   2.553  0.0025 -1.5834  2.4603
 5427TIP3    H240477   0.847   1.424   2.623  0.4927  0.1996 -0.7505
 5428TIP3   OH240478   4.364   1.247   1.012  0.5525 -0.2747  0.3603
 5428TIP3    H140479   4.418   1.322   0.989  1.1704 -0.4569  1.1490
 5428TIP3    H240480   4.295   1.283   1.068  1.2114 -0.3618  1.2594
 5429TIP3   OH240481   0.673   4.671   2.083  0.2411 -1.1636 -0.0000
 5429TIP3    H140482   0.755   4.709   2.115  1.1357 -2.6497 -0.4383
 5429TIP3    H240483   0.616   4.668   2.160 -0.3286  2.0682 -0.1592
 5430TIP3   OH240484   2.015   4.287   2.399  0.1886  0.4273 -0.0619
 5430TIP3    H140485   2.026   4.240   2.316  0.7147  1.0926 -0.3882
 5430TIP3    H240486   2.043   4.377   2.379 -0.3461  0.7667  0.6590
 5431TIP3   OH240487   2.252   6.847   0.424  0.0689  0.4676 -0.0538
 5431TIP3    H140488   2.296   6.805   0.351  0.2465  2.3281 -1.0634
 5431TIP3    H240489   2.321   6.866   0.487  0.0303 -0.4387  0.2773
 5432TIP3   OH240490   0.961   6.546   0.757  0.5825  0.0916 -0.3227
 5432TIP3    H140491   0.897   6.482   0.789  1.0955  0.2433  1.0665
 5432TIP3    H240492   1.006   6.500   0.686  0.9355 -1.1188  0.6374
 5433TIP3   OH240493   0.369   7.258   1.985  0.8852 -0.6669  0.2979
 5433TIP3    H140494   0.351   7.284   1.894  1.3126 -1.0435  0.1030
 5433TIP3    H240495   0.340   7.167   1.989 -0.2341 -0.3030  0.8684
 5434TIP3   OH240496   5.675   3.224   3.114 -0.1899  0.4010 -0.7253
 5434TIP3    H140497   5.622   3.271   3.178  0.7833  0.4494  0.0681
 5434TIP3    H240498   5.735   3.171   3.167 -1.9816 -2.6873 -1.5429
 5435TIP3   OH240499   4.628   0.695   2.989  0.0484 -0.5986 -0.8570
 5435TIP3    H140500   4.661   0.759   3.052  0.2997 -0.7929 -0.7904
 5435TIP3    H240501   4.599   0.621   3.042 -0.5208 -0.4256 -0.9110
 5436TIP3   OH240502   4.741   4.037   1.215  0.1881  0.5174 -0.1865
 5436TIP3    H140503   4.704   4.123   1.237 -0.0325  1.0748 -2.4303
 5436TIP3    H240504   4.745   3.990   1.298 -0.0156  2.5684  1.0475
 5437TIP3   OH240505   6.573   0.447   2.463 -0.1496  0.1380 -0.3719
 5437TIP3    H140506   6.519   0.478   2.536 -0.7052 -0.4043 -0.5445
 5437TIP3    H240507   6.538   0.361   2.442  2.1787 -1.2516  0.9518
 5438TIP3   OH240508   6.973   6.696   1.769 -0.0286 -0.5456  0.5465
 5438TIP3    H140509   6.990   6.609   1.807  1.2157  0.2900  2.0159
 5438TIP3    H240510   6.974   6.755   1.844  1.3492  1.0480 -0.6504
 5439TIP3   OH240511   5.041   2.981   2.529 -0.4543  0.2651 -0.4631
 5439TIP3    H140512   5.119   3.008   2.481  0.5964  1.1243  1.5916
 5439TIP3    H240513   4.980   3.054   2.518 -0.1738  0.5111 -0.3849
 5440TIP3   OH240514   5.856   5.013   1.710  0.5735  0.2678 -0.1803
 5440TIP3    H140515   5.903   4.996   1.629 -0.3241 -0.3541 -0.5965
 5440TIP3    H240516   5.874   4.937   1.765  1.7366  1.0079  0.4873
 5441TIP3   OH240517   0.404   1.086   0.761  0.3405  0.5080 -0.3827
 5441TIP3    H140518   0.397   1.155   0.827  1.8808  1.8500 -1.5478
 5441TIP3    H240519   0.320   1.040   0.765  0.0374  1.1355  1.8255
 5442TIP3   OH240520   6.900   5.606   0.953  0.0815 -0.4302  0.1141
 5442TIP3    H140521   6.854   5.597   0.869  0.7595  1.9233 -0.5822
 5442TIP3    H240522   6.992   5.617   0.930 -0.0045  3.1222  0.8308
 5443TIP3   OH240523   1.291   0.192   1.861 -0.1365  0.3580  0.3163
 5443TIP3    H140524   1.254   0.229   1.781 -1.2176  0.9635  1.0782
 5443TIP3    H240525   1.386   0.197   1.848 -0.2941  0.5895 -0.8510
 5444TIP3   OH240526   5.992   1.322   2.615  0.2868  0.0048  0.2664
 5444TIP3    H140527   6.060   1.340   2.550  0.5808  0.9463  0.8048
 5444TIP3    H240528   5.948   1.406   2.627  0.1885 -0.1735  1.2206
 5445TIP3   OH240529   5.679   4.101   2.196 -0.4342  0.4119  0.0751
 5445TIP3    H140530   5.707   4.190   2.175  1.2107 -0.4913 -1.8262
 5445TIP3    H240531   5.625   4.074   2.122  1.0912 -0.9826 -0.5848
 5446TIP3   OH240532   3.947   1.495   0.589  0.1902 -0.8115  0.2862
 5446TIP3    H140533   4.039   1.467   0.593  0.7949  1.0369  0.4271
 5446TIP3    H240534   3.900   1.431   0.641  1.3586 -1.9417  0.0117
 5447TIP3   OH240535   5.525   5.973   3.110  0.2364  0.3249 -0.1648
 5447TIP3    H140536   5.586   5.954   3.039  0.3748 -0.0226  0.0420
 5447TIP3    H240537   5.443   5.930   3.083  0.3597 -0.0154 -0.0030
 5448TIP3   OH240538   0.274   3.990   1.121  0.0006 -0.3386  0.4684
 5448TIP3    H140539   0.229   3.913   1.156  0.9955 -1.0038  0.3249
 5448TIP3    H240540   0.211   4.028   1.059  0.2583 -2.2626 -1.0655
 5449TIP3   OH240541   4.984   6.357   3.212  0.5160  0.1691 -0.0843
 5449TIP3    H140542   4.962   6.446   3.241  1.3285  0.4577 -0.3077
 5449TIP3    H240543   5.053   6.329   3.273  0.1620 -0.3634  0.0737
 5450TIP3   OH240544   5.456   6.138   2.233  0.1144  0.1877  0.1961
 5450TIP3    H140545   5.505   6.220   2.234  0.3343  0.0587  0.1286
 5450TIP3    H240546   5.511   6.078   2.182  0.0916 -0.0823  0.4854
 5451TIP3   OH240547   0.182   2.939   0.725  0.7505  0.0605  0.2183
 5451TIP3    H140548   0.126   2.864   0.704 -3.3659  3.3723 -2.2891
 5451TIP3    H240549   0.169   2.953   0.819 -0.3815 -0.9621  0.2443
 5452TIP3   OH240550   7.549   4.416   0.846  0.4560  0.6263  0.0464
 5452TIP3    H140551   7.523   4.356   0.776 -0.6777  0.5479  0.5084
 5452TIP3    H240552   7.631   4.379   0.880 -0.5278 -1.0618  0.7464
 5453TIP3   OH240553   4.769   0.040   0.696  0.2182  0.3041 -0.1218
 5453TIP3    H140554   4.705   0.037   0.625  0.0769  3.0519 -0.2278
 5453TIP3    H240555   4.832  -0.029   0.675 -1.4838 -0.9981 -1.2048
 5454TIP3   OH240556   2.165   1.320   1.272 -0.6329 -0.4519  0.5137
 5454TIP3    H140557   2.176   1.251   1.206 -1.4327 -0.6842  0.6134
 5454TIP3    H240558   2.187   1.401   1.226 -0.2261 -0.7110  0.2415
 5455TIP3   OH240559   0.426   1.589   3.163 -0.7427  0.1606  0.7823
 5455TIP3    H140560   0.482   1.529   3.113  1.4303  0.8088  2.3002
 5455TIP3    H240561   0.402   1.657   3.101  0.0345 -0.2199  0.0440
 5456TIP3   OH240562   2.630   7.500   0.581 -0.1012 -0.2948  0.3696
 5456TIP3    H140563   2.665   7.416   0.611 -2.4445 -0.8342  1.8560
 5456TIP3    H240564   2.591   7.538   0.659 -1.3771  0.9595 -0.8370
 5457TIP3   OH240565   0.793   3.780   0.684  0.1303  0.0271  1.0191
 5457TIP3    H140566   0.887   3.771   0.674  0.1235  0.7808  0.1168
 5457TIP3    H240567   0.759   3.773   0.595 -0.5626  0.7715  1.2077
 5458TIP3   OH240568   2.265   4.412   1.265 -0.1585 -0.4125 -0.3634
 5458TIP3    H140569   2.262   4.502   1.231  0.0640 -0.1151  0.3940
 5458TIP3    H240570   2.310   4.420   1.349  1.1457 -1.4356 -0.9325
 5459TIP3   OH240571   6.752   1.861   2.465  0.2148  0.0019 -0.2231
 5459TIP3    H140572   6.831   1.810   2.448 -0.0372 -0.1973 -0.8369
 5459TIP3    H240573   6.704   1.858   2.382 -1.1782 -1.1901  0.5850
 5460TIP3   OH240574   4.411   5.060   1.451 -0.1742  0.0509 -0.0533
 5460TIP3    H140575   4.499   5.090   1.474 -0.3054  0.7045 -0.3766
 5460TIP3    H240576   4.418   5.035   1.359 -0.7884  1.9802 -0.6556
 5461TIP3   OH240577   4.390   7.181   1.931 -0.5034 -0.2208 -0.6673
 5461TIP3    H140578   4.451   7.107   1.924  0.5760  0.5281  0.4418
 5461TIP3    H240579   4.440   7.256   1.899 -0.5179  0.5653  1.0795
 5462TIP3   OH240580   2.795   4.202   1.607  0.4965  0.0618 -0.1215
 5462TIP3    H140581   2.730   4.201   1.537  1.9524 -1.4310 -1.5078
 5462TIP3    H240582   2.783   4.119   1.653 -0.3856  0.9798  1.4356
 5463TIP3   OH240583   1.560   3.151   0.977 -0.0935 -0.0293 -0.2756
 5463TIP3    H140584   1.608   3.068   0.982  0.8073  0.5055  0.2393
 5463TIP3    H240585   1.571   3.180   0.887  0.2973 -0.0597 -0.2384
 5464TIP3   OH240586   0.215   4.231   0.909 -0.3669 -0.0347  0.4434
 5464TIP3    H140587   0.182   4.164   0.850 -2.8692 -1.0825  2.8110
 5464TIP3    H240588   0.279   4.280   0.857  0.9480 -3.6273 -1.6723
 5465TIP3   OH240589   0.429   6.675   1.291  0.1927 -0.1525  0.5714
 5465TIP3    H140590   0.380   6.620   1.351 -0.6565  1.5253  1.4777
 5465TIP3    H240591   0.382   6.668   1.208  1.9407 -3.2831 -0.3410
 5466TIP3   OH240592   1.181   3.633   2.075  0.2769 -0.2109  0.3060
 5466TIP3    H140593   1.218   3.551   2.041  3.4459  1.2698 -0.1924
 5466TIP3    H240594   1.187   3.624   2.170  1.1043 -0.3749  0.2463
 5467TIP3   OH240595   7.459   7.108   1.561 -0.2248 -0.3461 -0.4639
 5467TIP3    H140596   7.509   7.061   1.628 -1.7837 -1.6309 -0.1263
 5467TIP3    H240597   7.511   7.186   1.542  0.7846 -0.4800  1.4675
 5468TIP3   OH240598   5.589   0.182   1.149  0.1252 -0.1351  0.2219
 5468TIP3    H140599   5.512   0.207   1.100  1.1049  0.9530 -0.8203
 5468TIP3    H240600   5.585   0.086   1.153 -0.1021 -0.2552 -1.8236
 5469TIP3   OH240601   5.683   3.043   2.793  0.2087  0.3888 -0.3337
 5469TIP3    H140602   5.630   3.120   2.771  0.0051  0.2684 -0.2602
 5469TIP3    H240603   5.649   3.013   2.877 -0.1574 -0.1778 -0.6768
 5470TIP3   OH240604   4.216   7.070   0.883  0.5315  0.5225 -0.3242
 5470TIP3    H140605   4.170   7.021   0.815 -0.5600 -1.2951  1.6110
 5470TIP3    H240606   4.158   7.143   0.905  0.1038  0.1463 -0.1975
 5471TIP3   OH240607   4.780   4.829   2.030 -0.7139  0.1434 -0.0576
 5471TIP3    H140608   4.735   4.912   2.046 -1.1471  0.0093 -0.5614
 5471TIP3    H240609   4.849   4.850   1.968  0.9285  0.6512  1.8658
 5472TIP3   OH240610   2.849   6.539   1.361  0.0217  0.0321 -0.8073
 5472TIP3    H140611   2.847   6.627   1.324  0.7636  0.9533  1.2362
 5472TIP3    H240612   2.899   6.488   1.297  0.1581  1.2467 -1.6986
 5473TIP3   OH240613   1.624   6.020   2.143 -0.0033  0.1938 -0.1318
 5473TIP3    H140614   1.598   5.932   2.172 -1.1371  0.4118 -0.4308
 5473TIP3    H240615   1.670   6.057   2.219  0.2120 -0.5369  0.1087
 5474TIP3   OH240616   1.684   2.391   0.901  0.5481 -0.1523 -0.0349
 5474TIP3    H140617   1.723   2.462   0.850 -0.0143 -0.0830 -0.3833
 5474TIP3    H240618   1.607   2.365   0.850  0.9417 -1.2581 -0.1030
 5475TIP3   OH240619   3.953   1.038   2.584 -0.0748 -0.4308 -0.2297
 5475TIP3    H140620   4.002   1.072   2.659  2.0292 -2.0474 -0.7731
 5475TIP3    H240621   3.890   0.977   2.622 -1.4551  1.3238  0.4397
 5476TIP3   OH240622   0.383   5.877   2.343  0.1514  0.2717  0.0279
 5476TIP3    H140623   0.352   5.791   2.313  0.3635 -0.1675  1.0140
 5476TIP3    H240624   0.379   5.871   2.438 -2.7794  2.4320  0.1718
 5477TIP3   OH240625   1.771   4.047   2.257 -0.2874  0.6538 -0.1924
 5477TIP3    H140626   1.784   4.142   2.250 -0.8522  0.7235 -0.3476
 5477TIP3    H240627   1.754   4.033   2.350 -2.0967  0.9700 -0.4370
 5478TIP3   OH240628   6.924   0.160   1.939  0.5442  0.2859 -0.0608
 5478TIP3    H140629   6.994   0.102   1.972 -2.2035 -2.3463  1.6754
 5478TIP3    H240630   6.916   0.137   1.847  1.7648  0.4633 -0.2342
 5479TIP3   OH240631   0.340   0.119   1.068 -0.1912 -0.1775  0.3355
 5479TIP3    H140632   0.302   0.046   1.019  0.3296  0.3889 -0.9675
 5479TIP3    H240633   0.284   0.127   1.146 -1.3298 -0.8262 -0.3778
 5480TIP3   OH240634   4.974   0.580   0.665 -0.4692  0.0458  0.3288
 5480TIP3    H140635   5.010   0.534   0.589 -1.2549 -0.4569  0.2577
 5480TIP3    H240636   5.050   0.590   0.724  0.2212  0.7557 -0.6591
 5481TIP3   OH240637   0.319   5.269   1.797 -0.3046 -0.0232  0.4261
 5481TIP3    H140638   0.251   5.265   1.864 -0.4708 -0.6938  0.2317
 5481TIP3    H240639   0.379   5.338   1.826  0.1539 -0.9519  1.7701
 5482TIP3   OH240640   4.608   3.457   1.581 -0.0240  0.1940 -0.3026
 5482TIP3    H140641   4.561   3.503   1.651  1.9376  1.7009  0.1108
 5482TIP3    H240642   4.541   3.403   1.539 -1.2736 -0.7660  2.6878
 5483TIP3   OH240643   0.917   3.974   0.850 -0.6369 -0.5927  1.0443
 5483TIP3    H140644   0.854   3.924   0.798 -0.3217  1.6114 -1.7193
 5483TIP3    H240645   0.867   4.048   0.883 -0.6723 -1.6407  3.5446
 5484TIP3   OH240646   0.002   5.632   0.364 -0.1937 -0.3378  0.2921
 5484TIP3    H140647  -0.077   5.601   0.409 -0.3030 -1.3746 -0.5595
 5484TIP3    H240648  -0.007   5.727   0.362 -1.6572 -0.4545 -0.1876
 5485TIP3   OH240649   5.677   1.032   1.236 -0.2784  0.4621 -0.3587
 5485TIP3    H140650   5.723   0.958   1.275 -0.8004 -0.1796 -0.9373
 5485TIP3    H240651   5.694   1.105   1.296  2.5784  0.6036 -1.2081
 5486TIP3   OH240652   3.539   2.450   2.098 -0.3182 -0.3010 -0.4368
 5486TIP3    H140653   3.569   2.412   2.180 -1.9893 -0.0707  0.3162
 5486TIP3    H240654   3.545   2.545   2.111 -1.0077 -0.2548 -0.3928
 5487TIP3   OH240655   1.262   4.114   0.403  0.2785 -0.2537 -0.0834
 5487TIP3    H140656   1.237   4.191   0.352  1.3822 -0.4648 -0.9758
 5487TIP3    H240657   1.301   4.149   0.483 -1.6413  0.0811  0.7581
 5488TIP3   OH240658   0.257   5.856   2.021  0.2672 -0.2892 -0.8794
 5488TIP3    H140659   0.283   5.945   2.046 -1.7279  0.0135  0.3262
 5488TIP3    H240660   0.267   5.854   1.926  1.3083  0.8883 -0.8210
 5489TIP3   OH240661   3.288   3.155   1.155  0.3751 -0.1957  0.5524
 5489TIP3    H140662   3.218   3.095   1.181  0.6223 -0.8644 -0.2876
 5489TIP3    H240663   3.326   3.185   1.238 -1.7513  1.2628  1.1072
 5490TIP3   OH240664   5.872   1.372   1.868 -0.0680  0.0823  0.5349
 5490TIP3    H140665   5.945   1.317   1.896  0.8809  1.3021  0.5181
 5490TIP3    H240666   5.865   1.439   1.935  0.8582  1.7958 -0.9793
 5491TIP3   OH240667   5.626   6.034   1.621  0.2047  0.0791  0.4150
 5491TIP3    H140668   5.625   5.943   1.591  0.3301  0.7501 -1.7596
 5491TIP3    H240669   5.534   6.061   1.618  0.2099  0.1334  0.7258
 5492TIP3   OH240670   7.027   1.622   1.684 -0.3084 -0.0213  0.0799
 5492TIP3    H140671   6.941   1.639   1.647 -0.8153 -0.5623  0.9631
 5492TIP3    H240672   7.050   1.702   1.732  0.9839  1.2450 -2.4677
 5493TIP3   OH240673   2.385   2.658   0.645  0.0659 -0.0235 -1.0982
 5493TIP3    H140674   2.319   2.650   0.575 -1.3710 -0.0946  0.2174
 5493TIP3    H240675   2.466   2.679   0.599 -0.8358 -0.0756 -2.7924
 5494TIP3   OH240676   0.437   1.984   2.306  0.3837  0.1488 -0.1582
 5494TIP3    H140677   0.440   2.038   2.385  0.2742  1.4368 -1.0024
 5494TIP3    H240678   0.431   1.894   2.339  1.6497  0.5494  1.2965
 5495TIP3   OH240679   6.989   6.079   1.959  0.3222 -0.0452  0.1453
 5495TIP3    H140680   6.979   6.122   2.044  2.3321 -1.2018  1.0330
 5495TIP3    H240681   6.924   6.010   1.959 -1.1821  1.3041 -0.2252
 5496TIP3   OH240682   3.967   5.884   3.247  0.3370  0.3578  0.1882
 5496TIP3    H140683   3.949   5.946   3.176 -0.6867 -0.7408 -0.5571
 5496TIP3    H240684   3.947   5.932   3.327 -1.1927  0.7700 -0.4163
 5497TIP3   OH240685   6.246   6.413   0.610 -0.2234 -0.4754 -0.1218
 5497TIP3    H140686   6.164   6.463   0.611 -0.1688 -0.3666 -0.6145
 5497TIP3    H240687   6.220   6.325   0.582 -0.0485 -0.1918 -1.2149
 5498TIP3   OH240688   6.398   1.799   0.767 -0.1237 -0.6241 -0.0912
 5498TIP3    H140689   6.411   1.894   0.767 -1.8849 -0.3452  1.0171
 5498TIP3    H240690   6.335   1.784   0.695 -0.2305 -0.8840  0.0558
 5499TIP3   OH240691   5.231   3.758   3.662  0.0783 -0.5636  0.1867
 5499TIP3    H140692   5.266   3.670   3.651  0.5501 -0.3193 -0.3241
 5499TIP3    H240693   5.138   3.745   3.677 -0.0346 -1.1178 -0.8504
 5500TIP3   OH240694   4.401   7.261   2.225  0.4466  0.5354 -0.3375
 5500TIP3    H140695   4.326   7.283   2.280  0.9381  2.6150 -0.4054
 5500TIP3    H240696   4.364   7.245   2.139 -0.0249  0.3590 -0.1057
 5501TIP3   OH240697   1.995   5.680   1.038  0.1194  0.2087 -0.1529
 5501TIP3    H140698   2.020   5.653   1.126 -0.9384 -0.4559 -0.0255
 5501TIP3    H240699   1.952   5.765   1.050 -1.1904 -0.4696  0.1793
 5502TIP3   OH240700   1.177   2.253   0.804  0.0263  0.2498 -0.0210
 5502TIP3    H140701   1.119   2.250   0.727  0.1482 -2.8172 -0.1140
 5502TIP3    H240702   1.121   2.284   0.875 -1.0770 -0.2763 -0.6302
 5503TIP3   OH240703   5.178   0.084   2.320 -0.1640 -0.3855 -0.3389
 5503TIP3    H140704   5.094   0.089   2.365  0.3003 -3.3663  1.1117
 5503TIP3    H240705   5.163   0.024   2.247  0.5604 -0.4662 -0.4284
 5504TIP3   OH240706   4.574   0.660   2.693  0.0581 -0.3726  0.4695
 5504TIP3    H140707   4.550   0.748   2.664  1.5528 -0.0177  0.2160
 5504TIP3    H240708   4.529   0.648   2.776  0.4888  0.9822  0.9225
 5505TIP3   OH240709   0.517   4.369   0.518  0.2261 -0.8028  0.0040
 5505TIP3    H140710   0.440   4.360   0.576  0.1910 -2.3219 -0.2479
 5505TIP3    H240711   0.526   4.283   0.477  1.4878 -0.3424 -0.7160
 5506TIP3   OH240712   0.347   1.147   2.723  0.0416 -0.2125 -0.5960
 5506TIP3    H140713   0.396   1.130   2.804  0.2124 -0.4809 -0.7515
 5506TIP3    H240714   0.388   1.225   2.686 -0.3058  0.1521 -0.2149
 5507TIP3   OH240715   2.515   1.422   2.368  0.3774 -0.3803  0.2404
 5507TIP3    H140716   2.428   1.461   2.357  1.6383  2.6806  0.2107
 5507TIP3    H240717   2.518   1.395   2.459 -0.3352  0.2137  0.4458
 5508TIP3   OH240718   0.769   1.173   0.841  0.0680  0.0686 -0.2790
 5508TIP3    H140719   0.717   1.164   0.922 -0.6315 -0.4984 -0.7831
 5508TIP3    H240720   0.815   1.256   0.853 -1.5018  0.9668 -0.1031
 5509TIP3   OH240721   1.605   4.560   2.086 -0.2717 -0.2910  0.1943
 5509TIP3    H140722   1.629   4.643   2.045  0.3840 -0.6879 -0.2368
 5509TIP3    H240723   1.578   4.585   2.175 -1.3271  0.5215 -0.3316
 5510TIP3   OH240724   6.829   5.485   1.558 -0.8381  0.0337  0.6643
 5510TIP3    H140725   6.750   5.457   1.511 -1.0524  2.0195 -0.2947
 5510TIP3    H240726   6.894   5.495   1.489  0.0634 -0.8954  1.3604
 5511TIP3   OH240727   6.599   6.578   2.503 -0.2450  0.1843 -0.0215
 5511TIP3    H140728   6.600   6.673   2.489  0.1928  0.1007 -0.5728
 5511TIP3    H240729   6.507   6.553   2.489 -0.2316  0.4241 -0.5511
 5512TIP3   OH240730   1.114   0.832   2.436  0.0482 -0.1067  0.2143
 5512TIP3    H140731   1.050   0.826   2.365  0.6587 -0.6621 -0.2908
 5512TIP3    H240732   1.064   0.870   2.509 -0.8729 -0.5615 -0.1573
 5513TIP3   OH240733   1.789   4.650   2.364  0.1578  0.1661  0.3230
 5513TIP3    H140734   1.737   4.730   2.356 -0.6099 -0.1592  1.7322
 5513TIP3    H240735   1.725   4.579   2.370  0.7793 -0.3694  0.8577
 5514TIP3   OH240736   5.594   4.733   1.815  0.2743 -0.6788 -0.0910
 5514TIP3    H140737   5.582   4.828   1.825  0.2297 -0.5718 -1.0722
 5514TIP3    H240738   5.634   4.705   1.897 -0.8668 -0.0163  0.7276
 5515TIP3   OH240739   1.544   6.810   0.998 -0.0621  0.5185  0.2540
 5515TIP3    H140740   1.484   6.795   0.925 -0.0989  1.3829  0.1020
 5515TIP3    H240741   1.602   6.879   0.969  0.5205  0.2339  0.7020
 5516TIP3   OH240742   3.610   5.364   0.513 -0.2916  0.5112 -0.5143
 5516TIP3    H140743   3.597   5.269   0.518  1.5771  0.1167 -1.9313
 5516TIP3    H240744   3.545   5.400   0.574 -1.6597 -1.5968 -0.6067
 5517TIP3   OH240745   3.888   1.225   9.285 -0.2557 -0.6209 -0.3098
 5517TIP3    H140746   3.927   1.151   9.333  0.8151  1.3429  2.0576
 5517TIP3    H240747   3.883   1.295   9.350 -1.4395  1.3546 -2.4102
 5518TIP3   OH240748   6.650   4.508   2.749  0.5004 -0.0613  0.9641
 5518TIP3    H140749   6.722   4.462   2.792  2.4351  2.0912  0.2001
 5518TIP3    H240750   6.692   4.574   2.695 -1.9400 -0.8529 -2.1814
 5519TIP3   OH240751   5.168   7.569   0.893 -0.1291  0.3461 -0.1657
 5519TIP3    H140752   5.080   7.532   0.902  0.7236 -1.8648 -0.1421
 5519TIP3    H240753   5.225   7.492   0.889  1.6482  1.6676 -1.9121
 5520TIP3   OH240754   6.636   1.741   1.316  0.1560 -0.6470 -0.4682
 5520TIP3    H140755   6.581   1.712   1.243  1.0397 -1.2225 -0.9066
 5520TIP3    H240756   6.724   1.745   1.280  0.3042  1.1099 -0.0046
 5521TIP3   OH240757   5.618   5.859   3.346 -0.3335 -0.2655  0.0088
 5521TIP3    H140758   5.540   5.809   3.371 -1.0707 -0.9160 -3.1827
 5521TIP3    H240759   5.597   5.895   3.260  2.1125  1.3767  0.0087
 5522TIP3   OH240760   3.774   1.332   0.365 -0.5549 -0.2730  0.3368
 5522TIP3    H140761   3.755   1.344   0.272 -2.7159 -1.6255  0.5432
 5522TIP3    H240762   3.869   1.317   0.368 -0.3120  0.6212 -1.5285
 5523TIP3   OH240763   2.986   5.233   0.746  0.0267 -0.7808 -0.4763
 5523TIP3    H140764   3.006   5.320   0.711  2.4891 -1.3662 -0.6889
 5523TIP3    H240765   3.002   5.173   0.673 -1.2671 -1.4779 -0.2239
 5524TIP3   OH240766   0.936   4.725   2.047 -0.5665  0.2204  0.0932
 5524TIP3    H140767   0.893   4.756   1.967 -0.6472 -1.3422 -0.5120
 5524TIP3    H240768   1.029   4.740   2.032 -0.5469 -0.4296 -0.4769
 5525TIP3   OH240769   2.038   4.884   2.261  0.5178 -0.8192  0.1487
 5525TIP3    H140770   2.045   4.937   2.181 -0.4629 -0.6310  0.1788
 5525TIP3    H240771   2.053   4.794   2.231  0.9736 -0.6694 -0.1001
 5526TIP3   OH240772   5.862   0.280   3.169 -0.3875 -0.3139 -0.2324
 5526TIP3    H140773   5.854   0.233   3.087 -1.8873 -1.1517  0.3566
 5526TIP3    H240774   5.789   0.342   3.169  1.2547  1.7443 -0.7647
 5527TIP3   OH240775   6.446   5.761   0.429 -0.2020  0.2269 -0.2619
 5527TIP3    H140776   6.506   5.708   0.376  0.5935  0.3428  0.4957
 5527TIP3    H240777   6.373   5.702   0.449  0.2116 -0.2871 -0.2316
 5528TIP3   OH240778   0.157   3.212   2.143  0.4274 -0.8296 -0.3134
 5528TIP3    H140779   0.134   3.208   2.236  2.2699 -1.5143  0.1683
 5528TIP3    H240780   0.182   3.122   2.121  0.4708 -0.5746 -1.3484
 5529TIP3   OH240781   1.101   5.496   8.873 -0.3509  0.5792 -0.3976
 5529TIP3    H140782   1.017   5.479   8.916  0.1555 -2.0181 -0.2336
 5529TIP3    H240783   1.129   5.581   8.907 -1.3413 -0.0396  2.2217
 5530TIP3   OH240784   4.304   1.374   1.993 -0.1495 -0.1280 -0.0512
 5530TIP3    H140785   4.263   1.422   2.065 -3.1265 -1.5761 -0.6012
 5530TIP3    H240786   4.380   1.426   1.969 -0.4616  1.6854  2.5048
 5531TIP3   OH240787   2.274   2.726   1.324  0.4519  0.6989 -0.1551
 5531TIP3    H140788   2.230   2.695   1.246  0.2474 -1.0598  0.6172
 5531TIP3    H240789   2.364   2.694   1.317 -0.0467 -1.1664  1.1752
 5532TIP3   OH240790   0.029   2.509   0.513  0.8401  0.8133  0.3433
 5532TIP3    H140791   0.086   2.516   0.437  0.6668 -0.9573  0.0095
 5532TIP3    H240792   0.077   2.452   0.574  0.3107  0.9582  0.9126
 5533TIP3   OH240793   4.337   0.269   2.388 -0.1431  0.4562  0.2034
 5533TIP3    H140794   4.299   0.244   2.472  0.7965  1.0142  0.8093
 5533TIP3    H240795   4.365   0.187   2.349 -0.1501  0.2359  0.6542
 5534TIP3   OH240796   4.703   3.920   2.480  0.2687 -0.5556 -0.5760
 5534TIP3    H140797   4.653   3.927   2.561  0.2953  1.8343 -0.7035
 5534TIP3    H240798   4.767   3.851   2.497 -0.7332 -1.1813  0.8487
 5535TIP3   OH240799   3.347   3.591   0.722  0.3643  0.2641 -0.5841
 5535TIP3    H140800   3.434   3.613   0.758 -0.0892  1.1445  0.0126
 5535TIP3    H240801   3.299   3.673   0.725 -0.6277 -0.3058 -0.5340
 5536TIP3   OH240802   5.427   5.684   2.815 -0.0115  0.1066  0.0101
 5536TIP3    H140803   5.442   5.777   2.799 -0.6367  0.1665 -0.2558
 5536TIP3    H240804   5.412   5.647   2.728 -0.4418 -0.1187  0.1802
 5537TIP3   OH240805   0.989   4.558   1.570  0.5648 -0.4390 -0.4450
 5537TIP3    H140806   1.017   4.634   1.520  1.4299  0.0278  0.7222
 5537TIP3    H240807   1.069   4.525   1.611 -0.0112 -1.2256  0.0755
 5538TIP3   OH240808   1.120   7.244   1.326 -0.3255 -0.4685 -0.2922
 5538TIP3    H140809   1.150   7.265   1.414 -0.7399  0.1162 -0.2814
 5538TIP3    H240810   1.037   7.197   1.340 -0.6094 -0.0033 -0.3709
 5539TIP3   OH240811   2.184   0.318   2.098 -0.0109  0.0650  0.1339
 5539TIP3    H140812   2.098   0.356   2.080  0.3805  1.1244  0.4603
 5539TIP3    H240813   2.183   0.301   2.192  0.1300  0.0462  0.1319
 5540TIP3   OH240814   1.974   5.871   0.778 -0.1610 -0.5769 -0.7697
 5540TIP3    H140815   1.919   5.793   0.783  0.9380 -1.2927  1.2024
 5540TIP3    H240816   2.040   5.858   0.846 -0.0220  2.1371 -0.2927
 5541TIP3   OH240817   2.725   5.150   0.790  0.5269 -0.3159  0.1503
 5541TIP3    H140818   2.713   5.233   0.744  0.6859 -0.4429 -0.1280
 5541TIP3    H240819   2.816   5.153   0.820  0.2604 -0.0034  0.9260
 5542TIP3   OH240820   5.440   4.466   2.713  0.0338 -0.3053  0.3214
 5542TIP3    H140821   5.456   4.449   2.806 -0.1012 -0.3956  0.3297
 5542TIP3    H240822   5.370   4.531   2.712 -0.5265 -0.8895  0.2819
 5543TIP3   OH240823   3.035   4.234   3.030 -0.1050 -0.7859 -0.9518
 5543TIP3    H140824   3.010   4.260   3.119 -0.4057 -2.7777 -0.4141
 5543TIP3    H240825   3.124   4.268   3.020  0.3394 -1.4321  0.5230
 5544TIP3   OH240826   3.003   6.630   1.053  0.7267 -0.2213  0.0149
 5544TIP3    H140827   3.016   6.535   1.060 -0.3103 -0.3894 -0.0928
 5544TIP3    H240828   3.079   6.661   1.004  1.5145 -0.8671  0.7888
 5545TIP3   OH240829   7.186   2.204   1.549 -0.0271 -0.0790  0.0539
 5545TIP3    H140830   7.227   2.262   1.613 -1.0795  0.1987  0.5053
 5545TIP3    H240831   7.116   2.258   1.510 -2.2730 -1.5286  1.7897
 5546TIP3   OH240832   3.721   2.941   2.717 -0.7516  0.7298 -0.3470
 5546TIP3    H140833   3.734   2.851   2.747 -0.7862  0.2696 -1.6412
 5546TIP3    H240834   3.667   2.982   2.785  0.3318  0.1689  0.8928
 5547TIP3   OH240835   3.248   6.786   1.555  0.1227  0.4093  0.4072
 5547TIP3    H140836   3.289   6.711   1.512 -0.1308 -0.0607  0.9685
 5547TIP3    H240837   3.227   6.846   1.483  2.0559  0.8177  0.1346
 5548TIP3   OH240838   2.783   6.439   3.057 -0.1929  0.4595 -0.1603
 5548TIP3    H140839   2.807   6.480   3.140  0.5292 -0.3487  0.0441
 5548TIP3    H240840   2.727   6.503   3.013  0.0299  1.1970  0.6236
 5549TIP3   OH240841   3.385   2.231   0.898  0.7963 -0.1501 -0.4058
 5549TIP3    H140842   3.429   2.313   0.920  1.8364 -0.6158 -0.6713
 5549TIP3    H240843   3.292   2.249   0.911  0.8177  1.6444 -2.2794
 5550TIP3   OH240844   4.387   3.918   1.927 -0.0150 -0.2857 -0.1876
 5550TIP3    H140845   4.467   3.970   1.939  0.7572 -1.4151 -0.2769
 5550TIP3    H240846   4.356   3.903   2.016 -0.1488  0.1811 -0.1522
 5551TIP3   OH240847   4.370   5.726   2.116  0.5471 -0.0728 -0.1546
 5551TIP3    H140848   4.446   5.770   2.080  1.0320 -1.8913 -1.4857
 5551TIP3    H240849   4.333   5.676   2.043 -3.5013  2.6302 -0.3230
 5552TIP3   OH240850   1.652   5.355   1.917 -0.0566  0.2781  0.4127
 5552TIP3    H140851   1.683   5.336   1.828 -1.1887 -0.1813  0.1024
 5552TIP3    H240852   1.567   5.313   1.922  0.4936 -0.7071  2.1194
 5553TIP3   OH240853   3.894   3.146   2.956  0.1994 -0.3303 -0.1264
 5553TIP3    H140854   3.826   3.211   2.940  2.2869  2.1562  0.2836
 5553TIP3    H240855   3.854   3.084   3.016 -1.1608  2.1686  1.7784
 5554TIP3   OH240856   5.329   2.725   0.423 -0.0386 -0.2092 -0.4262
 5554TIP3    H140857   5.260   2.663   0.397 -0.3398 -1.0769  2.2040
 5554TIP3    H240858   5.282   2.799   0.460  0.3622  1.2961 -2.7178
 5555TIP3   OH240859   2.755   6.138   0.523 -0.1896  0.4305  0.5014
 5555TIP3    H140860   2.764   6.098   0.610 -0.8009 -1.3353 -0.1963
 5555TIP3    H240861   2.817   6.210   0.523  0.3646 -0.0067  2.1528
 5556TIP3   OH240862   3.477   0.871   0.511 -0.3714 -0.3675 -0.4377
 5556TIP3    H140863   3.480   0.846   0.604 -0.4836  0.1762 -0.2820
 5556TIP3    H240864   3.554   0.926   0.498 -1.2753  1.0187 -0.2121
 5557TIP3   OH240865   2.661   3.966   2.398 -0.0832  0.3057 -0.1279
 5557TIP3    H140866   2.652   3.871   2.395 -1.0381  0.4114 -1.3482
 5557TIP3    H240867   2.754   3.982   2.381  0.2079 -0.4151  0.7056
 5558TIP3   OH240868   2.375   3.542   2.326 -0.0035  0.3975  0.2678
 5558TIP3    H140869   2.288   3.570   2.298 -0.0123  0.5367  0.4345
 5558TIP3    H240870   2.396   3.468   2.269  0.2083  1.0110 -0.4913
 5559TIP3   OH240871   4.364   2.216   1.377 -0.0257 -0.1531  0.3940
 5559TIP3    H140872   4.334   2.218   1.468 -0.0838 -1.2511  0.4081
 5559TIP3    H240873   4.458   2.233   1.382 -0.1216  0.3280  0.6075
 5560TIP3   OH240874   4.321   6.973   3.141 -0.0780 -0.3514  0.1807
 5560TIP3    H140875   4.350   6.883   3.129  1.8347  0.2932 -0.3298
 5560TIP3    H240876   4.229   6.965   3.166 -0.4140 -2.3660 -1.4314
 5561TIP3   OH240877   2.215   2.424   1.365 -0.1041 -0.1792 -0.0780
 5561TIP3    H140878   2.278   2.356   1.389  0.3862  0.4552  0.4551
 5561TIP3    H240879   2.231   2.440   1.272  0.1740 -0.3884 -0.0673
 5562TIP3   OH240880   1.940   2.789   2.347 -0.3193  0.3318  0.1780
 5562TIP3    H140881   1.867   2.847   2.328 -1.2317 -0.3260  1.4822
 5562TIP3    H240882   1.959   2.745   2.264  0.7277  2.7873 -0.9747
 5563TIP3   OH240883   5.399   5.077   3.030 -0.0006 -0.1431 -0.2731
 5563TIP3    H140884   5.469   5.035   3.080  0.0745  0.5427  0.2048
 5563TIP3    H240885   5.361   5.005   2.979  1.6865 -0.3358 -1.3144
 5564TIP3   OH240886   1.829   2.371   1.175 -0.4298 -0.5246  0.3140
 5564TIP3    H140887   1.887   2.417   1.113 -1.8649 -0.4676 -1.0341
 5564TIP3    H240888   1.757   2.339   1.121 -1.8623 -0.2713  1.9986
 5565TIP3   OH240889   4.826   2.929   0.636 -0.1658 -0.0661 -0.4594
 5565TIP3    H140890   4.893   2.862   0.650  0.3070  0.4583 -0.1868
 5565TIP3    H240891   4.778   2.899   0.559  0.3184 -0.4970 -0.6000
 5566TIP3   OH240892   0.839   1.559   2.836  0.1520 -0.4614 -0.0995
 5566TIP3    H140893   0.826   1.482   2.890 -0.5413  0.7163  1.4970
 5566TIP3    H240894   0.798   1.537   2.752  1.9662 -2.6307 -0.4959
 5567TIP3   OH240895   1.352   5.490   2.913  0.4427  0.6113 -0.5645
 5567TIP3    H140896   1.367   5.407   2.869 -0.0263 -0.0284  0.4374
 5567TIP3    H240897   1.288   5.470   2.982  1.0581  1.5824  0.3239
 5568TIP3   OH240898   3.298   4.649   3.365 -0.0437  0.2703  0.1531
 5568TIP3    H140899   3.236   4.718   3.339 -0.0094  0.6248  0.9494
 5568TIP3    H240900   3.341   4.685   3.443  1.2895  0.0969 -0.4725
 5569TIP3   OH240901   7.223   5.190   0.492 -0.3727  0.0718  0.3053
 5569TIP3    H140902   7.290   5.241   0.447 -0.6549  0.1496 -0.0306
 5569TIP3    H240903   7.272   5.140   0.558  0.0969 -0.3034 -0.3129
 5570TIP3   OH240904   6.706   1.148   0.662 -0.4268 -0.1816 -0.0658
 5570TIP3    H140905   6.747   1.231   0.689  2.3849 -1.1223 -1.0254
 5570TIP3    H240906   6.725   1.088   0.734 -0.6720 -0.4927 -0.2611
 5571TIP3   OH240907   3.132   1.427   0.829  0.3703  0.5216 -0.2464
 5571TIP3    H140908   3.141   1.500   0.890  0.8871  0.8719 -0.7432
 5571TIP3    H240909   3.042   1.434   0.796 -0.1090  0.0053  0.8733
 5572TIP3   OH240910   5.084   6.898   1.736 -0.2024 -0.0190  0.1593
 5572TIP3    H140911   5.119   6.986   1.752 -0.1297  0.0509 -0.3741
 5572TIP3    H240912   5.049   6.871   1.821  3.0620 -0.9516  1.3523
 5573TIP3   OH240913   7.059   1.264   3.171  0.4006 -0.3029  0.3027
 5573TIP3    H140914   7.149   1.280   3.143  0.2266  2.2432  0.9522
 5573TIP3    H240915   7.011   1.251   3.089  1.1305 -0.3397 -0.1326
 5574TIP3   OH240916   2.122   7.006   1.711  0.0876  0.0493  0.1685
 5574TIP3    H140917   2.166   7.051   1.783  1.5999 -0.7268 -0.2287
 5574TIP3    H240918   2.065   6.943   1.753 -0.2890  0.7302  0.6984
 5575TIP3   OH240919   6.924   2.491   0.622 -0.3705  0.1180  0.6246
 5575TIP3    H140920   6.845   2.436   0.619 -0.4549  0.2048  1.1732
 5575TIP3    H240921   6.900   2.570   0.572  0.1300 -0.8011 -1.1507
 5576TIP3   OH240922   4.186   5.195   1.161 -0.0081  0.3784  0.5626
 5576TIP3    H140923   4.267   5.170   1.118 -1.6571 -0.7441 -2.1760
 5576TIP3    H240924   4.151   5.113   1.196 -1.2220  0.2916 -0.7428
 5577TIP3   OH240925   4.732   0.535   2.179  0.2699 -1.0643 -0.4471
 5577TIP3    H140926   4.660   0.581   2.135  0.6756 -0.8111 -0.8660
 5577TIP3    H240927   4.696   0.451   2.204 -1.0586  0.1224  1.9645
 5578TIP3   OH240928   1.557   3.535   1.199  0.3067  0.5406  0.0720
 5578TIP3    H140929   1.602   3.455   1.175 -0.5324 -0.0099  0.2762
 5578TIP3    H240930   1.625   3.602   1.200  0.5549  0.4669 -2.9611
 5579TIP3   OH240931   5.873   0.892   1.359  0.2392 -0.2678  0.3259
 5579TIP3    H140932   5.841   0.817   1.309  0.3858  0.6549 -1.2059
 5579TIP3    H240933   5.957   0.863   1.394  1.3963 -0.1260 -2.1325
 5580TIP3   OH240934   4.546   5.080   2.699  0.2022 -0.2607  0.3507
 5580TIP3    H140935   4.600   5.042   2.768 -0.5244 -0.0402  1.0574
 5580TIP3    H240936   4.558   5.175   2.709  0.5007 -0.2426 -0.1623
 5581TIP3   OH240937   2.642   2.213   1.541 -0.2369 -0.2764  0.1838
 5581TIP3    H140938   2.598   2.151   1.598 -0.5018 -1.5227 -1.3247
 5581TIP3    H240939   2.732   2.180   1.534 -0.2268 -0.1708 -0.1854
 5582TIP3   OH240940   0.464   1.394   2.331  0.0499 -0.3745  0.1435
 5582TIP3    H140941   0.372   1.365   2.336 -0.4133  1.1240  3.0529
 5582TIP3    H240942   0.472   1.434   2.245 -2.0936 -0.4488 -0.1551
 5583TIP3   OH240943   0.069   5.109   0.747 -0.5548 -0.2397  0.5991
 5583TIP3    H140944   0.146   5.054   0.761  0.6726  0.5299 -2.4318
 5583TIP3    H240945   0.063   5.162   0.826  0.7049 -1.8171  1.8189
 5584TIP3   OH240946   6.116   4.931   2.589  0.6095 -0.9128  0.2231
 5584TIP3    H140947   6.082   5.020   2.599  0.9001 -0.6707 -0.8206
 5584TIP3    H240948   6.199   4.931   2.636 -0.3815 -1.2677  2.0707
 5585TIP3   OH240949   3.777   4.922   0.898  0.7177  0.6880  0.2284
 5585TIP3    H140950   3.737   4.886   0.819  1.2939 -1.3865  0.8327
 5585TIP3    H240951   3.704   4.931   0.959  0.6927 -0.3429  0.3658
 5586TIP3   OH240952   1.289   5.651   2.553  0.0773  0.3280  0.1389
 5586TIP3    H140953   1.276   5.638   2.647  1.1135 -0.4740  0.1861
 5586TIP3    H240954   1.374   5.611   2.535 -0.3800 -0.0553 -1.2553
 5587TIP3   OH240955   1.073   1.727   0.632  0.0215  0.1159 -0.2710
 5587TIP3    H140956   1.043   1.664   0.697 -0.3433  0.1402 -0.4128
 5587TIP3    H240957   1.047   1.690   0.548 -2.8425  1.7939 -0.2525
 5588TIP3   OH240958   1.648   5.086   2.700 -0.2000 -0.0399 -0.1014
 5588TIP3    H140959   1.687   5.171   2.679 -1.8269  0.0530 -3.3213
 5588TIP3    H240960   1.559   5.091   2.664  0.0197 -3.4808 -1.5055
 5589TIP3   OH240961   2.524   6.806   0.488 -0.2138  0.4870  0.1257
 5589TIP3    H140962   2.539   6.891   0.531  0.4244 -0.0031  0.9036
 5589TIP3    H240963   2.602   6.794   0.433 -0.2955  0.3890  0.0324
 5590TIP3   OH240964   0.617   6.175   0.637 -0.1009 -0.2317  0.9863
 5590TIP3    H140965   0.672   6.097   0.642  1.2500  0.7494  3.4726
 5590TIP3    H240966   0.528   6.142   0.631  0.4493 -1.9685  1.9173
 5591TIP3   OH240967   4.529   5.898   2.643 -0.1345  0.0892  0.1210
 5591TIP3    H140968   4.471   5.838   2.690 -0.1948  0.1000  0.0611
 5591TIP3    H240969   4.612   5.892   2.689 -0.2243  0.1834  0.2954
 5592TIP3   OH240970   3.407   2.927   2.562 -0.5489 -0.3732 -0.0880
 5592TIP3    H140971   3.459   2.849   2.545  1.4457  0.8659 -0.0687
 5592TIP3    H240972   3.394   2.927   2.656  1.3272  0.3668  0.2171
 5593TIP3   OH240973   7.550   2.136   2.048  0.6961  0.1778  0.3318
 5593TIP3    H140974   7.515   2.213   2.092 -1.6329 -0.8444  0.4181
 5593TIP3    H240975   7.548   2.158   1.955  1.4124  0.7262  0.4412
 5594TIP3   OH240976   0.906   2.554   1.699  0.2990 -0.2197 -0.4103
 5594TIP3    H140977   0.813   2.534   1.693 -0.1980  2.0600 -1.0010
 5594TIP3    H240978   0.940   2.490   1.762 -1.3323 -2.0291 -1.2455
 5595TIP3   OH240979   2.238   6.152   0.699  0.2686 -0.3549  0.3357
 5595TIP3    H140980   2.239   6.063   0.663  1.9229 -0.0548 -0.5011
 5595TIP3    H240981   2.242   6.209   0.621 -1.1877  0.4855  0.8361
 5596TIP3   OH240982   0.831   3.505   1.459 -0.0011  0.4693  0.5432
 5596TIP3    H140983   0.910   3.554   1.482  0.4204  1.0743 -1.9096
 5596TIP3    H240984   0.760   3.555   1.499  0.4519  2.9571 -1.5139
 5597TIP3   OH240985   1.346   6.520   2.244 -0.5320  0.1953  0.3923
 5597TIP3    H140986   1.407   6.489   2.177 -0.7027  0.3759  0.1520
 5597TIP3    H240987   1.313   6.441   2.285 -0.9860  0.0484 -0.2375
 5598TIP3   OH240988   6.300   0.336   2.328 -1.0455 -0.1385  0.1917
 5598TIP3    H140989   6.223   0.348   2.384 -0.8175  0.4634  0.3740
 5598TIP3    H240990   6.348   0.263   2.369 -1.1853 -0.0935  0.4382
 5599TIP3   OH240991   7.178   6.874   1.153 -0.4032  0.0022  0.2501
 5599TIP3    H140992   7.255   6.890   1.207 -1.4940  1.0859  1.5642
 5599TIP3    H240993   7.104   6.898   1.209 -1.6357  0.3199 -1.4319
 5600TIP3   OH240994   0.404   1.916   0.581 -0.6118  0.6754 -0.4250
 5600TIP3    H140995   0.404   1.821   0.595 -0.9311  0.7685  0.2797
 5600TIP3    H240996   0.312   1.941   0.587 -0.4898  1.0807 -0.2291
 5601TIP3   OH240997   4.553   0.083   1.838  0.3282 -0.5683 -0.2911
 5601TIP3    H140998   4.613   0.067   1.911 -1.3244 -0.4987  1.1511
 5601TIP3    H240999   4.571   0.173   1.812  0.9096 -0.5764  0.0614
 5602TIP3   OH241000   1.434   1.958   3.028  0.3224  0.1653  0.0548
 5602TIP3    H141001   1.369   1.908   3.079 -0.2600  1.4473  0.6068
 5602TIP3    H241002   1.397   1.961   2.939  0.9167 -1.3217 -0.2775
 5603TIP3   OH241003   6.874   2.591   3.434 -0.1485  0.3406 -0.2065
 5603TIP3    H141004   6.784   2.623   3.423 -0.1408  0.3982 -0.1071
 5603TIP3    H241005   6.924   2.670   3.455  0.1539  0.5229 -1.5115
 5604TIP3   OH241006   5.438   6.228   3.218  0.4443 -0.3407 -0.1114
 5604TIP3    H141007   5.486   6.152   3.186  0.5159 -1.2443  1.9489
 5604TIP3    H241008   5.498   6.269   3.281 -0.4431  0.0958  0.4698
 5605TIP3   OH241009   4.022   2.810   2.427 -0.7138  0.0775 -0.1948
 5605TIP3    H141010   3.935   2.793   2.465 -0.5647  1.7252  0.9488
 5605TIP3    H241011   4.083   2.794   2.498 -0.3244  1.8209 -0.0897
 5606TIP3   OH241012   0.766   1.897   1.320  0.1266  0.3857 -0.0717
 5606TIP3    H141013   0.812   1.928   1.398 -0.0962 -0.1428  0.2737
 5606TIP3    H241014   0.771   1.971   1.259  2.2476  0.0346 -0.4009
 5607TIP3   OH241015   6.097   1.007   2.474 -0.1935 -0.1754 -0.3742
 5607TIP3    H141016   6.134   1.053   2.550 -0.9253 -0.7385  0.3469
 5607TIP3    H241017   6.143   0.923   2.472  0.3650  0.1405 -1.0261
 5608TIP3   OH241018   7.146   5.133   2.386 -0.4238  0.1631 -0.5185
 5608TIP3    H141019   7.225   5.089   2.416  0.1255  0.6275 -1.2644
 5608TIP3    H241020   7.075   5.092   2.436  0.3793  0.4101  0.8783
 5609TIP3   OH241021   3.188   2.865   1.257 -0.3686  0.3604 -0.0328
 5609TIP3    H141022   3.105   2.820   1.241 -0.3778  0.2157  0.4105
 5609TIP3    H241023   3.252   2.795   1.263 -0.2444  0.4611 -0.1817
 5610TIP3   OH241024   5.701   4.072   2.832  0.0196  0.1039 -0.4645
 5610TIP3    H141025   5.733   4.130   2.902  0.3338  0.8312 -1.1946
 5610TIP3    H241026   5.770   4.006   2.823  0.3338  0.4505 -0.6058
 5611TIP3   OH241027   6.972   2.309   1.732 -0.0653  0.0538 -0.0884
 5611TIP3    H141028   6.913   2.243   1.695 -1.3342 -0.4917  2.6512
 5611TIP3    H241029   6.913   2.378   1.765  0.9794  0.6794  0.5111
 5612TIP3   OH241030   7.088   1.108   1.860 -0.0129  0.0039  0.0316
 5612TIP3    H141031   7.144   1.128   1.786  0.6915 -0.3716  0.4517
 5612TIP3    H241032   7.029   1.183   1.867  0.3351  0.3297 -0.5096
 5613TIP3   OH241033   1.251   1.380   3.384  0.1229  0.5265  0.2651
 5613TIP3    H141034   1.214   1.307   3.334 -0.0079  1.0210 -0.3705
 5613TIP3    H241035   1.179   1.411   3.439  0.1316  0.2849  0.4129
 5614TIP3   OH241036   0.183   4.799   1.896  0.1156 -0.1109  0.0410
 5614TIP3    H141037   0.221   4.832   1.977 -1.8252 -0.4019  1.1318
 5614TIP3    H241038   0.249   4.740   1.861  0.6810 -0.6092  1.8414
 5615TIP3   OH241039   4.974   1.745   1.816 -0.1961 -0.1387 -0.5200
 5615TIP3    H141040   5.007   1.746   1.906 -0.3089  0.2437 -0.4794
 5615TIP3    H241041   5.035   1.690   1.768  0.1113  0.0130 -0.3018
 5616TIP3   OH241042   5.316   0.904   0.853  0.3103 -0.2946  0.0392
 5616TIP3    H141043   5.243   0.965   0.839 -0.3128 -0.6259  1.6502
 5616TIP3    H241044   5.372   0.947   0.917  0.6382 -0.7731  0.0774
 5617TIP3   OH241045   0.223   6.165   0.399  0.0444 -0.3353 -0.2895
 5617TIP3    H141046   0.174   6.192   0.477  1.2135 -0.5670  0.5602
 5617TIP3    H241047   0.255   6.248   0.362  0.7608 -0.3054  0.3653
 5618TIP3   OH241048   4.790   6.017   0.558  0.0531  0.1865 -0.1004
 5618TIP3    H141049   4.837   6.055   0.633  1.1774  0.8829 -1.1281
 5618TIP3    H241050   4.699   6.045   0.571  0.7168  2.8495 -0.4850
 5619TIP3   OH241051   6.921   4.557   1.138 -0.4750 -1.0155 -0.7886
 5619TIP3    H141052   6.875   4.637   1.164  0.1885 -1.2164  1.1658
 5619TIP3    H241053   7.004   4.561   1.184 -0.7348 -3.1721 -0.0119
 5620TIP3   OH241054   5.946   3.065   1.557  0.0408 -0.3505 -0.4980
 5620TIP3    H141055   5.902   2.991   1.600  1.1743 -0.9275 -0.2773
 5620TIP3    H241056   5.881   3.134   1.556 -0.3248 -0.5964  1.4057
 5621TIP3   OH241057   3.275   2.575   0.682  0.0906 -0.5300  0.7881
 5621TIP3    H141058   3.222   2.551   0.758  0.4073  1.1582  1.5982
 5621TIP3    H241059   3.230   2.536   0.607 -1.1319 -0.8524  1.6635
 5622TIP3   OH241060   7.058   4.346   3.136  0.5632 -0.1127 -0.4599
 5622TIP3    H141061   6.976   4.390   3.158  0.8829 -0.0466  0.6867
 5622TIP3    H241062   7.104   4.338   3.220  1.8597  0.1214 -1.1253
 5623TIP3   OH241063   3.501   4.492   1.193 -0.1928 -0.4672 -0.3699
 5623TIP3    H141064   3.465   4.569   1.237 -1.9645 -1.5530  0.1863
 5623TIP3    H241065   3.428   4.456   1.144  0.3723 -2.2257 -0.0052
 5624TIP3   OH241066   6.658   3.861   1.475  0.4553 -0.2304 -0.6801
 5624TIP3    H141067   6.696   3.840   1.390  1.3335 -0.3287 -0.2797
 5624TIP3    H241068   6.730   3.848   1.537 -0.0271  0.3336  0.0148
 5625TIP3   OH241069   5.278   4.148   1.612  0.4588  0.0721  0.3923
 5625TIP3    H141070   5.366   4.111   1.625  0.2440 -0.2402  0.9691
 5625TIP3    H241071   5.221   4.071   1.606 -0.0444  0.2946  1.9338
 5626TIP3   OH241072   1.749   4.260   2.500 -0.4317  0.2725  0.0297
 5626TIP3    H141073   1.842   4.256   2.476 -0.0564  0.2963  1.3885
 5626TIP3    H241074   1.704   4.285   2.419  1.0235  3.0084 -0.0310
 5627TIP3   OH241075   0.902   1.958   0.653  0.0130  0.1669 -0.1705
 5627TIP3    H141076   0.958   1.882   0.666  2.3383  1.3308 -2.4132
 5627TIP3    H241077   0.842   1.933   0.583  0.8501  0.3698 -0.9836
 5628TIP3   OH241078   6.812   2.822   1.423  0.2285  0.5945  0.0699
 5628TIP3    H141079   6.856   2.738   1.436 -1.4706 -0.5456 -1.1306
 5628TIP3    H241080   6.801   2.830   1.329 -0.0837  1.9408  0.1975
 5629TIP3   OH241081   4.317   2.857   2.908 -0.0607  0.4409 -0.0335
 5629TIP3    H141082   4.294   2.838   2.999 -0.1199  1.9683  0.3050
 5629TIP3    H241083   4.409   2.834   2.901  0.2015  1.2081  0.7012
 5630TIP3   OH241084   6.306   1.134   1.808  0.4629  0.3554  0.6196
 5630TIP3    H141085   6.320   1.102   1.719  0.2619 -0.8052  0.9892
 5630TIP3    H241086   6.394   1.154   1.841  0.5801  0.3202  0.3274
 5631TIP3   OH241087   6.449   7.463   0.875 -0.1172  0.1491  0.5842
 5631TIP3    H141088   6.483   7.437   0.790 -1.9751 -0.6913  0.0602
 5631TIP3    H241089   6.391   7.392   0.902 -0.6272  1.0169  1.9279
 5632TIP3   OH241090   7.011   4.511   1.489 -0.0175  0.1135  0.5648
 5632TIP3    H141091   7.002   4.601   1.520  0.6870  0.1583  0.6624
 5632TIP3    H241092   7.106   4.494   1.492 -0.0293 -0.2529 -0.4879
 5633TIP3   OH241093   1.596   5.431   0.725  0.9432  0.5797 -0.2038
 5633TIP3    H141094   1.644   5.348   0.730  2.2995  1.3539  0.0771
 5633TIP3    H241095   1.636   5.486   0.793  1.3791  2.1001 -1.6172
 5634TIP3   OH241096   0.034   2.700   0.733  0.7393 -0.1356  0.4549
 5634TIP3    H141097   0.010   2.627   0.676  3.1902  0.0324 -0.9328
 5634TIP3    H241098  -0.035   2.764   0.720  0.5509 -0.6403 -1.3394
 5635TIP3   OH241099   6.430   6.992   0.840 -0.1172  0.1986 -0.0616
 5635TIP3    H141100   6.440   6.974   0.747 -0.4563  2.1024 -0.5131
 5635TIP3    H241101   6.472   6.918   0.884 -0.3143 -0.9278 -1.7071
 5636TIP3   OH241102   0.247   1.794   1.729  0.3896  0.1472 -0.7336
 5636TIP3    H141103   0.199   1.812   1.648  0.0651  0.4295 -0.4818
 5636TIP3    H241104   0.271   1.881   1.762 -0.3364  0.0848 -0.0181
 5637TIP3   OH241105   3.852   2.521   2.321  0.3061 -0.1339  0.4482
 5637TIP3    H141106   3.831   2.541   2.230  0.1215  0.8947  0.7063
 5637TIP3    H241107   3.891   2.434   2.318  1.2569  0.3034 -0.7448
 5638TIP3   OH241108   2.097   4.448   0.534  0.1515  0.7320 -0.5671
 5638TIP3    H141109   2.083   4.389   0.609 -1.9457 -0.4872 -1.8103
 5638TIP3    H241110   2.107   4.389   0.459  0.4292  1.9579 -1.5201
 5639TIP3   OH241111   4.948   5.504   1.076  0.2854  0.3587  0.3353
 5639TIP3    H141112   4.941   5.485   0.982  0.7353  0.9616  0.1714
 5639TIP3    H241113   4.867   5.471   1.113  0.4324 -0.5717 -0.1516
 5640TIP3   OH241114   5.838   4.002   1.585 -0.0960 -0.3088  0.0585
 5640TIP3    H141115   5.853   3.916   1.623  1.0571 -1.1143 -2.0248
 5640TIP3    H241116   5.906   4.010   1.518  0.2362  2.5256  0.6346
 5641TIP3   OH241117   2.593   2.086   2.570  0.3135 -0.2204 -0.4582
 5641TIP3    H141118   2.662   2.106   2.632 -0.7588 -1.1420  1.0955
 5641TIP3    H241119   2.580   2.168   2.521  0.6177  0.7874  1.0871
 5642TIP3   OH241120   7.176   6.319   2.379  0.7599 -0.1118 -0.2487
 5642TIP3    H141121   7.243   6.262   2.341  3.2203  1.9282  0.7948
 5642TIP3    H241122   7.137   6.266   2.449  2.6847 -0.7144  0.4287
 5643TIP3   OH241123   2.320   1.316   0.735 -0.0158  0.4098  0.3171
 5643TIP3    H141124   2.272   1.260   0.674 -0.8595 -1.4793  2.5540
 5643TIP3    H241125   2.389   1.356   0.682 -1.4276 -0.1571 -2.0820
 5644TIP3   OH241126   5.482   3.015   3.350  0.2652  0.0304 -0.1112
 5644TIP3    H141127   5.573   3.025   3.324  0.3715 -1.7988 -0.6031
 5644TIP3    H241128   5.451   2.938   3.301 -0.8733 -0.7730  1.7340
 5645TIP3   OH241129   4.647   0.102   0.438  0.3580  0.3419 -0.9613
 5645TIP3    H141130   4.678   0.052   0.363 -0.0399  1.0023 -1.5740
 5645TIP3    H241131   4.569   0.055   0.467  0.1916  0.3991 -1.3115
 5646TIP3   OH241132   5.296   7.334   0.950  0.2606  0.6418 -0.6939
 5646TIP3    H141133   5.373   7.276   0.944  0.2076  0.6554 -1.6217
 5646TIP3    H241134   5.254   7.308   1.033 -1.0912 -2.3472 -2.1498
 5647TIP3   OH241135   4.856   6.446   1.241 -0.0908 -0.2952 -0.1206
 5647TIP3    H141136   4.884   6.531   1.275  1.5944 -0.1962 -1.5962
 5647TIP3    H241137   4.799   6.467   1.167 -0.4404 -0.4689  0.0958
 5648TIP3   OH241138   0.060   6.636   1.115 -0.1019  0.3365 -0.0598
 5648TIP3    H141139   0.057   6.541   1.118  1.2155  0.3064  0.5328
 5648TIP3    H241140  -0.012   6.664   1.172 -0.0377 -0.3015  0.3437
 5649TIP3   OH241141   3.563   4.959   2.536 -0.4320 -0.2092  0.5268
 5649TIP3    H141142   3.530   5.020   2.469 -2.0123 -0.1238  1.3272
 5649TIP3    H241143   3.580   5.015   2.612  0.7356 -0.4025  0.4270
 5650TIP3   OH241144   0.544   6.511   0.896  0.2029  0.3352 -0.0170
 5650TIP3    H141145   0.489   6.524   0.818 -1.0080 -0.6162  0.6574
 5650TIP3    H241146   0.519   6.425   0.930  1.7399  0.1043  0.6288
 5651TIP3   OH241147   4.300   5.066   2.034  0.1856 -0.3948  0.0183
 5651TIP3    H141148   4.383   5.021   2.049  0.0236 -1.6026 -2.2863
 5651TIP3    H241149   4.240   5.025   2.096  1.2534  0.5443  1.7675
 5652TIP3   OH241150   4.834   3.256   1.637 -0.0931  0.1998  0.3330
 5652TIP3    H141151   4.858   3.315   1.708  0.6323  0.6646 -0.2838
 5652TIP3    H241152   4.781   3.309   1.578  0.3010  0.1523 -0.0688
 5653TIP3   OH241153   1.598   2.876   1.122 -0.4655  0.0441  0.0995
 5653TIP3    H141154   1.519   2.880   1.068 -1.0440 -0.9768  0.8427
 5653TIP3    H241155   1.670   2.892   1.060 -1.0475 -1.8520 -1.1318
 5654TIP3   OH241156   5.599   6.607   1.115 -0.1639 -0.4776  0.1948
 5654TIP3    H141157   5.676   6.557   1.088 -1.0603 -1.6376 -0.3358
 5654TIP3    H241158   5.606   6.614   1.210  0.0405 -1.5601  0.2704
 5655TIP3   OH241159   4.042   4.944   0.839  0.3037  0.0389  0.4879
 5655TIP3    H141160   4.061   4.894   0.759  0.0638 -1.3311  1.2586
 5655TIP3    H241161   3.946   4.943   0.845  0.3391 -0.2953  1.0529
 5656TIP3   OH241162   7.498   0.886   2.626 -0.0592 -0.5100 -0.2051
 5656TIP3    H141163   7.553   0.832   2.683  1.3518  2.3059  1.3306
 5656TIP3    H241164   7.539   0.973   2.630 -2.9486  1.0224 -1.4229
 5657TIP3   OH241165   4.214   5.040   2.846  0.0016  0.9724 -0.0815
 5657TIP3    H141166   4.211   5.111   2.911 -4.0614  1.1964 -0.2405
 5657TIP3    H241167   4.215   4.960   2.899 -2.7158  1.1648  0.4263
 5658TIP3   OH241168   4.185   2.795   1.298 -0.2948 -0.0916  0.0706
 5658TIP3    H141169   4.181   2.794   1.202 -0.6280 -2.2845  0.0637
 5658TIP3    H241170   4.274   2.767   1.319 -0.5626 -0.7013  0.4058
 5659TIP3   OH241171   5.448   2.691   1.997  0.1734 -0.1218 -0.1672
 5659TIP3    H141172   5.474   2.763   1.940  1.0904 -0.7672 -0.5959
 5659TIP3    H241173   5.404   2.629   1.939  0.0225 -0.2279  0.0588
 5660TIP3   OH241174   4.007   2.254   2.328  0.3294  0.0100  0.1571
 5660TIP3    H141175   4.037   2.250   2.419 -0.8762  0.5202  0.6042
 5660TIP3    H241176   4.086   2.243   2.276  1.3508  1.6123  1.2784
 5661TIP3   OH241177   7.488   6.185   2.569  0.5044 -0.1860 -0.3559
 5661TIP3    H141178   7.549   6.256   2.590  0.2935 -0.5293  1.5784
 5661TIP3    H241179   7.444   6.165   2.652 -1.8890 -0.3119 -1.5720
 5662TIP3   OH241180   1.974   3.263   2.416  0.5785  0.3693 -0.3014
 5662TIP3    H141181   1.899   3.238   2.470 -0.9976  2.0081 -1.6288
 5662TIP3    H241182   2.015   3.335   2.463  1.5038 -0.6331  0.5079
 5663TIP3   OH241183   3.059   1.185   1.932  0.0479  0.1094 -0.0255
 5663TIP3    H141184   3.024   1.114   1.878  1.1670 -0.5051  0.0226
 5663TIP3    H241185   3.067   1.147   2.019  1.6952 -0.0825 -0.2340
 5664TIP3   OH241186   2.233   6.423   1.365  0.2058  0.3473 -0.0131
 5664TIP3    H141187   2.320   6.383   1.372 -0.8176 -1.8741  1.0696
 5664TIP3    H241188   2.197   6.387   1.283  0.0072  0.6561 -0.0619
 5665TIP3   OH241189   2.405   0.146   0.497 -0.1561 -0.4330  0.5382
 5665TIP3    H141190   2.448   0.116   0.577  0.9697 -3.2481 -1.0025
 5665TIP3    H241191   2.372   0.067   0.456 -1.6086  1.0519 -1.3352
 5666TIP3   OH241192   1.971   4.666   2.845  0.7800  0.4355 -0.1400
 5666TIP3    H141193   2.053   4.707   2.874  1.0374 -0.0685 -0.1357
 5666TIP3    H241194   1.982   4.655   2.751  1.6549 -1.6175  0.1379
 5667TIP3   OH241195   2.535   4.987   2.971 -0.0248  0.3855  0.6141
 5667TIP3    H141196   2.565   5.076   2.990  0.4847  0.3100  0.1501
 5667TIP3    H241197   2.443   4.998   2.946 -0.0494  0.7456  0.8523
 5668TIP3   OH241198   6.142   2.031   3.204 -0.2009  0.1550 -0.2665
 5668TIP3    H141199   6.074   1.969   3.178 -0.1495  0.2059 -0.5207
 5668TIP3    H241200   6.116   2.059   3.292 -0.7181  0.4618 -0.5071
 5669TIP3   OH241201   3.945   6.248   0.789 -0.3072 -0.6806 -0.2816
 5669TIP3    H141202   3.945   6.273   0.881 -0.3644 -0.7329 -0.2673
 5669TIP3    H241203   3.860   6.206   0.776 -0.4493 -0.3452 -0.4475
 5670TIP3   OH241204   1.395   4.047   1.811 -0.0480  0.6081  0.3421
 5670TIP3    H141205   1.347   3.986   1.755 -0.0492  0.0052  0.9847
 5670TIP3    H241206   1.488   4.026   1.794 -0.0554 -0.5912  1.6305
 5671TIP3   OH241207   3.417   4.395   0.804 -0.3065  0.0572 -0.4659
 5671TIP3    H141208   3.498   4.346   0.818 -1.1404 -1.4848 -0.7647
 5671TIP3    H241209   3.366   4.381   0.884 -0.3103  0.9712 -0.2989
 5672TIP3   OH241210   5.815   2.381   2.527 -0.1818 -0.3587  0.3531
 5672TIP3    H141211   5.780   2.360   2.441 -0.3033 -0.5578  0.4499
 5672TIP3    H241212   5.781   2.469   2.546  0.4915  0.0146 -0.1389
 5673TIP3   OH241213   6.738   5.949   3.118 -0.3270  0.0195 -0.2158
 5673TIP3    H141214   6.748   6.041   3.142 -1.4211  0.0136  0.3269
 5673TIP3    H241215   6.797   5.902   3.177 -1.2299  0.2164  0.8738
 5674TIP3   OH241216   2.521   4.602   1.126  0.2469 -0.1565 -0.4589
 5674TIP3    H141217   2.457   4.616   1.196  0.1887 -2.3458  0.0236
 5674TIP3    H241218   2.589   4.668   1.141  0.3758 -0.7253  1.8969
 5675TIP3   OH241219   1.042   5.453   1.252 -0.1291  0.6507 -0.6388
 5675TIP3    H141220   1.075   5.505   1.325 -2.6210  1.2968  0.1097
 5675TIP3    H241221   0.977   5.509   1.210  0.4487 -0.1460 -2.6851
 5676TIP3   OH241222   1.789   0.345   0.463 -0.4084 -0.1923 -0.2240
 5676TIP3    H141223   1.751   0.293   0.533 -1.3620 -0.5710 -0.9923
 5676TIP3    H241224   1.832   0.282   0.406 -0.4074  0.0120 -0.4533
 5677TIP3   OH241225   7.059   4.870   0.868 -0.1920 -0.2853  0.4228
 5677TIP3    H141226   7.101   4.784   0.868 -2.8124 -1.6667  0.7989
 5677TIP3    H241227   7.049   4.891   0.775 -0.7965 -1.0762  0.2959
 5678TIP3   OH241228   5.419   0.574   2.908 -0.2514 -0.3191  0.2683
 5678TIP3    H141229   5.402   0.575   3.003  1.6198  0.2127  0.6470
 5678TIP3    H241230   5.368   0.648   2.874 -0.4203 -0.1056  0.9652
 5679TIP3   OH241231   5.043   0.918   0.675 -0.1413  0.6961 -0.2564
 5679TIP3    H141232   4.990   0.840   0.662  1.6083 -0.5654 -0.2425
 5679TIP3    H241233   5.002   0.964   0.747 -1.2414 -0.1907 -0.2988
 5680TIP3   OH241234   4.487   6.734   1.031  0.1726  0.1177 -0.6758
 5680TIP3    H141235   4.488   6.748   1.126 -0.3825  0.4371 -0.7112
 5680TIP3    H241236   4.410   6.680   1.015 -0.0107  0.4690 -0.9950
 5681TIP3   OH241237   5.914   5.030   2.062  0.3059  0.1272 -0.1313
 5681TIP3    H141238   5.865   4.950   2.081 -0.3525  0.7164  0.6560
 5681TIP3    H241239   5.969   5.043   2.139  0.7501  0.1966 -0.4536
 5682TIP3   OH241240   0.416   1.556   1.670 -0.1549  0.3789  0.1922
 5682TIP3    H141241   0.401   1.638   1.624  0.5562 -0.0592 -0.8586
 5682TIP3    H241242   0.442   1.583   1.759  0.6110  1.3082 -0.2953
 5683TIP3   OH241243   2.860   2.746   2.572  0.5365  0.1944 -0.0715
 5683TIP3    H141244   2.853   2.651   2.579 -0.5920  0.3250  0.8542
 5683TIP3    H241245   2.937   2.768   2.624  1.1342 -0.2454 -0.7479
 5684TIP3   OH241246   5.677   5.890   2.347  0.1246  0.0774 -0.4145
 5684TIP3    H141247   5.630   5.811   2.374  0.1991  0.6328  1.5162
 5684TIP3    H241248   5.653   5.902   2.255 -2.8760 -0.1281  0.2278
 5685TIP3   OH241249   0.573   3.608   0.339 -0.0637  0.3768 -0.0609
 5685TIP3    H141250   0.647   3.670   0.340 -0.6147  1.0606  1.0898
 5685TIP3    H241251   0.614   3.522   0.344  0.6875  0.7171 -0.1856
 5686TIP3   OH241252   7.371   0.910   2.132 -0.1723  0.5443 -0.0161
 5686TIP3    H141253   7.369   0.815   2.142 -1.5066  0.3538 -1.6085
 5686TIP3    H241254   7.442   0.927   2.070 -1.0210  0.3764 -1.0818
 5687TIP3   OH241255   2.415   5.894   2.415  0.7279  0.3180 -0.1443
 5687TIP3    H141256   2.357   5.909   2.340  0.2344 -1.4443 -0.1819
 5687TIP3    H241257   2.475   5.826   2.385  1.5452  0.7100  0.5620
 5688TIP3   OH241258   4.325   0.330   1.450 -0.8110 -0.2013 -0.1621
 5688TIP3    H141259   4.400   0.386   1.430 -0.2215 -0.2354  1.7420
 5688TIP3    H241260   4.252   0.371   1.404 -0.0539  1.1599 -0.2281
 5689TIP3   OH241261   3.003   2.008   2.196 -0.4324  0.0354  0.0122
 5689TIP3    H141262   2.987   2.042   2.108 -2.2118 -0.0137  0.2706
 5689TIP3    H241263   3.064   1.935   2.183 -1.3606 -0.5368 -1.3083
 5690TIP3   OH241264   2.305   4.500   0.891  0.3748  0.4883  0.7245
 5690TIP3    H141265   2.388   4.520   0.934  1.1048  0.6848 -0.7111
 5690TIP3    H241266   2.258   4.583   0.887 -0.2297  0.2436  2.1731
 5691TIP3   OH241267   3.352   1.353   2.494  0.8573 -0.4945  0.1033
 5691TIP3    H141268   3.416   1.310   2.438  2.1173 -1.9665  2.5056
 5691TIP3    H241269   3.404   1.405   2.555 -0.5543  3.4809 -1.7381
 5692TIP3   OH241270   1.671   4.220   0.515  0.0713  0.1095 -0.1973
 5692TIP3    H141271   1.709   4.185   0.434  1.2439 -0.7043  0.6520
 5692TIP3    H241272   1.649   4.142   0.566 -0.3623  0.6074  0.3872
 5693TIP3   OH241273   2.378   1.068   3.099  0.0588 -0.5073  0.5738
 5693TIP3    H141274   2.291   1.061   3.059  0.2695 -1.3346  0.2476
 5693TIP3    H241275   2.436   1.021   3.039  0.5758 -0.7435  1.2509
 5694TIP3   OH241276   5.339   5.423   1.033 -0.5306 -0.5521  0.6962
 5694TIP3    H141277   5.303   5.464   1.112 -0.8530 -0.9439  0.7575
 5694TIP3    H241278   5.433   5.417   1.049  0.0829  3.0992 -0.6231
 5695TIP3   OH241279   5.700   7.359   1.139  0.4337 -0.1261 -0.0794
 5695TIP3    H141280   5.609   7.331   1.145  0.3265  0.2436  0.0726
 5695TIP3    H241281   5.701   7.421   1.066  1.0614 -2.0320 -1.7581
 5696TIP3   OH241282   6.983   0.512   0.681  0.0598 -0.2774 -0.4253
 5696TIP3    H141283   6.910   0.573   0.670  1.7733  1.6073 -2.4022
 5696TIP3    H241284   6.987   0.496   0.775 -0.9860  2.0710  0.0964
 5697TIP3   OH241285   0.240   4.319   1.767 -0.3022 -0.4173  0.4646
 5697TIP3    H141286   0.238   4.244   1.708  2.0747 -1.4616  1.5769
 5697TIP3    H241287   0.329   4.354   1.758 -0.8989  1.3520  1.0888
 5698TIP3   OH241288   2.391   1.216   2.124 -0.3099 -0.0627 -0.0626
 5698TIP3    H141289   2.457   1.179   2.182 -0.7736  0.0671  0.5557
 5698TIP3    H241290   2.429   1.299   2.095 -0.2948  0.1199  0.4710
 5699TIP3   OH241291   1.826   7.302   2.687  0.1402 -0.2063  0.3742
 5699TIP3    H141292   1.845   7.395   2.677  2.6980 -0.5433  1.4734
 5699TIP3    H241293   1.775   7.297   2.768 -0.0928  0.2263  0.2617
 5700TIP3   OH241294   0.291   4.511   2.244 -0.3538 -0.2220  0.2496
 5700TIP3    H141295   0.249   4.519   2.158 -0.1539  0.0460  0.1750
 5700TIP3    H241296   0.238   4.448   2.291 -2.2164  1.7703  0.9774
 5701TIP3   OH241297   1.102   1.232   3.187  0.3510  0.5532  0.0247
 5701TIP3    H141298   1.023   1.178   3.194  1.2383 -0.7170  0.6284
 5701TIP3    H241299   1.153   1.193   3.116  0.7461  0.9517  0.0808
 5702TIP3   OH241300   2.312   7.488   1.181 -0.3817  0.1895 -0.6313
 5702TIP3    H141301   2.350   7.437   1.110 -0.9717  0.4392 -1.1446
 5702TIP3    H241302   2.255   7.427   1.228 -1.8282  0.5462 -1.8135
 5703TIP3   OH241303   0.604   0.022   2.894  0.2061 -0.4376 -0.1500
 5703TIP3    H141304   0.624   0.077   2.969 -3.7694  1.9438 -0.5233
 5703TIP3    H241305   0.660   0.055   2.824  0.9892  0.1344  0.7190
 5704TIP3   OH241306   0.012   5.181   1.014  0.0044 -0.6742  0.5674
 5704TIP3    H141307  -0.060   5.144   1.065 -1.7425  2.0378  0.2335
 5704TIP3    H241308   0.090   5.165   1.069 -1.0378 -2.2215  1.7014
 5705TIP3   OH241309   7.425   4.096   0.361 -0.1529  0.0573 -0.2342
 5705TIP3    H141310   7.399   4.180   0.323  0.4067  1.1324  1.6809
 5705TIP3    H241311   7.344   4.060   0.396 -0.0499  0.8626  0.8910
 5706TIP3   OH241312   0.412   4.365   2.423  0.8574  0.0794 -0.8380
 5706TIP3    H141313   0.402   4.419   2.345 -1.9179 -0.3133 -0.8376
 5706TIP3    H241314   0.484   4.306   2.403 -0.4992 -0.7743 -3.6045
 5707TIP3   OH241315   1.178   4.853   2.466 -0.3827 -0.7165 -0.2663
 5707TIP3    H141316   1.231   4.784   2.427  0.4605 -0.5789  0.5871
 5707TIP3    H241317   1.241   4.910   2.510 -1.2180 -0.4622  0.6503
 5708TIP3   OH241318   7.397   4.706   2.979 -0.3928 -0.3920 -1.3274
 5708TIP3    H141319   7.303   4.714   2.963 -0.9652 -1.0906  1.2527
 5708TIP3    H241320   7.413   4.611   2.979  0.0121 -0.3324 -0.3385
 5709TIP3   OH241321   3.042   1.556   2.647 -0.0396  0.3242 -0.5784
 5709TIP3    H141322   3.064   1.479   2.699  1.2526 -1.1173 -3.0731
 5709TIP3    H241323   2.991   1.611   2.706 -0.1433 -1.9609  1.6197
 5710TIP3   OH241324   0.627   1.808   1.990 -0.4116  0.1649  1.1782
 5710TIP3    H141325   0.566   1.853   1.931 -0.6185 -0.7628  0.6602
 5710TIP3    H241326   0.701   1.785   1.934 -0.3097 -0.1351  1.4357
 5711TIP3   OH241327   6.878   3.458   2.473  0.4976  0.3079 -0.5900
 5711TIP3    H141328   6.945   3.521   2.501  1.1807 -0.7088  0.1457
 5711TIP3    H241329   6.867   3.400   2.549 -0.3578 -0.2624 -1.1313
 5712TIP3   OH241330   5.087   0.941   2.805  0.4257  0.3012  0.7848
 5712TIP3    H141331   5.006   0.898   2.832  0.5650 -0.2222  0.3828
 5712TIP3    H241332   5.058   1.012   2.748  0.1889  0.8383  1.5470
 5713TIP3   OH241333   3.695   0.864   2.034 -0.8645 -0.2907 -0.6045
 5713TIP3    H141334   3.788   0.885   2.021 -1.0769  0.0086 -1.6937
 5713TIP3    H241335   3.684   0.778   1.994 -0.5107 -1.5601  1.8226
 5714TIP3   OH241336   6.579   6.832   1.863 -0.5392  0.3186 -0.0315
 5714TIP3    H141337   6.487   6.808   1.857 -0.5787  0.5012 -0.1779
 5714TIP3    H241338   6.618   6.765   1.920 -0.8495  0.4963  0.3900
 5715TIP3   OH241339   4.680   6.993   1.167 -0.0597  0.1458  0.0410
 5715TIP3    H141340   4.599   7.025   1.127  0.3733  1.6169  0.2864
 5715TIP3    H241341   4.651   6.938   1.239 -0.8647  0.7585  0.2019
 5716TIP3   OH241342   5.447   0.636   0.950 -0.0085 -0.2172 -0.2120
 5716TIP3    H141343   5.358   0.636   0.915  0.1396 -2.3911 -0.7210
 5716TIP3    H241344   5.440   0.593   1.035  0.6627 -1.1760 -0.6254
 5717TIP3   OH241345   4.900   3.217   2.198  0.1795  0.1815 -0.0812
 5717TIP3    H141346   4.875   3.221   2.291 -1.4433 -2.7982 -0.2425
 5717TIP3    H241347   4.823   3.248   2.151  0.0619 -0.6213 -0.4405
 5718TIP3   OH241348   6.294   6.320   1.077 -0.2022 -0.0926  0.6195
 5718TIP3    H141349   6.304   6.232   1.113  0.2750 -0.4526 -0.3660
 5718TIP3    H241350   6.336   6.316   0.991 -1.6948  0.6087 -0.1795
 5719TIP3   OH241351   0.391   2.878   2.252 -0.4183  0.2824  0.2115
 5719TIP3    H141352   0.457   2.832   2.200 -0.2227  0.8331 -0.0393
 5719TIP3    H241353   0.364   2.951   2.197 -0.0943  0.9623  0.9311
 5720TIP3   OH241354   1.418   0.472   1.392 -0.2543  0.3596 -0.2881
 5720TIP3    H141355   1.435   0.565   1.406  2.4756  0.3609 -2.8577
 5720TIP3    H241356   1.325   0.468   1.369 -0.0749  2.6911 -1.6752
 5721TIP3   OH241357   0.921   2.997   1.026  0.3624 -0.8365 -0.4589
 5721TIP3    H141358   0.963   3.075   0.989  1.2473 -0.9152  0.3462
 5721TIP3    H241359   0.908   3.019   1.119 -2.0195 -0.5466 -0.7821
 5722TIP3   OH241360   2.795   7.119   1.544 -0.3513  0.0614  0.0411
 5722TIP3    H141361   2.847   7.171   1.605  1.0186 -2.6985  1.4280
 5722TIP3    H241362   2.720   7.089   1.595 -1.0985  0.5778 -0.7214
 5723TIP3   OH241363   3.728   1.616   0.776 -0.3087  0.0118  0.2239
 5723TIP3    H141364   3.712   1.575   0.691  1.7447  0.0318 -0.2104
 5723TIP3    H241365   3.791   1.685   0.758  4.0013 -2.9275  2.3203
 5724TIP3   OH241366   4.982   3.074   1.517 -0.4321 -0.5355 -0.1931
 5724TIP3    H141367   4.917   3.124   1.567  0.1240 -0.2976  0.3019
 5724TIP3    H241368   4.936   3.049   1.436  0.0659  3.0832 -1.7589
 5725TIP3   OH241369   5.358   5.363   2.430 -0.1924  0.3493 -0.1859
 5725TIP3    H141370   5.346   5.435   2.492 -0.4813 -0.1754  0.3888
 5725TIP3    H241371   5.314   5.392   2.350 -1.2478  0.3833  0.3874
 5726TIP3   OH241372   2.366   4.535   3.303 -0.1323  0.7128  0.0139
 5726TIP3    H141373   2.439   4.507   3.358  1.2926  0.7514 -1.7669
 5726TIP3    H241374   2.301   4.465   3.312  1.3064 -0.7620 -0.5282
 5727TIP3   OH241375   7.239   1.847   1.743  0.0680  0.2045  0.1035
 5727TIP3    H141376   7.333   1.857   1.730  0.3863  0.6302  2.4172
 5727TIP3    H241377   7.209   1.933   1.772 -0.7219 -0.3866  1.0967
 5728TIP3   OH241378   4.551   3.741   0.434  0.2698 -0.1289 -0.3845
 5728TIP3    H141379   4.561   3.747   0.529 -0.7510  3.5513 -0.3789
 5728TIP3    H241380   4.634   3.775   0.399 -0.0297  0.1718 -0.8047
 5729TIP3   OH241381   0.519   4.319   1.040 -0.5156  0.1128 -0.1806
 5729TIP3    H141382   0.601   4.334   1.087  0.9879  1.8633 -3.0688
 5729TIP3    H241383   0.524   4.228   1.011  0.0445 -0.0222  0.3285
 5730TIP3   OH241384   5.280   1.365   1.506 -0.1887 -0.0083 -0.0827
 5730TIP3    H141385   5.317   1.404   1.427 -0.7057 -1.7201 -1.2218
 5730TIP3    H241386   5.343   1.297   1.531 -0.7775 -0.5075  0.0688
 5731TIP3   OH241387   5.587   0.773   0.727  0.5611  0.2722  0.8676
 5731TIP3    H141388   5.574   0.688   0.687  0.1347  0.5144  0.4860
 5731TIP3    H241389   5.529   0.773   0.803 -0.9842  0.9789 -0.2767
 5732TIP3   OH241390   1.560   4.374   0.958 -0.1733 -0.3496 -0.1979
 5732TIP3    H141391   1.644   4.342   0.991 -0.5424 -0.5052  0.6414
 5732TIP3    H241392   1.498   4.351   1.027 -0.7495  0.6073 -0.3819
 5733TIP3   OH241393   5.092   7.124   0.851 -0.1834 -0.0285  0.0671
 5733TIP3    H141394   5.048   7.141   0.934 -0.9626  0.6452 -0.4790
 5733TIP3    H241395   5.027   7.078   0.799  1.3751 -3.6751  0.9979
 5734TIP3   OH241396   3.831   0.275   2.023  0.3289 -0.4037 -0.2164
 5734TIP3    H141397   3.922   0.282   2.053  0.4176  1.8209 -0.8058
 5734TIP3    H241398   3.838   0.245   1.933  0.6395  1.3302 -0.8136
 5735TIP3   OH241399   7.160   6.595   2.353 -0.2287 -0.1457  0.1559
 5735TIP3    H141400   7.176   6.505   2.381 -0.5334  0.2272  1.6152
 5735TIP3    H241401   7.092   6.587   2.285 -0.0602 -1.0232  0.0716
 5736TIP3   OH241402   1.447   4.281   1.188  0.0697 -0.4768 -0.3653
 5736TIP3    H141403   1.420   4.209   1.245  0.3451 -0.1510  0.1965
 5736TIP3    H241404   1.495   4.340   1.247 -1.4520  0.9153 -0.4617
 5737TIP3   OH241405   0.457   4.826   1.250 -0.4784  0.1592 -0.0937
 5737TIP3    H141406   0.433   4.883   1.177 -1.1601 -1.2652 -1.0180
 5737TIP3    H241407   0.541   4.788   1.224 -0.7468 -0.3888 -0.1768
 5738TIP3   OH241408   6.216   5.614   1.575  0.5669  0.1317  0.4954
 5738TIP3    H141409   6.266   5.695   1.583  0.1817  0.2755  1.7733
 5738TIP3    H241410   6.271   5.556   1.522  2.2192  0.2040  2.0127
 5739TIP3   OH241411   4.519   1.751   3.162  0.0148 -0.0552 -0.1556
 5739TIP3    H141412   4.443   1.694   3.167  0.3570 -0.6091 -1.0627
 5739TIP3    H241413   4.515   1.804   3.242 -1.5589  0.2464 -0.4111
 5740TIP3   OH241414   5.293   6.543   0.801  0.4150  0.1427 -0.1523
 5740TIP3    H141415   5.314   6.512   0.889  0.0416  0.5578  0.0873
 5740TIP3    H241416   5.242   6.623   0.815  0.0458  0.0173 -0.7416
 5741TIP3   OH241417   7.320   7.339   1.777 -0.0367 -0.6932 -0.2357
 5741TIP3    H141418   7.326   7.279   1.851  0.6782 -1.8474 -1.1786
 5741TIP3    H241419   7.410   7.368   1.762 -0.3976  0.7549  0.2906
 5742TIP3   OH241420   2.251   2.215   0.773  0.2305 -0.0673 -0.1051
 5742TIP3    H141421   2.315   2.158   0.816  0.0433 -0.1877  0.0134
 5742TIP3    H241422   2.173   2.210   0.829 -0.0797 -0.3736 -0.5616
 5743TIP3   OH241423   5.062   0.385   7.371  0.4262  0.3811  0.2340
 5743TIP3    H141424   5.031   0.451   7.434  0.2778  2.9389 -2.2911
 5743TIP3    H241425   5.116   0.434   7.310  0.2444 -1.8512 -1.8772
 5744TIP3   OH241426   6.705   1.441   1.885 -0.0893  0.1876  0.0530
 5744TIP3    H141427   6.666   1.367   1.932  0.7485  0.2539  0.8738
 5744TIP3    H241428   6.799   1.422   1.883  0.2638  1.6324  1.0429
 5745TIP3   OH241429   0.449   0.024   1.754 -0.1380  0.2328 -0.0531
 5745TIP3    H141430   0.472  -0.012   1.668 -0.0462 -0.9087  0.4362
 5745TIP3    H241431   0.371  -0.025   1.781  0.8644 -0.6949  1.2865
 5746TIP3   OH241432   7.246   1.766   2.436  0.5033  0.4062  0.2563
 5746TIP3    H141433   7.156   1.740   2.419  0.4630  1.3921 -1.1520
 5746TIP3    H241434   7.243   1.811   2.521 -0.3879  0.7548  0.0420
 5747TIP3   OH241435   1.832   4.195   3.123  0.0224 -0.7004 -0.0997
 5747TIP3    H141436   1.843   4.101   3.110  1.1496 -0.3287 -2.3606
 5747TIP3    H241437   1.746   4.215   3.087 -0.3723 -0.9096  0.7179
 5748TIP3   OH241438   4.998   2.678   1.512 -0.0956 -0.5500 -0.0365
 5748TIP3    H141439   4.962   2.618   1.446  0.8930  2.4453 -3.6950
 5748TIP3    H241440   4.935   2.750   1.516  1.7625  1.2230 -0.8806
 5749TIP3   OH241441   0.691   0.527   0.805  0.1894  0.0630  0.0276
 5749TIP3    H141442   0.755   0.476   0.855 -0.3481  0.9499  1.6953
 5749TIP3    H241443   0.617   0.466   0.793 -0.2139  0.2180  1.5011
 5750TIP3   OH241444   3.848   3.505   0.934  0.3160 -0.3934 -0.0269
 5750TIP3    H141445   3.755   3.526   0.942  0.6793  0.8841  1.3669
 5750TIP3    H241446   3.852   3.439   0.865 -1.5392  0.0821 -0.6569
 5751TIP3   OH241447   2.647   3.700   2.315 -0.2590  0.1027  0.4299
 5751TIP3    H141448   2.556   3.669   2.321  0.0503 -0.6926  1.2482
 5751TIP3    H241449   2.693   3.628   2.271 -0.3623  1.2849 -1.7451
 5752TIP3   OH241450   6.886   0.912   2.852  0.2529  0.2700 -0.2475
 5752TIP3    H141451   6.980   0.899   2.867 -0.0564 -0.1444  1.7750
 5752TIP3    H241452   6.850   0.922   2.940 -1.4801  1.4522 -1.0404
 5753TIP3   OH241453   1.739   6.330   2.163 -0.3683  0.2043 -0.1192
 5753TIP3    H141454   1.806   6.287   2.215  0.0075  1.7995  0.7895
 5753TIP3    H241455   1.656   6.301   2.200 -0.1107  0.8829  1.0332
 5754TIP3   OH241456   7.290   2.648   1.673 -0.1327  0.5098  0.2568
 5754TIP3    H141457   7.205   2.670   1.712 -1.1249 -0.5368 -1.1775
 5754TIP3    H241458   7.351   2.646   1.746 -1.6272 -0.0422  1.5425
 5755TIP3   OH241459   4.812   5.376   2.153  0.3961 -0.1507  0.7029
 5755TIP3    H141460   4.875   5.389   2.224 -1.1432  0.7775  1.9649
 5755TIP3    H241461   4.864   5.342   2.080  2.2863  0.3085  1.7830
 5756TIP3   OH241462   6.018   6.085   2.685 -0.0008 -0.3578 -0.3861
 5756TIP3    H141463   5.996   6.161   2.740  0.3895 -0.1046 -0.5769
 5756TIP3    H241464   5.950   6.084   2.618  0.2422  0.0846 -0.6403
 5757TIP3   OH241465   4.069   0.640   1.508 -0.5049 -0.2790  0.4101
 5757TIP3    H141466   3.995   0.696   1.533 -0.5236  0.2162 -0.6928
 5757TIP3    H241467   4.033   0.582   1.441 -0.0378 -0.4315  0.2894
 5758TIP3   OH241468   5.148   6.095   1.084  0.2688  0.2240  0.2034
 5758TIP3    H141469   5.090   6.086   1.160 -3.2608 -0.4039 -2.2978
 5758TIP3    H241470   5.172   6.005   1.062  1.3964  0.4144  0.5683
 5759TIP3   OH241471   1.642   1.666   2.367 -0.5894 -0.0394 -0.4378
 5759TIP3    H141472   1.697   1.589   2.382  0.9774  0.8960 -1.0466
 5759TIP3    H241473   1.632   1.706   2.453 -1.0846 -0.7033 -0.1805
 5760TIP3   OH241474   4.653   6.491   1.458 -0.3788 -0.1591  0.6190
 5760TIP3    H141475   4.710   6.498   1.381 -2.0110  0.7709 -0.5551
 5760TIP3    H241476   4.601   6.412   1.441  0.9232 -1.3706  1.9892
 5761TIP3   OH241477   2.131   2.923   1.589 -0.3210 -0.0196 -0.2904
 5761TIP3    H141478   2.211   2.905   1.541  0.6431 -1.6067  1.7671
 5761TIP3    H241479   2.160   2.958   1.672 -1.8075  0.1893  0.1755
 5762TIP3   OH241480   2.817   5.911   1.611 -0.6482  0.3330 -0.5401
 5762TIP3    H141481   2.908   5.906   1.584 -0.5425  0.5191 -0.2181
 5762TIP3    H241482   2.782   5.986   1.563 -0.3720  0.8710  0.0840
 5763TIP3   OH241483   2.098   0.108   0.994  0.3791  0.2455  0.3715
 5763TIP3    H141484   2.162   0.037   0.991 -0.0193 -0.0855 -1.3104
 5763TIP3    H241485   2.131   0.167   1.062  2.2813 -0.0878 -0.1838
 5764TIP3   OH241486   7.525   1.161   2.310 -0.4393 -0.4582  0.1556
 5764TIP3    H141487   7.540   1.087   2.369 -2.4741 -0.7240  0.4092
 5764TIP3    H241488   7.448   1.205   2.345 -0.8409  0.2363 -1.4882
 5765TIP3   OH241489   2.590   3.096   1.215  0.2723 -0.3758  0.6486
 5765TIP3    H141490   2.651   3.089   1.141 -0.7036  0.8860 -0.3103
 5765TIP3    H241491   2.524   3.029   1.198 -0.6811  0.7883 -0.3632
 5766TIP3   OH241492   7.068   2.831   2.202  0.2200 -0.0480  0.8417
 5766TIP3    H141493   7.062   2.871   2.289  2.1449  0.7606  0.6621
 5766TIP3    H241494   7.161   2.837   2.179  0.1696 -2.3071 -0.3274
 5767TIP3   OH241495   2.121   4.103   2.586  0.1850 -0.1253  0.5589
 5767TIP3    H141496   2.088   4.165   2.521 -0.6187 -0.4645  0.6269
 5767TIP3    H241497   2.216   4.109   2.579  0.1263  1.0613  0.5175
 5768TIP3   OH241498   4.271   1.664   1.382 -0.3677  0.0018  0.1098
 5768TIP3    H141499   4.289   1.629   1.470  0.4509  0.8170  0.2819
 5768TIP3    H241500   4.189   1.711   1.391 -1.2424 -1.4362 -0.0110
 5769TIP3   OH241501   1.989   1.582   3.035 -0.4001 -0.1343  0.0317
 5769TIP3    H141502   2.048   1.548   3.103  1.1496  0.4925 -0.9572
 5769TIP3    H241503   1.940   1.505   3.006  0.0965 -0.7250  0.7119
 5770TIP3   OH241504   6.105   6.670   0.883 -0.0084 -0.1356 -0.0696
 5770TIP3    H141505   6.086   6.629   0.967  1.4776  1.4844  1.1300
 5770TIP3    H241506   6.200   6.665   0.875  0.0219  1.1883 -0.8640
 5771TIP3   OH241507   6.532   0.890   3.250 -0.0251  0.0116  0.2950
 5771TIP3    H141508   6.526   0.977   3.210 -0.2405 -0.0597  0.1701
 5771TIP3    H241509   6.615   0.855   3.218  0.8614  0.8053  1.6285
 5772TIP3   OH241510   6.636   0.339   1.709  0.1712 -0.5157  0.1187
 5772TIP3    H141511   6.544   0.336   1.681  0.0334  0.2150  0.4848
 5772TIP3    H241512   6.633   0.330   1.804  0.4650 -0.2905  0.1509
 5773TIP3   OH241513   5.881   5.154   0.754  0.9262 -0.1703  0.4646
 5773TIP3    H141514   5.925   5.164   0.670  0.6387  1.0740  0.4424
 5773TIP3    H241515   5.946   5.184   0.818  0.2984  1.2842  0.4642
 5774TIP3   OH241516   4.987   6.955   1.323  0.3254  0.0480 -0.5564
 5774TIP3    H141517   5.005   6.931   1.232 -1.3779 -0.4035 -0.8048
 5774TIP3    H241518   4.943   7.040   1.317  1.7988  0.8688 -0.0148
 5775TIP3   OH241519   3.160   2.492   2.965  1.0522 -0.1903  0.1498
 5775TIP3    H141520   3.167   2.401   2.935 -0.1001 -0.0938 -0.4489
 5775TIP3    H241521   3.195   2.544   2.893  0.6207 -0.0927  0.0117
 5776TIP3   OH241522   0.202   2.919   3.166  0.2435 -0.1626 -0.0023
 5776TIP3    H141523   0.274   2.897   3.108  0.2742  1.0211 -0.4438
 5776TIP3    H241524   0.242   2.928   3.252  1.0674  2.3932 -0.5330
 5777TIP3   OH241525   2.568   0.130   2.466 -1.3922 -0.3228 -0.3857
 5777TIP3    H141526   2.574   0.213   2.419 -2.8291 -0.9820 -1.8406
 5777TIP3    H241527   2.475   0.125   2.492 -1.1100 -1.0451  0.5478
 5778TIP3   OH241528   5.391   2.260   3.095 -0.6073 -0.2537 -0.3249
 5778TIP3    H141529   5.390   2.353   3.073 -1.8618 -0.2568 -0.3398
 5778TIP3    H241530   5.461   2.223   3.041  0.3880  0.7849  0.2058
 5779TIP3   OH241531   4.280   0.664   2.634 -0.5109 -1.0250 -0.0467
 5779TIP3    H141532   4.206   0.721   2.655  1.0193  0.5556  1.3076
 5779TIP3    H241533   4.308   0.692   2.546  0.0839  0.2037  0.5094
 5780TIP3   OH241534   4.093   1.543   0.856  0.1317 -0.1828 -0.4306
 5780TIP3    H141535   4.087   1.605   0.929  0.3781  0.3919 -0.8890
 5780TIP3    H241536   4.034   1.472   0.880  2.7642 -1.7916  2.0464
 5781TIP3   OH241537   6.010   6.463   2.103  0.2590  0.2415  0.1056
 5781TIP3    H141538   5.931   6.437   2.151  2.0009 -2.3537  1.7994
 5781TIP3    H241539   6.021   6.556   2.123 -2.2474  0.6602 -0.1024
 5782TIP3   OH241540   4.072   0.861   0.820  0.0486 -0.3890  0.4498
 5782TIP3    H141541   4.130   0.937   0.824  2.7796 -2.3523  0.6638
 5782TIP3    H241542   4.065   0.842   0.727 -1.9835  0.9694  0.2489
 5783TIP3   OH241543   3.117   1.458   2.411  0.1460  0.1063 -0.4120
 5783TIP3    H141544   3.103   1.506   2.493 -2.5578 -2.3023  0.7642
 5783TIP3    H241545   3.207   1.425   2.417 -0.5918 -1.8519  2.8573
 5784TIP3   OH241546   3.125   2.276   0.946 -0.3782  0.3514 -0.6467
 5784TIP3    H141547   3.052   2.279   0.885 -1.0999  1.2001  0.2228
 5784TIP3    H241548   3.094   2.219   1.017  0.1232  0.0654 -0.6527
 5785TIP3   OH241549   7.210   6.749   2.578  0.3236  0.6540 -0.0239
 5785TIP3    H141550   7.195   6.700   2.497 -0.8488  2.3998 -0.9289
 5785TIP3    H241551   7.305   6.744   2.592  0.4060 -0.6418 -0.8328
 5786TIP3   OH241552   6.748   0.402   2.249 -0.1384 -0.2410  0.2971
 5786TIP3    H141553   6.681   0.416   2.316 -0.8757  2.6090 -0.9078
 5786TIP3    H241554   6.816   0.467   2.267 -0.1773  0.3567 -1.4411
 5787TIP3   OH241555   1.110   5.025   2.164  0.3610 -0.2693  0.1287
 5787TIP3    H141556   1.036   5.055   2.217 -0.5676 -0.0494 -1.2453
 5787TIP3    H241557   1.131   5.100   2.108  2.0274 -0.1276  0.8985
 5788TIP3   OH241558   0.383   2.711   1.621  0.6366 -0.1138  0.5447
 5788TIP3    H141559   0.324   2.691   1.548 -0.1817  1.8344  0.6007
 5788TIP3    H241560   0.341   2.672   1.697  1.1876 -1.6390  0.1029
 5789TIP3   OH241561   2.664   2.306   2.204 -0.2645  0.6482  0.0960
 5789TIP3    H141562   2.743   2.287   2.254  0.4644  0.7883 -0.9635
 5789TIP3    H241563   2.695   2.353   2.126 -1.3096  0.1790 -0.6384
 5790TIP3   OH241564   3.745   7.106   1.014  0.2759  0.2941  0.2653
 5790TIP3    H141565   3.830   7.080   1.048  1.2316 -0.4646 -2.4272
 5790TIP3    H241566   3.688   7.031   1.031  1.2790 -0.9546 -1.4781
 5791TIP3   OH241567   4.160   7.367   2.801  0.4363  0.4051  0.9250
 5791TIP3    H141568   4.155   7.334   2.891  1.5724  0.6394  1.0774
 5791TIP3    H241569   4.068   7.380   2.776 -0.3830 -4.4473  0.2512
 5792TIP3   OH241570   3.924   6.987   2.031 -0.1266  0.1856 -0.5739
 5792TIP3    H141571   3.946   7.075   2.001  0.2998 -0.1407 -1.2589
 5792TIP3    H241572   3.984   6.930   1.983  0.3455 -0.3952  0.6906
 5793TIP3   OH241573   3.908   5.909   1.626  0.4192 -0.3924 -0.2391
 5793TIP3    H141574   3.903   5.974   1.556 -1.7390 -0.3023 -0.0689
 5793TIP3    H241575   3.950   5.955   1.698 -1.4129  1.0358  0.0138
 5794TIP3   OH241576   7.415   2.834   1.478  0.3951  0.1158  0.2173
 5794TIP3    H141577   7.399   2.877   1.562  0.0329  1.0917 -0.3401
 5794TIP3    H241578   7.361   2.754   1.483 -1.1448  1.1025  0.1870
 5795TIP3   OH241579   5.666   6.240   2.800  0.1578 -0.0623  0.0805
 5795TIP3    H141580   5.724   6.167   2.776  0.7258 -0.1355  1.6132
 5795TIP3    H241581   5.680   6.252   2.894 -1.4586  0.6881  0.2471
 5796TIP3   OH241582   4.662   2.228   2.611 -0.0311 -0.1164 -0.0796
 5796TIP3    H141583   4.591   2.285   2.581 -0.1413  0.9229  1.9601
 5796TIP3    H241584   4.700   2.275   2.685  0.3529 -2.3856  1.2476
 5797TIP3   OH241585   6.305   4.561   2.269  0.1881 -0.4518  0.0668
 5797TIP3    H141586   6.332   4.652   2.278  1.0355 -0.4992 -1.5937
 5797TIP3    H241587   6.252   4.543   2.347  1.0848  1.0572  1.0589
 5798TIP3   OH241588   7.204   3.696   0.842  0.3979  0.2180 -0.1992
 5798TIP3    H141589   7.294   3.684   0.813  0.5298 -1.1429  0.7238
 5798TIP3    H241590   7.151   3.671   0.766  0.7629  2.2863 -1.2009
 5799TIP3   OH241591   6.317   0.530   1.888 -0.0510 -0.5103 -0.0332
 5799TIP3    H141592   6.308   0.435   1.877 -2.3567 -0.8064  3.0001
 5799TIP3    H241593   6.346   0.540   1.978  0.3005  1.7069 -0.3530
 5800TIP3   OH241594   2.300   6.268   2.102  0.1093 -0.0103  0.0985
 5800TIP3    H141595   2.366   6.332   2.128  0.4620 -0.7814  1.1690
 5800TIP3    H241596   2.339   6.221   2.028 -0.4112  1.4041 -1.1161
 5801TIP3   OH241597   0.183   5.865   1.102 -0.2058  0.8824  0.1382
 5801TIP3    H141598   0.201   5.847   1.194 -2.3586  0.9675  0.6441
 5801TIP3    H241599   0.088   5.856   1.095  0.0213 -0.2621 -2.3386
 5802TIP3   OH241600   2.434   0.754   2.580 -0.5699 -0.0520  0.8855
 5802TIP3    H141601   2.523   0.740   2.611  0.6722  3.6888 -0.4945
 5802TIP3    H241602   2.431   0.709   2.495  0.0688 -0.0328  0.8487
 5803TIP3   OH241603   1.253   3.709   0.836  0.0860  0.0116 -0.7539
 5803TIP3    H141604   1.205   3.740   0.759  0.1251  0.9110 -0.4210
 5803TIP3    H241605   1.235   3.774   0.904  1.1928 -0.0301 -0.4070
 5804TIP3   OH241606   3.387   2.690   1.297  0.1143  0.4855 -0.4074
 5804TIP3    H141607   3.453   2.630   1.332  0.2897  0.6114 -0.5199
 5804TIP3    H241608   3.423   2.778   1.314 -0.9256  0.6205  1.3209
 5805TIP3   OH241609   2.368   4.401   1.520  0.0579  0.3178  0.4623
 5805TIP3    H141610   2.388   4.307   1.523  0.8176  0.4456 -0.0932
 5805TIP3    H241611   2.450   4.443   1.548  0.2286  0.8469 -0.7753
 5806TIP3   OH241612   5.544   7.550   2.504  0.0483  0.9326  0.4286
 5806TIP3    H141613   5.617   7.599   2.468  0.2100 -0.6660 -1.5706
 5806TIP3    H241614   5.472   7.613   2.508  0.8827  1.9254  0.2035
 5807TIP3   OH241615   2.273   5.479   1.721  0.0295 -0.4867  0.0254
 5807TIP3    H141616   2.229   5.394   1.714 -1.7105  0.3463  0.4252
 5807TIP3    H241617   2.360   5.458   1.756 -0.3958 -2.0873  0.1815
 5808TIP3   OH241618   4.093   1.420   3.072  0.0976  0.0486  0.9513
 5808TIP3    H141619   4.007   1.423   3.029  1.1097  0.8184 -1.1157
 5808TIP3    H241620   4.095   1.335   3.115 -1.6636 -0.0146  1.0027
 5809TIP3   OH241621   5.752   2.996   3.278 -0.2401 -0.3479  0.3531
 5809TIP3    H141622   5.785   2.917   3.322 -0.3057 -1.2230 -1.1198
 5809TIP3    H241623   5.827   3.056   3.279  0.0711 -0.7312  0.7729
 5810TIP3   OH241624   0.792   5.300   2.101 -0.2186  0.3251 -0.0172
 5810TIP3    H141625   0.838   5.236   2.156 -0.0510  2.0348  1.9646
 5810TIP3    H241626   0.714   5.254   2.071 -0.0040 -0.8823  1.1684
 5811TIP3   OH241627   1.461   0.741   1.398  0.4909 -0.0013 -0.1219
 5811TIP3    H141628   1.529   0.785   1.347  0.0885  0.0984 -0.5869
 5811TIP3    H241629   1.487   0.753   1.489  0.6189  0.8324 -0.2589
 5812TIP3   OH241630   7.530   1.138   1.700  0.0594 -0.1162  0.3717
 5812TIP3    H141631   7.526   1.149   1.795  1.2058 -0.0480  0.4303
 5812TIP3    H241632   7.612   1.089   1.685  0.7260  1.2612 -0.6823
 5813TIP3   OH241633   6.336   3.332   0.949 -0.3932  0.3668 -0.2301
 5813TIP3    H141634   6.314   3.278   1.024  1.6407 -0.8421 -0.4288
 5813TIP3    H241635   6.251   3.359   0.913 -1.4620 -1.3883  0.8146
 5814TIP3   OH241636   6.280   2.203   1.900 -0.3443  0.5579  0.1114
 5814TIP3    H141637   6.344   2.272   1.884 -1.4487  1.1474 -2.1297
 5814TIP3    H241638   6.318   2.124   1.862 -1.0802  0.9974 -1.5932
 5815TIP3   OH241639   5.174   0.904   2.524 -0.4615  0.0824  0.7392
 5815TIP3    H141640   5.147   0.815   2.543 -1.1809  0.2604  0.5769
 5815TIP3    H241641   5.270   0.903   2.531 -0.5469 -0.4157  1.9161
 5816TIP3   OH241642   4.009   3.327   0.465  0.2278 -0.1016 -0.4678
 5816TIP3    H141643   4.047   3.252   0.511  0.9725 -0.7560 -2.0907
 5816TIP3    H241644   4.046   3.322   0.377  0.0590  2.0180 -0.6952
 5817TIP3   OH241645   2.702   5.782   2.818 -0.5614 -0.2224  0.0627
 5817TIP3    H141646   2.608   5.798   2.824 -0.7287 -1.0011 -0.3698
 5817TIP3    H241647   2.731   5.775   2.909 -0.4846  2.3342  0.2878
 5818TIP3   OH241648   6.179   4.645   2.652 -0.2712 -0.2672  0.1588
 5818TIP3    H141649   6.157   4.711   2.586  0.9578 -1.6071 -1.6862
 5818TIP3    H241650   6.271   4.627   2.638 -0.2293 -1.3388  1.6163
 5819TIP3   OH241651   0.478   5.072   1.678 -0.1961 -0.0743 -0.2407
 5819TIP3    H141652   0.419   5.135   1.719  0.6239  0.8953 -0.5271
 5819TIP3    H241653   0.425   4.993   1.667 -1.2024  0.5256  0.2155
 5820TIP3   OH241654   7.159   0.966   1.517 -0.3143  0.2526 -0.0561
 5820TIP3    H141655   7.161   0.897   1.450 -2.4384 -0.1238  0.2055
 5820TIP3    H241656   7.085   1.022   1.493  0.5210  1.6549  0.5207
 5821TIP3   OH241657   1.698   2.637   0.784  0.2362 -0.1596 -0.2577
 5821TIP3    H141658   1.625   2.605   0.731  0.9288 -1.4477 -0.4890
 5821TIP3    H241659   1.732   2.712   0.736  0.0702 -0.5479 -1.0002
 5822TIP3   OH241660   2.904   2.623   1.410  0.4826 -0.2999  0.7748
 5822TIP3    H141661   2.977   2.590   1.463  0.4480 -2.9282 -0.6249
 5822TIP3    H241662   2.826   2.598   1.460  0.4894 -0.5393  0.6666
 5823TIP3   OH241663   4.130   4.556   3.060  0.0451 -0.3320 -0.2153
 5823TIP3    H141664   4.156   4.504   3.136 -0.9416 -0.3916  0.1001
 5823TIP3    H241665   4.052   4.511   3.027 -0.5434  0.6724 -0.2196
 5824TIP3   OH241666   1.063   0.252   1.474 -0.6049 -0.4201 -0.1582
 5824TIP3    H141667   1.039   0.162   1.455 -0.4856 -0.4574 -0.1356
 5824TIP3    H241668   0.988   0.288   1.522 -0.7980 -0.3996 -0.4778
 5825TIP3   OH241669   2.452   7.045   2.042  0.6426  0.0373  0.1931
 5825TIP3    H141670   2.419   6.958   2.063 -1.4928  0.9571  0.9227
 5825TIP3    H241671   2.542   7.045   2.076  1.3828 -2.4336 -1.4969
 5826TIP3   OH241672   5.192   2.884   1.809  0.1050 -0.6339 -0.2030
 5826TIP3    H141673   5.267   2.886   1.869  1.3420 -0.3014 -1.7114
 5826TIP3    H241674   5.169   2.975   1.795 -0.0372 -0.7023 -0.4220
 5827TIP3   OH241675   7.195   2.847   1.117  0.2943 -1.0294 -0.8201
 5827TIP3    H141676   7.257   2.803   1.174 -0.6100 -0.3879  0.7142
 5827TIP3    H241677   7.116   2.793   1.120  1.6318 -3.8194 -5.4937
 5828TIP3   OH241678   5.512   0.569   2.545  0.8597 -0.4224 -0.2160
 5828TIP3    H141679   5.603   0.568   2.576  0.2719 -0.5999  1.6310
 5828TIP3    H241680   5.519   0.555   2.450  2.7534 -0.3473 -0.1316
 5829TIP3   OH241681   5.398   3.599   0.962 -0.0943  0.2745  0.1801
 5829TIP3    H141682   5.402   3.667   0.896 -1.6119 -1.6220 -2.0289
 5829TIP3    H241683   5.339   3.633   1.029  1.2305  2.0985  0.5026
 5830TIP3   OH241684   3.131   5.858   1.138 -0.4270  0.3383  0.4103
 5830TIP3    H141685   3.108   5.765   1.132  0.4853  0.1692 -1.1475
 5830TIP3    H241686   3.227   5.858   1.144 -0.3232  1.1761 -0.8517
 5831TIP3   OH241687   2.886   2.388   3.110 -0.0986  1.1040 -0.3566
 5831TIP3    H141688   2.919   2.460   3.056 -0.9068  1.0107 -1.0009
 5831TIP3    H241689   2.920   2.405   3.197  0.4206  1.7992 -0.6901
 5832TIP3   OH241690   3.664   1.094   2.205 -0.0703  0.0384  0.5570
 5832TIP3    H141691   3.637   1.034   2.136  0.0390  0.2541  0.3261
 5832TIP3    H241692   3.756   1.072   2.221  0.6158  1.5339 -1.0038
 5833TIP3   OH241693   1.228   6.755   0.595  0.1404  0.5466 -0.0218
 5833TIP3    H141694   1.229   6.671   0.550  1.5890 -0.4113  1.6683
 5833TIP3    H241695   1.135   6.780   0.597 -0.5475 -1.7606  0.7192
 5834TIP3   OH241696   2.540   5.902   1.284 -0.4122  0.0114  0.6921
 5834TIP3    H141697   2.478   5.865   1.346 -0.3330 -3.2060 -0.9196
 5834TIP3    H241698   2.495   5.897   1.199  0.9944  0.2565 -0.1096
 5835TIP3   OH241699   7.252   2.343   2.742 -0.0362  0.0121 -0.7565
 5835TIP3    H141700   7.178   2.284   2.755 -0.5733  0.8257 -0.0488
 5835TIP3    H241701   7.269   2.339   2.648 -0.1466 -1.1535 -0.7483
 5836TIP3   OH241702   4.464   4.041   2.295  0.3428  0.0930  0.2890
 5836TIP3    H141703   4.441   4.125   2.255 -1.9507 -0.7041 -0.2353
 5836TIP3    H241704   4.438   4.050   2.386 -0.2222 -0.1381  0.1560
 5837TIP3   OH241705   5.702   5.963   2.789  0.6790  0.5223 -0.3140
 5837TIP3    H141706   5.611   5.991   2.795  0.8391  1.0241 -0.1278
 5837TIP3    H241707   5.706   5.881   2.838  0.4213  0.7196  0.0374
 5838TIP3   OH241708   6.337   1.640   2.758 -0.0670 -0.5397  0.0552
 5838TIP3    H141709   6.398   1.703   2.721 -1.1587  0.7149  0.3129
 5838TIP3    H241710   6.302   1.684   2.836 -0.5383 -1.6337  0.4760
 5839TIP3   OH241711   0.914   2.226   0.660 -0.2427  0.0176 -0.2688
 5839TIP3    H141712   0.907   2.130   0.657 -0.0924  0.0328 -1.7323
 5839TIP3    H241713   0.860   2.256   0.587  3.5356  0.7788 -3.0540
 5840TIP3   OH241714   6.739   0.730   1.957  0.2339 -0.0899  0.2047
 5840TIP3    H141715   6.814   0.771   1.913 -0.6738  0.9673 -0.3844
 5840TIP3    H241716   6.715   0.657   1.900 -2.2383  2.4575 -2.3655
 5841TIP3   OH241717   6.762   0.127   2.418  0.1500  0.0164 -0.0672
 5841TIP3    H141718   6.802   0.140   2.503  0.3321 -2.3938  0.2677
 5841TIP3    H241719   6.829   0.153   2.355  0.5306  0.4256  0.4988
 5842TIP3   OH241720   6.010   0.569   1.036 -0.2622 -0.1832 -0.2661
 5842TIP3    H141721   6.055   0.501   0.986  0.0221 -0.2245  0.0428
 5842TIP3    H241722   5.917   0.547   1.028 -0.2064 -0.3151 -0.5873
 5843TIP3   OH241723   2.359   5.276   2.806  0.3549 -0.6244 -0.3568
 5843TIP3    H141724   2.338   5.185   2.826 -0.4209  0.2284  3.8411
 5843TIP3    H241725   2.452   5.274   2.781  1.5028 -2.3882  3.2455
 5844TIP3   OH241726   6.286   1.133   0.412 -0.0583 -0.6268  0.1267
 5844TIP3    H141727   6.271   1.098   0.323  1.2810  0.2365 -0.4689
 5844TIP3    H241728   6.380   1.121   0.426 -0.0482  0.3740  0.9459
 5845TIP3   OH241729   1.463   2.132   1.882 -0.0759  0.2778  0.1062
 5845TIP3    H141730   1.412   2.132   1.802 -1.8709  2.1564  1.1529
 5845TIP3    H241731   1.554   2.120   1.853 -0.3647  3.0233 -2.4519
 5846TIP3   OH241732   3.071   3.119   2.327 -0.2555 -0.5035 -0.3987
 5846TIP3    H141733   3.067   3.059   2.402  1.7501 -0.7084 -0.3958
 5846TIP3    H241734   3.126   3.074   2.263 -0.0007  0.6585 -1.0272
 5847TIP3   OH241735   1.351   1.021   0.463 -0.5039 -0.1736 -0.1303
 5847TIP3    H141736   1.356   1.075   0.385 -2.6600  0.9885  0.4706
 5847TIP3    H241737   1.386   1.076   0.533  0.4643 -0.8355 -0.0723
 5848TIP3   OH241738   6.843   3.169   1.997  0.0677  0.3988 -0.1048
 5848TIP3    H141739   6.761   3.133   2.029  0.7287  0.5840  1.9487
 5848TIP3    H241740   6.835   3.264   2.011 -0.0594  0.6211 -1.5927
 5849TIP3   OH241741   2.339   3.693   2.066  0.5922  0.7429 -0.0794
 5849TIP3    H141742   2.287   3.733   2.136  0.4136  0.7486 -0.2169
 5849TIP3    H241743   2.413   3.753   2.055  0.6190  0.7453  0.1010
 5850TIP3   OH241744   2.667   6.495   1.588  0.1827 -0.0009  0.3240
 5850TIP3    H141745   2.728   6.524   1.520  2.8721 -1.3726  1.9521
 5850TIP3    H241746   2.660   6.570   1.647  1.0092 -0.1013  0.5623
 5851TIP3   OH241747   1.640   3.131   1.577  0.1303  0.2729  0.2613
 5851TIP3    H141748   1.715   3.187   1.558 -0.1111  0.3890 -0.3624
 5851TIP3    H241749   1.599   3.114   1.492 -1.0559  0.9284  0.6712
 5852TIP3   OH241750   3.510   6.157   1.719  0.0492  0.1438 -0.0910
 5852TIP3    H141751   3.502   6.125   1.629 -0.4663  0.5679 -0.1963
 5852TIP3    H241752   3.507   6.077   1.772 -0.6228 -0.0372 -0.3905
 5853TIP3   OH241753   5.315   6.406   1.321  0.2093  0.5169  0.1751
 5853TIP3    H141754   5.252   6.335   1.331 -0.2983  0.9410  0.0256
 5853TIP3    H241755   5.354   6.416   1.408  0.5911 -0.2140  0.1020
 5854TIP3   OH241756   3.267   5.573   0.785  0.3217 -0.3016 -0.1985
 5854TIP3    H141757   3.313   5.626   0.851 -0.4620 -1.3176  1.2332
 5854TIP3    H241758   3.320   5.494   0.777 -0.6840 -1.1301  0.8728
 5855TIP3   OH241759   1.500   2.384   2.920 -0.3742  0.0749 -0.1010
 5855TIP3    H141760   1.515   2.459   2.976 -1.3330 -0.0186  0.2937
 5855TIP3    H241761   1.561   2.317   2.951 -1.2087 -0.1317  1.1374
 5856TIP3   OH241762   2.066   5.980   0.541  0.1573  0.0478  0.6796
 5856TIP3    H141763   2.042   5.929   0.618 -1.5345 -1.3321 -0.6848
 5856TIP3    H241764   2.011   6.058   0.545 -1.3665 -0.9322 -0.0544
 5857TIP3   OH241765   6.178   2.012   1.387 -0.3939  0.0396  0.7106
 5857TIP3    H141766   6.208   2.001   1.297 -1.3542  0.2231  0.3635
 5857TIP3    H241767   6.225   1.944   1.436  1.3561  0.9522  0.3864
 5858TIP3   OH241768   0.345   1.558   0.888  0.4925 -0.9710 -0.0518
 5858TIP3    H141769   0.424   1.584   0.935  1.3764 -1.0898 -1.4231
 5858TIP3    H241770   0.334   1.465   0.911  0.1521 -0.7029  0.9339
 5859TIP3   OH241771   0.847   0.373   0.954  1.1944  0.4724 -0.0395
 5859TIP3    H141772   0.911   0.325   0.901  0.4776 -0.3040 -0.2272
 5859TIP3    H241773   0.859   0.338   1.042  0.2038 -0.6029 -0.2985
 5860TIP3   OH241774   5.902   1.970   1.392 -0.0675 -0.4757 -0.3474
 5860TIP3    H141775   5.996   1.975   1.378  0.1513  0.1195  1.1383
 5860TIP3    H241776   5.876   2.059   1.416 -0.9022 -0.7557 -0.1836
 5861TIP3   OH241777   5.897   2.701   2.194  0.3202 -0.1944  0.2805
 5861TIP3    H141778   5.899   2.785   2.239  0.1117  0.8455 -1.5338
 5861TIP3    H241779   5.811   2.665   2.216  0.2757  0.2202  0.8163
 5862TIP3   OH241780   5.842   1.450   1.353  0.2233  0.1583  0.4538
 5862TIP3    H141781   5.789   1.400   1.291 -1.5491  0.7274  1.4319
 5862TIP3    H241782   5.930   1.450   1.315 -0.3946 -1.0723 -1.0936
 5863TIP3   OH241783   1.976   0.294   2.670  0.2997 -0.3049 -0.3483
 5863TIP3    H141784   1.888   0.258   2.676  0.2372 -0.0285  0.5133
 5863TIP3    H241785   2.026   0.227   2.623 -0.1481 -0.8787 -0.0146
 5864TIP3   OH241786   3.893   6.061   2.009 -0.2612  0.3331 -0.1495
 5864TIP3    H141787   3.972   6.094   1.966  0.9977  1.3004  2.6855
 5864TIP3    H241788   3.858   6.137   2.057 -3.0600 -0.0278 -1.3896
 5865TIP3   OH241789   7.230   7.050   1.743  0.1564  0.3514 -0.2477
 5865TIP3    H141790   7.234   7.101   1.824  0.1215  2.3509 -1.4291
 5865TIP3    H241791   7.317   7.062   1.703  1.3995 -3.3316  0.9613
 5866TIP3   OH241792   2.011   6.865   0.550 -0.3607  1.0042 -0.6349
 5866TIP3    H141793   2.089   6.853   0.496 -1.1974 -2.1171 -1.3028
 5866TIP3    H241794   2.045   6.866   0.640  0.8647  4.6949 -0.9450
 5867TIP3   OH241795   1.802   0.633   1.502 -0.4232 -0.1519 -0.0872
 5867TIP3    H141796   1.768   0.544   1.492 -0.1926 -0.2214 -0.2516
 5867TIP3    H241797   1.775   0.678   1.422 -0.5053 -0.0834 -0.0219
 5868TIP3   OH241798   6.436   2.504   0.558  0.1699  0.1616 -0.4241
 5868TIP3    H141799   6.408   2.515   0.649  2.0270  1.4073  0.0448
 5868TIP3    H241800   6.398   2.578   0.512  0.2037  0.1886 -0.4086
 5869TIP3   OH241801   3.765   0.537   2.719 -0.2819  0.6213 -0.1254
 5869TIP3    H141802   3.740   0.616   2.767 -0.5664  0.3956  0.0980
 5869TIP3    H241803   3.803   0.480   2.785 -2.4176 -0.4790  0.2452
 5870TIP3   OH241804   0.296   2.507   2.878  0.0704 -0.5108 -0.0322
 5870TIP3    H141805   0.372   2.456   2.904  1.8336  1.5934 -0.7113
 5870TIP3    H241806   0.277   2.563   2.954 -1.5483 -1.7640  0.5418
 5871TIP3   OH241807   0.002   4.134   2.476 -0.4181  0.4974  0.1970
 5871TIP3    H141808   0.077   4.141   2.416 -0.5725 -1.3520 -0.2962
 5871TIP3    H241809  -0.034   4.222   2.481  1.7596  1.4315  0.4086
 5872TIP3   OH241810   1.964   6.410   1.037 -0.0799 -0.0382 -0.5067
 5872TIP3    H141811   1.942   6.486   0.984  0.8092  0.2603 -0.4528
 5872TIP3    H241812   1.913   6.339   0.999 -1.2001  0.6404 -0.3391
 5873TIP3   OH241813   0.156   0.471   1.686 -0.3675 -0.2397 -0.1756
 5873TIP3    H141814   0.092   0.429   1.628  0.8709 -0.4142 -1.4608
 5873TIP3    H241815   0.168   0.408   1.757  0.8496 -1.7726 -1.6572
 5874TIP3   OH241816   6.862   4.972   1.053  0.0261 -0.9294 -0.0052
 5874TIP3    H141817   6.856   4.897   1.112  2.5656 -0.0425  1.5546
 5874TIP3    H241818   6.935   4.951   0.995  1.1521  0.4507  0.8133
 5875TIP3   OH241819   7.491   6.102   0.887  0.1494  0.0714  0.3444
 5875TIP3    H141820   7.568   6.155   0.910  0.4114 -0.6373  1.1516
 5875TIP3    H241821   7.418   6.164   0.890  0.2452  0.1788  2.6418
 5876TIP3   OH241822   4.718   1.823   3.002  0.5212  0.0072 -0.6073
 5876TIP3    H141823   4.644   1.792   3.053  0.2097  0.5217 -0.7372
 5876TIP3    H241824   4.697   1.803   2.911  1.1468 -1.0498 -0.5355
 5877TIP3   OH241825   5.309   1.812   2.529 -0.0673  0.6161  0.2524
 5877TIP3    H141826   5.352   1.736   2.567 -0.9389  1.0129  2.1799
 5877TIP3    H241827   5.229   1.777   2.489 -0.3889  0.4971  0.9960
 5878TIP3   OH241828   4.936   5.854   2.515 -0.2410 -0.2748  0.3422
 5878TIP3    H141829   5.022   5.812   2.522 -0.7991 -1.4245  0.5993
 5878TIP3    H241830   4.903   5.856   2.605 -1.5770 -2.2955 -0.0267
 5879TIP3   OH241831   5.385   0.212   2.431 -0.1505  0.0829  0.1976
 5879TIP3    H141832   5.342   0.241   2.511  0.6700  1.9806 -0.0058
 5879TIP3    H241833   5.313   0.190   2.372 -0.7689 -1.5030  1.4573
 5880TIP3   OH241834   4.063   4.037   2.074  0.2671 -0.0798  0.5731
 5880TIP3    H141835   3.995   4.105   2.078  1.2208  0.9404 -0.1272
 5880TIP3    H241836   4.107   4.041   2.159  0.2412  0.0906  0.5785
 5881TIP3   OH241837   6.595   3.386   0.691 -0.0660  0.3977 -0.4099
 5881TIP3    H141838   6.508   3.389   0.651 -0.0610  0.4412 -0.4178
 5881TIP3    H241839   6.609   3.294   0.711  0.4944  0.1773 -1.7349
 5882TIP3   OH241840   6.222   5.331   0.663  0.3557  0.1688 -0.3192
 5882TIP3    H141841   6.207   5.252   0.715 -2.1560  0.9083  0.2007
 5882TIP3    H241842   6.266   5.391   0.723  0.6245 -0.1837 -0.1577
 5883TIP3   OH241843   3.407   4.935   1.437 -0.2922 -0.1933  0.3856
 5883TIP3    H141844   3.423   4.884   1.516  2.3840  2.8178  1.9853
 5883TIP3    H241845   3.353   5.008   1.466 -0.6804  0.0784 -0.9585
 5884TIP3   OH241846   7.219   4.876   1.147 -0.7115 -0.2241 -0.2297
 5884TIP3    H141847   7.170   4.907   1.223 -1.1624  0.0595 -0.6347
 5884TIP3    H241848   7.156   4.823   1.097 -0.6911  0.3675 -0.8941
 5885TIP3   OH241849   5.303   2.398   2.703 -0.2941  0.0572  0.3032
 5885TIP3    H141850   5.350   2.469   2.747  0.0217 -0.7247  1.2693
 5885TIP3    H241851   5.330   2.405   2.612  0.4041  0.6528  0.5420
 5886TIP3   OH241852   1.738   6.666   1.130 -0.0607  0.0564  0.0422
 5886TIP3    H141853   1.675   6.730   1.095  1.2871  0.7545 -1.2427
 5886TIP3    H241854   1.796   6.718   1.186  0.9112 -0.0493 -0.8354
 5887TIP3   OH241855   3.055   2.592   2.121  0.4908  0.0336  0.1759
 5887TIP3    H141856   3.090   2.644   2.049 -1.5356  0.1619 -0.7866
 5887TIP3    H241857   3.020   2.656   2.183 -1.6942 -0.0553 -0.8495
 5888TIP3   OH241858   4.133   1.734   1.072 -0.0983  0.7053 -0.4453
 5888TIP3    H141859   4.177   1.661   1.115 -0.0919  0.9910  0.0400
 5888TIP3    H241860   4.182   1.811   1.101 -0.0516  0.8976 -1.0177
 5889TIP3   OH241861   4.927   0.436   1.717  0.0498 -0.7974 -0.0945
 5889TIP3    H141862   4.911   0.366   1.654 -0.4332  0.4658 -1.4337
 5889TIP3    H241863   4.989   0.494   1.673 -0.0691 -0.0297  0.7251
 5890TIP3   OH241864   0.804   4.147   0.328  0.1474 -0.0144  0.4548
 5890TIP3    H141865   0.713   4.169   0.348  0.1072  1.1861 -0.8938
 5890TIP3    H241866   0.802   4.112   0.240  0.8298 -1.3886  0.9596
 5891TIP3   OH241867   3.030   0.185   1.406 -0.1906  0.2085  0.3370
 5891TIP3    H141868   2.942   0.221   1.408 -0.0699  0.4854  1.3285
 5891TIP3    H241869   3.029   0.122   1.334 -1.5329 -0.6345  1.0465
 5892TIP3   OH241870   6.862   1.859   0.957 -0.5421  0.3776  0.5906
 5892TIP3    H141871   6.812   1.921   0.904  0.7483  1.2804  0.4023
 5892TIP3    H241872   6.890   1.910   1.033 -0.5359 -0.3289  1.0772
 5893TIP3   OH241873   2.987   6.338   2.888 -0.3128  0.4220  0.3734
 5893TIP3    H141874   2.982   6.243   2.882 -0.2109  0.4514 -0.2273
 5893TIP3    H241875   2.910   6.363   2.940  0.3165 -0.0713  1.6013
 5894TIP3   OH241876   3.999   3.790   1.996 -0.4698 -0.4657  0.2996
 5894TIP3    H141877   4.045   3.871   2.016 -0.9104 -0.4717  1.3830
 5894TIP3    H241878   4.040   3.759   1.915 -0.9320  1.3011 -0.6574
 5895TIP3   OH241879   3.869   0.095   0.735 -0.1982  0.1171  0.2603
 5895TIP3    H141880   3.809   0.033   0.776  0.6843 -1.3375 -0.5598
 5895TIP3    H241881   3.846   0.092   0.642  0.1251  0.7405  0.1524
 5896TIP3   OH241882   6.935   3.869   1.607  0.3336  0.1358 -0.0889
 5896TIP3    H141883   7.003   3.848   1.543  1.2898 -0.3132  1.0366
 5896TIP3    H241884   6.919   3.786   1.653 -1.4670  0.0575 -0.7461
 5897TIP3   OH241885   1.240   4.088   2.834  0.0219 -0.8735 -0.4262
 5897TIP3    H141886   1.334   4.108   2.827  0.3493 -1.5965  1.4608
 5897TIP3    H241887   1.237   4.002   2.875 -1.4815 -0.9157 -0.5850
 5898TIP3   OH241888   1.027   1.501   3.193 -0.5367 -0.4764  1.0326
 5898TIP3    H141889   1.099   1.510   3.130 -1.8563 -1.9003 -0.8057
 5898TIP3    H241890   1.040   1.414   3.232 -0.5478 -0.1933  1.6811
 5899TIP3   OH241891   3.538   3.585   0.951 -1.0936 -0.4884  0.7205
 5899TIP3    H141892   3.522   3.678   0.939  0.2136 -0.2313  0.8508
 5899TIP3    H241893   3.455   3.550   0.984 -1.8538  0.4600 -0.1459
 5900TIP3   OH241894   0.224   3.344   2.680 -0.4392 -0.1988 -0.1815
 5900TIP3    H141895   0.131   3.356   2.701 -0.0334  1.4987  0.8568
 5900TIP3    H241896   0.260   3.301   2.757 -0.1216  0.4393  0.0385
 5901TIP3   OH241897   1.240   6.452   0.880  0.0781  0.2967 -0.0510
 5901TIP3    H141898   1.198   6.436   0.795  0.8186  0.3932 -0.4404
 5901TIP3    H241899   1.175   6.425   0.944  0.3961 -2.0717 -0.6437
 5902TIP3   OH241900   0.700   2.291   0.491 -0.5914  0.3630  0.4409
 5902TIP3    H141901   0.622   2.344   0.509 -0.3074  0.9956 -0.1508
 5902TIP3    H241902   0.669   2.222   0.431 -0.3141  1.8207 -1.4824
 5903TIP3   OH241903   0.522   1.153   2.140 -0.1154  0.2709 -0.0170
 5903TIP3    H141904   0.445   1.210   2.135  1.3789  2.6152  1.8648
 5903TIP3    H241905   0.563   1.163   2.054 -1.3135 -0.1799 -0.6724
 5904TIP3   OH241906   1.137   2.418   3.240  0.1686 -0.0682  0.4578
 5904TIP3    H141907   1.220   2.378   3.213  1.1396  2.2076 -0.2430
 5904TIP3    H241908   1.160   2.473   3.315 -1.6498 -2.7773  3.2173
 5905TIP3   OH241909   6.709   6.642   1.227  0.0498  0.0357 -0.7566
 5905TIP3    H141910   6.634   6.585   1.212 -0.2220 -0.9586  3.2105
 5905TIP3    H241911   6.784   6.583   1.231  0.5559  0.6147 -1.4258
 5906TIP3   OH241912   0.507   7.197   1.275  0.4866 -0.5690 -0.4236
 5906TIP3    H141913   0.460   7.258   1.218 -1.7766 -1.7224  0.0941
 5906TIP3    H241914   0.543   7.131   1.215  0.6588 -0.1671 -0.7646
 5907TIP3   OH241915   6.566   6.600   0.543  0.5234  0.4853 -0.1172
 5907TIP3    H141916   6.524   6.543   0.479 -1.2729  0.7095  0.8221
 5907TIP3    H241917   6.608   6.541   0.605  0.7337  0.2394 -0.4927
 5908TIP3   OH241918   0.624   2.821   1.624 -0.4087  0.0032  0.6362
 5908TIP3    H141919   0.676   2.838   1.703  1.2163 -2.2502  0.1462
 5908TIP3    H241920   0.559   2.757   1.652  0.1528 -0.7787  0.2076
 5909TIP3   OH241921   3.989   5.378   1.198  0.4696  0.6001 -0.0036
 5909TIP3    H141922   4.033   5.450   1.154 -0.3144 -0.7416 -3.2939
 5909TIP3    H241923   4.049   5.304   1.189 -0.6112 -0.2259 -0.8313
 5910TIP3   OH241924   6.717   6.195   2.098  0.1321  0.3055  0.1115
 5910TIP3    H141925   6.704   6.103   2.076  1.4801 -0.1599  1.1219
 5910TIP3    H241926   6.808   6.201   2.127 -0.0436  1.8800  0.4706
 5911TIP3   OH241927   7.468   4.304   2.127 -0.0317 -0.2129  0.1499
 5911TIP3    H141928   7.548   4.303   2.073 -0.2687 -2.2379 -0.2356
 5911TIP3    H241929   7.498   4.328   2.214  0.8561 -0.1406 -0.1639
 5912TIP3   OH241930   0.689   5.304   1.738 -0.2363 -0.4179  0.1493
 5912TIP3    H141931   0.661   5.221   1.699  0.6465 -1.1511  1.0271
 5912TIP3    H241932   0.670   5.294   1.831  0.0446  0.3035  0.2877
 5913TIP3   OH241933   2.185   2.415   2.222  0.3231  0.7825 -0.1898
 5913TIP3    H141934   2.265   2.396   2.271 -0.9555 -0.2160  1.6046
 5913TIP3    H241935   2.123   2.446   2.287 -1.3221 -0.1982 -1.2094
 5914TIP3   OH241936   7.046   3.767   2.214 -0.0899 -0.2329  0.4144
 5914TIP3    H141937   7.032   3.821   2.291 -3.5300  1.1449 -0.9850
 5914TIP3    H241938   6.981   3.697   2.221 -0.8118  0.1980 -1.4204
 5915TIP3   OH241939   1.600   1.192   1.808 -0.5064 -0.0644 -0.4199
 5915TIP3    H141940   1.578   1.261   1.872  0.0006  0.1850 -0.5077
 5915TIP3    H241941   1.622   1.116   1.862 -0.4668  0.0268 -0.3058
 5916TIP3   OH241942   4.967   0.149   1.165  0.0416 -0.5500  0.8156
 5916TIP3    H141943   5.061   0.138   1.176  0.1596 -0.3373  0.0611
 5916TIP3    H241944   4.958   0.232   1.119 -0.6027  0.3151  2.4055
 5917TIP3   OH241945   6.040   3.768   1.665 -0.0547 -0.0813 -0.1482
 5917TIP3    H141946   6.113   3.816   1.705  1.1018 -1.5055 -0.4770
 5917TIP3    H241947   6.071   3.749   1.576  0.2262 -2.7938  0.4503
 5918TIP3   OH241948   5.660   4.989   0.770  0.5122 -0.4478 -0.4824
 5918TIP3    H141949   5.647   4.967   0.862 -1.4803 -0.6283 -0.7600
 5918TIP3    H241950   5.744   5.035   0.768  0.4224 -0.0946  1.4823
 5919TIP3   OH241951   1.057   0.236   2.379 -0.4700  0.1605 -0.2851
 5919TIP3    H141952   1.101   0.151   2.377  0.3775  0.3362  3.2557
 5919TIP3    H241953   0.965   0.214   2.395 -0.3992 -0.1012 -0.2297
 5920TIP3   OH241954   0.168   3.485   3.374 -0.0998 -0.3164 -0.2427
 5920TIP3    H141955   0.153   3.391   3.379 -0.2163 -0.3603 -1.1881
 5920TIP3    H241956   0.227   3.496   3.299  0.0849  0.3453 -0.0111
 5921TIP3   OH241957   6.198   0.179   3.295  0.2806  0.2624  0.1067
 5921TIP3    H141958   6.240   0.263   3.312  0.6709 -0.0448  0.6821
 5921TIP3    H241959   6.105   0.196   3.309  0.3437  0.6255  0.0957
 5922TIP3   OH241960   3.348   4.570   1.536  0.3364  0.3573 -0.3445
 5922TIP3    H141961   3.292   4.546   1.462 -1.9384 -1.4324  1.7574
 5922TIP3    H241962   3.297   4.635   1.584  0.8608  0.0389  0.6718
 5923TIP3   OH241963   4.949   0.486   0.367 -0.3264  0.4049  0.4115
 5923TIP3    H141964   5.000   0.406   0.367 -1.5192 -0.4225 -1.4625
 5923TIP3    H241965   4.862   0.459   0.397 -1.0028  0.7617 -1.1290
 5924TIP3   OH241966   7.254   3.986   1.604 -0.0092 -0.6607  0.2919
 5924TIP3    H141967   7.267   3.908   1.658 -0.2358 -0.3361  0.8209
 5924TIP3    H241968   7.168   4.020   1.629  0.4960  0.3136  0.7975
 5925TIP3   OH241969   4.496   3.300   1.210 -0.2424 -0.1131  0.7103
 5925TIP3    H141970   4.577   3.274   1.165  0.6084  0.4616  1.8623
 5925TIP3    H241971   4.445   3.219   1.216  0.2200 -0.4754 -0.0566
 5926TIP3   OH241972   0.780   4.974   1.445  0.6590  0.0345 -0.1710
 5926TIP3    H141973   0.824   4.919   1.380  2.6405 -0.2049  1.2815
 5926TIP3    H241974   0.823   5.059   1.439  0.4232  0.2015  0.3800
 5927TIP3   OH241975   5.391   2.102   2.773 -0.6686 -0.4130  0.0465
 5927TIP3    H141976   5.360   2.192   2.781  0.4265 -0.0065 -0.0096
 5927TIP3    H241977   5.464   2.097   2.835  0.1695 -0.8254 -0.9350
 5928TIP3   OH241978   1.082   7.539   2.053 -0.1184 -0.2704 -0.3803
 5928TIP3    H141979   1.143   7.517   1.983 -0.5186 -0.4069 -0.6864
 5928TIP3    H241980   0.995   7.522   2.016 -0.3300 -4.8357  1.5412
 5929TIP3   OH241981   1.532   3.314   2.421 -0.3803  0.1805  0.0560
 5929TIP3    H141982   1.533   3.272   2.335 -0.0546  0.9531 -0.3239
 5929TIP3    H241983   1.624   3.327   2.442 -0.4546  2.8181 -0.9012
 5930TIP3   OH241984   0.636   5.017   2.998 -0.3287 -0.4008 -0.6525
 5930TIP3    H141985   0.696   4.961   2.949  1.8603  1.1934  0.0279
 5930TIP3    H241986   0.565   5.036   2.936 -0.3632 -2.6093 -1.3821
 5931TIP3   OH241987   6.667   1.851   2.206  0.3465  0.2605 -0.9701
 5931TIP3    H141988   6.673   1.756   2.220  2.2052  0.2609 -1.5237
 5931TIP3    H241989   6.654   1.860   2.111  3.2386  0.5497 -1.4449
 5932TIP3   OH241990   6.113   1.561   3.197 -0.0594 -0.7991 -0.0738
 5932TIP3    H141991   6.118   1.474   3.157 -1.2197 -1.0735  0.3446
 5932TIP3    H241992   6.195   1.603   3.172  0.1347 -1.6944 -1.0267
 5933TIP3   OH241993   6.659   1.941   3.160 -0.1541 -0.1717 -0.5275
 5933TIP3    H141994   6.702   2.001   3.221 -0.5888 -0.9205  0.5350
 5933TIP3    H241995   6.713   1.945   3.081  1.6015 -0.7029  0.5948
 5934TIP3   OH241996   3.998   7.291   1.188 -0.0795 -0.1851 -0.2067
 5934TIP3    H141997   4.053   7.249   1.255 -0.3417 -0.2896 -0.0563
 5934TIP3    H241998   3.993   7.227   1.117 -1.6873 -1.0475  0.6253
 5935TIP3   OH241999   4.297   2.400   2.089 -0.3592 -0.0828 -0.1818
 5935TIP3    H142000   4.249   2.472   2.130 -0.4187  0.2070 -0.7458
 5935TIP3    H242001   4.248   2.321   2.113 -0.7342  0.1449 -0.1979
 5936TIP3   OH242002   7.160   6.556   1.269 -0.4912  0.5151 -0.5868
 5936TIP3    H142003   7.121   6.595   1.347  1.2391 -0.5760  0.8903
 5936TIP3    H242004   7.252   6.580   1.272 -0.3191  0.1819 -2.1337
 5937TIP3   OH242005   0.753   2.828   2.639 -0.1623  0.3836 -0.2193
 5937TIP3    H142006   0.689   2.823   2.568  2.1127  1.3799 -2.5193
 5937TIP3    H242007   0.747   2.919   2.670 -1.4976 -0.1832  1.2795
 5938TIP3   OH242008   4.040   4.988   2.474  0.2174  0.1454 -0.2585
 5938TIP3    H142009   4.128   4.964   2.504 -0.1819 -0.0386  0.8057
 5938TIP3    H242010   3.991   5.006   2.555 -0.6490  0.4999 -0.8496
 5939TIP3   OH242011   6.305   2.546   1.741 -0.0856  0.0240 -0.1263
 5939TIP3    H142012   6.261   2.525   1.659 -0.2046 -1.5593  0.3065
 5939TIP3    H242013   6.254   2.618   1.779 -0.4820  0.2420 -1.0528
 5940TIP3   OH242014   4.266   5.053   0.527 -0.5405  0.9586  0.6175
 5940TIP3    H142015   4.324   4.978   0.539 -0.6125  0.6960 -0.5541
 5940TIP3    H242016   4.198   5.021   0.468  0.5098  2.4775 -1.5498
 5941TIP3   OH242017   2.111   4.980   1.048 -0.2295  0.0523 -0.3842
 5941TIP3    H142018   2.090   5.069   1.023  0.7959  0.6637  0.7927
 5941TIP3    H242019   2.182   4.989   1.112  0.9925 -1.6868 -1.4148
 5942TIP3   OH242020   1.596   3.789   1.809 -0.0407 -0.0953 -0.5345
 5942TIP3    H142021   1.685   3.752   1.813 -0.0108  0.0229  0.0001
 5942TIP3    H242022   1.553   3.755   1.888  0.1656  1.4712  0.2787
 5943TIP3   OH242023   5.553   4.068   1.634  0.4445  0.5183  0.5314
 5943TIP3    H142024   5.637   4.096   1.598  0.0109  0.2540 -0.7360
 5943TIP3    H242025   5.550   3.974   1.615 -0.5851  0.7249 -0.3823
 5944TIP3   OH242026   4.069   6.470   2.547  0.3288 -0.4182 -0.0520
 5944TIP3    H142027   4.088   6.475   2.453 -0.2980 -2.1894 -0.3130
 5944TIP3    H242028   4.152   6.491   2.589  0.4162  1.2583 -0.9557
 5945TIP3   OH242029   5.541   2.250   1.928 -0.3772 -0.0120  0.0078
 5945TIP3    H142030   5.606   2.305   1.885 -0.1739  0.2289  0.6223
 5945TIP3    H242031   5.478   2.229   1.858 -0.1174  0.4739 -0.3786
 5946TIP3   OH242032   6.831   4.820   1.276  0.5375  0.3165 -0.1402
 5946TIP3    H142033   6.765   4.801   1.343  0.2498  0.9869 -0.2281
 5946TIP3    H242034   6.913   4.824   1.325  0.6016 -1.0499 -0.1094
 5947TIP3   OH242035   5.634   3.574   1.338  0.8846  0.4175  0.0994
 5947TIP3    H142036   5.624   3.534   1.251  0.4925 -1.3607  0.9164
 5947TIP3    H242037   5.716   3.538   1.371 -0.4076 -1.3478  1.6194
 5948TIP3   OH242038   1.916   0.694   2.187 -0.2797 -0.3987 -0.3635
 5948TIP3    H142039   1.952   0.770   2.143  3.3631 -0.7117  1.6751
 5948TIP3    H242040   1.945   0.703   2.278 -1.2982 -3.2837  0.3627
 5949TIP3   OH242041   7.208   4.787   2.266  0.5147 -0.1414 -0.6109
 5949TIP3    H142042   7.250   4.731   2.200  3.1056  0.1575  0.6762
 5949TIP3    H242043   7.257   4.869   2.262  0.5556 -0.0279  1.4734
 5950TIP3   OH242044   2.194   3.073   0.885  0.6459  0.1575  0.1173
 5950TIP3    H142045   2.269   3.120   0.848 -0.2493 -0.1548 -2.2759
 5950TIP3    H242046   2.224   2.982   0.893  0.7267  0.1560 -0.2066
 5951TIP3   OH242047   3.956   5.322   2.249  0.1552  0.5919 -0.7232
 5951TIP3    H142048   3.880   5.265   2.239 -0.1425  1.1359 -1.6683
 5951TIP3    H242049   4.002   5.287   2.325 -1.0320  0.2543 -0.1336
 5952TIP3   OH242050   3.494   0.069   2.596  0.6914  0.0907 -0.4172
 5952TIP3    H142051   3.476   0.150   2.549  3.1880  1.5437  0.9372
 5952TIP3    H242052   3.574   0.087   2.646 -0.9110 -1.8058  3.2318
 5953TIP3   OH242053   0.352   0.855   2.814  0.2601 -0.4162 -0.1216
 5953TIP3    H142054   0.391   0.778   2.773  1.6856  0.2758 -0.1240
 5953TIP3    H242055   0.424   0.919   2.818 -0.0120 -0.1819  2.7692
 5954TIP3   OH242056   6.845   5.860   2.378 -0.1280 -0.1161 -0.0409
 5954TIP3    H142057   6.864   5.872   2.285  1.4842  1.4177  0.4367
 5954TIP3    H242058   6.797   5.939   2.403  2.7976  1.4393  1.1927
 5955TIP3   OH242059   3.698   4.097   2.126  0.5105 -0.3900  0.3710
 5955TIP3    H142060   3.710   4.019   2.179 -0.6946 -0.1971  0.9608
 5955TIP3    H242061   3.659   4.065   2.044 -0.8274 -0.3479  0.9591
 5956TIP3   OH242062   1.344   0.724   8.630  0.2172  0.0244 -0.2208
 5956TIP3    H142063   1.408   0.697   8.565  1.1784  2.8369 -0.5693
 5956TIP3    H242064   1.266   0.746   8.580  0.6676  1.3307 -0.4036
 5957TIP3   OH242065   4.013   1.594   2.390  0.2022 -0.2213  0.6058
 5957TIP3    H142066   3.952   1.548   2.447 -1.2820  1.2155  0.2940
 5957TIP3    H242067   4.094   1.599   2.439 -0.9452  0.7338  2.5216
 5958TIP3   OH242068   6.212   6.345   2.270 -0.0839 -0.1466  0.1059
 5958TIP3    H142069   6.132   6.380   2.230  0.3177 -0.2314 -0.7947
 5958TIP3    H242070   6.207   6.251   2.255 -0.0067 -0.1976  0.3999
 5959TIP3   OH242071   3.757   0.681   2.480  0.0980 -0.0986 -0.3245
 5959TIP3    H142072   3.769   0.750   2.545 -2.1710  0.9308 -0.9140
 5959TIP3    H242073   3.743   0.602   2.533 -1.1255  0.6113  0.4742
 5960TIP3   OH242074   1.140   4.451   2.518  1.1623  0.1956 -0.3524
 5960TIP3    H142075   1.172   4.460   2.608 -0.2887 -0.6536  0.2908
 5960TIP3    H242076   1.044   4.448   2.527  0.5943  4.6666 -2.3404
 5961TIP3   OH242077   5.083   3.476   0.975 -0.1208  0.0503 -0.3639
 5961TIP3    H142078   5.056   3.397   1.022  1.6276 -1.3519 -1.5727
 5961TIP3    H242079   5.079   3.452   0.883 -0.7653  1.8196 -0.8322
 5962TIP3   OH242080   1.651   5.244   0.983 -0.0689 -0.2889  0.2389
 5962TIP3    H142081   1.580   5.210   1.037 -0.6901 -0.5658 -0.7139
 5962TIP3    H242082   1.671   5.329   1.020 -0.8165 -0.2605  0.5971
 5963TIP3   OH242083   6.529   7.100   1.442  0.7945  0.1174  0.1138
 5963TIP3    H142084   6.577   7.113   1.360  1.2658 -0.6401  0.2567
 5963TIP3    H242085   6.561   7.170   1.499  1.3476 -0.0621  0.0346
 5964TIP3   OH242086   3.148   0.901   0.768 -0.2974 -0.3492 -0.8176
 5964TIP3    H142087   3.219   0.844   0.798  0.6389  0.8205 -0.6974
 5964TIP3    H242088   3.175   0.989   0.796 -2.7310 -0.0624  0.9391
 5965TIP3   OH242089   5.287   2.062   3.254  0.0908 -0.0360  0.0300
 5965TIP3    H142090   5.323   2.099   3.334 -1.1789 -0.1962  0.6992
 5965TIP3    H242091   5.314   2.123   3.185  1.4878 -0.0762  0.4996
 5966TIP3   OH242092   1.943   6.624   2.076  0.4046 -0.5316  0.0206
 5966TIP3    H142093   1.870   6.668   2.032 -1.2528 -2.3485  0.7821
 5966TIP3    H242094   2.020   6.648   2.025 -0.4440  2.6200  0.0051
 5967TIP3   OH242095   3.366   3.750   0.401 -0.1753  0.1753  0.3832
 5967TIP3    H142096   3.396   3.676   0.453  0.0124  0.1125  0.1872
 5967TIP3    H242097   3.412   3.741   0.317 -0.4225  0.3109  0.2299
 5968TIP3   OH242098   5.246   5.450   2.216 -0.3518 -0.3183  0.0272
 5968TIP3    H142099   5.259   5.545   2.215  0.4840 -0.3966  0.9168
 5968TIP3    H242100   5.275   5.421   2.129 -3.0487  0.4779 -1.2326
 5969TIP3   OH242101   5.471   6.457   1.563 -0.8917  0.1436 -0.9647
 5969TIP3    H142102   5.538   6.512   1.523  0.3806 -0.6475 -0.0136
 5969TIP3    H242103   5.517   6.410   1.633 -2.5841  0.0290  0.1380
 5970TIP3   OH242104   2.065   3.175   2.036  0.0408 -0.0997 -0.3121
 5970TIP3    H142105   2.157   3.147   2.039  0.0808 -0.0425 -0.9735
 5970TIP3    H242106   2.063   3.245   1.970 -0.5944 -0.5425 -0.7701
 5971TIP3   OH242107   1.022   3.506   0.807 -0.2074 -0.0540 -0.2289
 5971TIP3    H142108   1.102   3.547   0.841  0.8405 -1.6222 -0.7029
 5971TIP3    H242109   0.962   3.506   0.882  1.2240 -1.3051  1.0042
 5972TIP3   OH242110   2.084   1.525   1.094  0.0118  0.4949 -0.6204
 5972TIP3    H142111   2.060   1.601   1.147 -0.3672  0.3315 -0.5477
 5972TIP3    H242112   2.002   1.474   1.088 -0.5072  1.4810 -3.0203
 5973TIP3   OH242113   6.163   5.545   0.842  0.6264  0.5650 -0.0850
 5973TIP3    H142114   6.188   5.626   0.797 -0.2888  2.4103  2.4542
 5973TIP3    H242115   6.215   5.545   0.922  1.4938 -2.0686 -0.5668
 5974TIP3   OH242116   2.490   0.017   1.565  0.0954 -0.3211  0.2129
 5974TIP3    H142117   2.569   0.062   1.593 -1.1845  1.5959  0.9361
 5974TIP3    H242118   2.467   0.059   1.481 -0.3821 -0.5516  0.2237
 5975TIP3   OH242119   2.536   0.632   0.909 -0.4098  0.5524 -0.1445
 5975TIP3    H142120   2.463   0.603   0.963 -0.2818 -0.8486 -0.6703
 5975TIP3    H242121   2.585   0.551   0.889  0.9140  1.3688 -0.3318
 5976TIP3   OH242122   6.030   7.128   1.913  0.3552 -0.3995  0.6252
 5976TIP3    H142123   6.056   7.103   2.002 -0.1759  2.0521  1.5503
 5976TIP3    H242124   6.046   7.223   1.909 -1.0067 -0.1951 -1.4186
 5977TIP3   OH242125   7.046   6.027   1.610 -0.1959  0.0544  0.3651
 5977TIP3    H142126   7.033   6.086   1.536 -0.3694 -1.3308 -0.7434
 5977TIP3    H242127   6.975   6.048   1.671 -0.9704  0.1710 -0.5568
 5978TIP3   OH242128   0.214   6.226   1.481 -0.0107 -0.2366  0.1841
 5978TIP3    H142129   0.187   6.237   1.390 -1.3095 -0.9305  0.4575
 5978TIP3    H242130   0.202   6.312   1.521  0.5791  0.0732 -0.2947
 5979TIP3   OH242131   1.615   7.011   0.822 -0.0918 -0.5525 -0.0016
 5979TIP3    H142132   1.633   7.098   0.859 -0.4928 -0.6455  0.4297
 5979TIP3    H242133   1.650   7.014   0.733 -2.1685  0.8577 -0.8454
 5980TIP3   OH242134   1.852   5.261   0.321 -0.0122  0.7166  0.1913
 5980TIP3    H142135   1.819   5.334   0.375 -2.1069  0.1558 -0.2404
 5980TIP3    H242136   1.786   5.193   0.331  1.1811 -0.5979 -0.5801
 5981TIP3   OH242137   6.247   0.100   1.571 -0.1805 -0.3757 -0.0108
 5981TIP3    H142138   6.156   0.070   1.574  0.0227 -1.0998 -0.6227
 5981TIP3    H242139   6.298   0.019   1.566  0.5127  0.0145  0.5192
 5982TIP3   OH242140   0.907   0.267   1.701  0.3246  0.1926 -0.0473
 5982TIP3    H142141   0.919   0.300   1.790 -0.4655 -1.2879  0.6433
 5982TIP3    H242142   0.823   0.221   1.703  0.4828 -0.2149 -1.4551
 5983TIP3   OH242143   2.842   5.024   1.795 -0.4310  0.2701  0.5472
 5983TIP3    H142144   2.873   5.070   1.717  0.1707 -0.6653  0.2110
 5983TIP3    H242145   2.900   5.053   1.865 -0.9426  1.0755  0.6485
 5984TIP3   OH242146   3.506   6.542   2.197 -0.2179  0.3468 -0.0161
 5984TIP3    H142147   3.510   6.572   2.106  1.8643 -4.5914 -1.9014
 5984TIP3    H242148   3.563   6.602   2.245 -0.8093  2.6818 -2.0190
 5985TIP3   OH242149   3.254   6.636   0.971  0.1831  0.2754  0.3781
 5985TIP3    H142150   3.317   6.583   1.019 -0.0180  0.3406  0.7146
 5985TIP3    H242151   3.273   6.618   0.879  0.6229  0.2177  0.4809
 5986TIP3   OH242152   2.410   4.315   0.411  0.2371  0.1691 -0.1131
 5986TIP3    H142153   2.397   4.383   0.345  0.5983 -0.0137 -0.3762
 5986TIP3    H242154   2.436   4.362   0.490  1.0289  0.3017 -0.4470
 5987TIP3   OH242155   6.657   5.109   0.636  0.7265 -0.6810  0.7192
 5987TIP3    H142156   6.681   5.140   0.723  0.1750 -0.4394  0.7858
 5987TIP3    H242157   6.692   5.019   0.632 -1.8154 -1.8472  2.3304
 5988TIP3   OH242158   3.047   7.193   1.110  0.0507  0.5288  0.1843
 5988TIP3    H142159   3.053   7.152   1.197  0.1388 -0.1400 -0.1314
 5988TIP3    H242160   2.953   7.204   1.096  0.0515  1.1358  0.5830
 5989TIP3   OH242161   6.522   4.936   2.826 -0.4845  0.1407  0.1109
 5989TIP3    H142162   6.435   4.975   2.821  0.0463  1.2691 -0.8540
 5989TIP3    H242163   6.521   4.885   2.907 -1.5514  1.3628  0.9098
 5990TIP3   OH242164   2.104   7.253   2.385  0.1075  0.0825 -0.6439
 5990TIP3    H142165   2.077   7.211   2.466 -1.4769 -1.2217 -1.7795
 5990TIP3    H242166   2.130   7.342   2.411 -0.7215 -0.1814  1.2243
 5991TIP3   OH242167   5.257   0.666   2.686 -0.2679 -0.1745  0.0233
 5991TIP3    H142168   5.272   0.743   2.741  0.0853 -0.2149 -0.0164
 5991TIP3    H242169   5.338   0.656   2.636 -1.1600  0.8544 -1.7315
 5992TIP3   OH242170   4.827   6.177   1.261 -0.9299 -0.2602  0.2251
 5992TIP3    H142171   4.840   6.271   1.274 -0.3268 -0.2504 -0.3763
 5992TIP3    H242172   4.809   6.143   1.348 -1.4852  0.4583  0.4046
 5993TIP3   OH242173   7.385   2.699   1.918  0.8714  0.3829 -0.6807
 5993TIP3    H142174   7.390   2.794   1.925 -0.2204  0.3350  1.4174
 5993TIP3    H242175   7.454   2.666   1.976 -0.5336 -0.0712  0.8058
 5994TIP3   OH242176   3.552   2.185   2.267 -0.1595  0.1795  0.5239
 5994TIP3    H142177   3.613   2.112   2.257  0.3429  0.9132 -2.9915
 5994TIP3    H242178   3.591   2.240   2.336  2.9819  0.3545 -1.2331
 5995TIP3   OH242179   7.105   4.944   1.389 -0.4113 -0.3626 -0.2204
 5995TIP3    H142180   7.140   4.922   1.475 -0.8793 -0.3901 -0.0353
 5995TIP3    H242181   7.075   5.034   1.398  3.1401  1.1324 -1.4707
 5996TIP3   OH242182   4.449   7.199   1.360  0.0083 -0.3814 -0.0803
 5996TIP3    H142183   4.435   7.246   1.278 -0.0438 -0.8881 -0.3670
 5996TIP3    H242184   4.386   7.238   1.421 -0.0957 -0.1441 -0.3355
 5997TIP3   OH242185   1.735   4.030   2.660 -0.5665  0.1396  0.0860
 5997TIP3    H142186   1.657   4.029   2.715 -1.1727 -0.5062 -0.7583
 5997TIP3    H242187   1.735   4.116   2.620 -0.3983  0.4304  0.6907
 5998TIP3   OH242188   7.357   5.067   0.707 -0.1229  0.4334 -0.2243
 5998TIP3    H142189   7.342   5.003   0.777 -1.5534  0.6393 -0.3035
 5998TIP3    H242190   7.422   5.127   0.743 -1.6419  1.1943  1.4220
 5999TIP3   OH242191   5.650   6.297   2.169  0.2285 -0.3823 -0.4657
 5999TIP3    H142192   5.629   6.364   2.104 -0.5689  0.4972  0.6505
 5999TIP3    H242193   5.705   6.234   2.122 -1.7689 -0.7561 -2.5012
 6000TIP3   OH242194   3.252   2.722   1.913  0.1877 -0.3226  0.4519
 6000TIP3    H142195   3.259   2.694   1.821 -1.2693  0.2831  0.1159
 6000TIP3    H242196   3.251   2.817   1.909  1.6743 -0.2521  1.2678
 6001TIP3   OH242197   3.402   6.521   1.208 -0.2809 -0.4366 -0.0987
 6001TIP3    H142198   3.392   6.449   1.272  1.1956 -1.2315 -0.7001
 6001TIP3    H242199   3.466   6.487   1.145  0.3253  1.3581 -0.4938
 6002TIP3   OH242200   4.694   4.278   1.308 -0.4460  0.6150  0.0434
 6002TIP3    H142201   4.648   4.324   1.378 -1.4452 -1.0677  0.5605
 6002TIP3    H242202   4.766   4.234   1.352  0.7802  1.9873 -0.5214
 6003TIP3   OH242203   1.422   4.492   3.116 -0.0868 -0.1211  0.0968
 6003TIP3    H142204   1.402   4.585   3.117  2.1935  0.4319  2.5899
 6003TIP3    H242205   1.346   4.451   3.158 -0.5706  0.7183  0.0647
 6004TIP3   OH242206   5.785   6.984   1.859 -0.2113  0.0232 -0.0605
 6004TIP3    H142207   5.851   7.051   1.878  1.7020 -1.8310  0.2474
 6004TIP3    H242208   5.795   6.968   1.765 -1.9782  1.4133 -0.5406
 6005TIP3   OH242209   2.361   1.130   0.943 -0.5607  0.5440  0.0457
 6005TIP3    H142210   2.268   1.108   0.951 -0.5303  0.8338  1.4426
 6005TIP3    H242211   2.366   1.188   0.867 -1.5624  0.7655  0.1429
 6006TIP3   OH242212   5.087   6.423   2.500 -0.0567 -0.5689  0.2644
 6006TIP3    H142213   5.017   6.361   2.519  0.2007 -0.5681  1.2622
 6006TIP3    H242214   5.113   6.404   2.410 -1.0555 -0.8403  0.0255
 6007TIP3   OH242215   4.029   3.856   2.309 -0.1448 -0.1689 -0.1867
 6007TIP3    H142216   3.993   3.821   2.390 -1.7214 -0.6655 -1.0658
 6007TIP3    H242217   4.067   3.940   2.334 -1.1019 -0.0473  0.9613
 6008TIP3   OH242218   6.242   5.950   0.888 -0.7577 -0.2796 -0.2028
 6008TIP3    H142219   6.318   5.960   0.830  1.8635 -1.3379  2.7733
 6008TIP3    H242220   6.173   5.916   0.831  1.8248 -2.0314 -2.5582
 6009TIP3   OH242221   7.351   6.757   0.951 -0.1738 -0.4090 -0.1420
 6009TIP3    H142222   7.418   6.818   0.921  0.5951 -1.0125  0.3123
 6009TIP3    H242223   7.288   6.812   0.997 -0.8807  0.4024 -1.9667
 6010TIP3   OH242224   5.086   2.584   2.426 -0.2525  0.3626 -0.3698
 6010TIP3    H142225   5.168   2.576   2.377 -0.3710  2.8655 -1.1450
 6010TIP3    H242226   5.039   2.656   2.382 -1.2536  1.3814  2.1862
 6011TIP3   OH242227   4.343   6.389   2.107 -0.3384  0.4044 -0.0628
 6011TIP3    H142228   4.382   6.316   2.059 -0.6404  0.7328 -0.8266
 6011TIP3    H242229   4.411   6.456   2.109  0.0894 -0.0393  1.0071
 6012TIP3   OH242230   5.243   4.989   2.210  0.1688  0.2417 -0.1605
 6012TIP3    H142231   5.318   4.959   2.263  0.6261 -0.1434 -1.0064
 6012TIP3    H242232   5.187   5.034   2.272  0.2255 -1.0331  0.8697
 6013TIP3   OH242233   0.745   6.470   2.952  0.1088 -0.2363  0.5769
 6013TIP3    H142234   0.727   6.530   2.880  1.1459 -1.0326 -0.3698
 6013TIP3    H242235   0.662   6.467   3.001 -1.2510 -1.1202 -1.6436
 6014TIP3   OH242236   4.559   5.419   0.933  0.0178 -0.1268  0.1848
 6014TIP3    H142237   4.589   5.490   0.877 -1.0103  0.0025 -0.2143
 6014TIP3    H242238   4.483   5.454   0.979 -0.3197 -0.8632  0.2104
 6015TIP3   OH242239   6.102   5.114   2.300 -0.3724 -0.4404 -0.0259
 6015TIP3    H142240   6.172   5.112   2.235 -0.4071  0.7499 -0.1264
 6015TIP3    H242241   6.141   5.155   2.377 -0.3175 -1.8766  0.7543
 6016TIP3   OH242242   1.675   5.948   2.482 -0.0664  0.3541  0.0652
 6016TIP3    H142243   1.621   6.009   2.531 -0.1750 -0.0716  0.4781
 6016TIP3    H242244   1.613   5.890   2.438  0.0497 -0.0185  0.3911
 6017TIP3   OH242245   0.543   6.573   2.078 -0.2145  0.0485 -0.1917
 6017TIP3    H142246   0.638   6.569   2.083 -0.1803  1.4546  0.8835
 6017TIP3    H242247   0.522   6.666   2.080 -1.6593 -0.2511  0.7003
 6018TIP3   OH242248   5.420   2.628   2.786  0.0867 -0.4209 -0.4029
 6018TIP3    H142249   5.380   2.674   2.860  0.4723  1.2335 -1.1627
 6018TIP3    H242250   5.462   2.698   2.735  0.2365 -1.5737 -1.9196
 6019TIP3   OH242251   5.913   3.507   1.417 -0.1667 -0.0275  0.4793
 6019TIP3    H142252   5.988   3.533   1.471 -2.0229  1.0619  2.6935
 6019TIP3    H242253   5.928   3.551   1.333  0.7960  1.6946  1.4775
 6020TIP3   OH242254   1.214   1.878   3.171 -0.1076  0.3735  0.4138
 6020TIP3    H142255   1.174   1.818   3.233  0.4207 -0.8468 -0.3856
 6020TIP3    H242256   1.218   1.962   3.217 -0.9761 -0.1664  1.5074
 6021TIP3   OH242257   6.623   4.210   1.516  0.5302  0.1297 -0.3059
 6021TIP3    H142258   6.610   4.154   1.593  1.9758 -0.1362 -0.2358
 6021TIP3    H242259   6.718   4.211   1.503  0.4556  1.7642 -0.9086
 6022TIP3   OH242260   1.350   1.778   1.727  0.5424  0.5332  0.3442
 6022TIP3    H142261   1.441   1.793   1.751  0.1752  1.7444  1.1155
 6022TIP3    H242262   1.307   1.752   1.809 -0.1610  1.8510  0.4250
 6023TIP3   OH242263   0.464   5.110   1.184 -0.1514 -0.7450  0.4025
 6023TIP3    H142264   0.497   5.127   1.272  0.0805  0.1556  0.1507
 6023TIP3    H242265   0.541   5.084   1.134  0.1192  0.8202 -0.0480
 6024TIP3   OH242266   5.790   5.211   1.879 -0.4467  0.2664 -0.2974
 6024TIP3    H142267   5.784   5.150   1.806  1.9740  2.0650 -2.1324
 6024TIP3    H242268   5.835   5.162   1.948  1.5975 -0.0359 -1.7878
 6025TIP3   OH242269   6.565   3.968   1.805 -0.4350 -0.3853 -0.1745
 6025TIP3    H142270   6.645   4.018   1.812 -1.2460  0.7098  2.5037
 6025TIP3    H242271   6.589   3.879   1.832  0.1884 -0.5104 -1.0964
 6026TIP3   OH242272   3.286   4.376   1.069  0.2768  0.1023 -0.4972
 6026TIP3    H142273   3.201   4.358   1.030  0.3716  1.6048 -1.4894
 6026TIP3    H242274   3.319   4.291   1.097 -1.9560 -0.4139  0.8082
 6027TIP3   OH242275   0.478   0.517   1.640  0.5823 -0.4040  0.3275
 6027TIP3    H142276   0.497   0.590   1.581 -0.3182 -0.7572 -0.4109
 6027TIP3    H242277   0.384   0.502   1.631  0.5189 -0.8025  1.4739
 6028TIP3   OH242278   7.527   1.149   1.976  0.5148  0.0284 -0.2781
 6028TIP3    H142279   7.543   1.175   2.067 -1.3250  0.7816 -0.1467
 6028TIP3    H242280   7.565   1.061   1.970  0.3539 -0.1745  1.3097
 6029TIP3   OH242281   1.156   6.813   1.495  0.0006 -0.5961  0.4124
 6029TIP3    H142282   1.172   6.882   1.560  2.8472 -1.3291  0.6076
 6029TIP3    H242283   1.179   6.853   1.411 -0.4675 -0.6716  0.2424
 6030TIP3   OH242284   4.080   4.008   1.341 -0.4391  1.0484 -0.1387
 6030TIP3    H142285   4.032   3.954   1.404  0.0192  1.8944  0.9662
 6030TIP3    H242286   4.154   3.954   1.314 -1.3432  0.1722 -0.9941
 6031TIP3   OH242287   7.199   1.773   1.441  0.3094  0.0024  0.0854
 6031TIP3    H142288   7.216   1.779   1.535 -0.5099  0.0871  0.2301
 6031TIP3    H242289   7.133   1.839   1.424 -0.4876 -0.8791 -0.3211
 6032TIP3   OH242290   1.302   7.158   1.135  0.1883 -0.2716 -0.6759
 6032TIP3    H142291   1.374   7.110   1.175  1.8336  2.7436  0.2507
 6032TIP3    H242292   1.251   7.191   1.209  1.1623  2.2817 -1.0441
 6033TIP3   OH242293   3.703   1.975   2.286  0.2969 -0.3245 -0.4572
 6033TIP3    H142294   3.739   1.925   2.214  1.6496  0.0797 -0.0967
 6033TIP3    H242295   3.770   1.971   2.354 -0.0077  1.0710 -0.0302
 6034TIP3   OH242296   4.124   1.438   1.135  0.2522  0.2058  0.3509
 6034TIP3    H142297   4.112   1.401   1.222  2.6612  0.1258  0.7259
 6034TIP3    H242298   4.045   1.413   1.087  0.3638 -2.7801  1.4897
 6035TIP3   OH242299   3.042   6.397   1.503 -0.0789 -0.6629 -0.0928
 6035TIP3    H142300   2.972   6.461   1.518 -0.5515 -0.7765 -1.7200
 6035TIP3    H242301   3.023   6.358   1.418  2.9652  0.6429 -1.5479
 6036TIP3   OH242302   3.252   2.495   1.057 -0.3592  0.3758 -0.0514
 6036TIP3    H142303   3.206   2.441   0.992  0.4713  0.1844 -0.4857
 6036TIP3    H242304   3.194   2.570   1.070 -1.4928 -0.5478  0.4895
 6037TIP3   OH242305   6.066   6.211   0.849  0.5306  0.2656 -0.0921
 6037TIP3    H142306   6.092   6.129   0.891 -0.4148 -1.1554 -2.1379
 6037TIP3    H242307   6.146   6.243   0.807  1.4489  1.6257  2.4791
 6038TIP3   OH242308   4.000   6.840   2.617  0.4979 -0.0460  0.1361
 6038TIP3    H142309   4.005   6.751   2.581  1.5984 -0.6413  1.6297
 6038TIP3    H242310   4.020   6.897   2.543  0.5330 -1.0716 -0.6766
 6039TIP3   OH242311   0.901   3.151   1.261 -0.3366  0.0799  0.1369
 6039TIP3    H142312   0.888   3.089   1.333 -1.3755  0.7461  0.5449
 6039TIP3    H242313   0.891   3.237   1.300 -0.9163  0.4588 -0.7901
 6040TIP3   OH242314   1.466   7.452   0.536 -0.4422  0.0853 -0.2735
 6040TIP3    H142315   1.423   7.522   0.486 -1.1991 -0.7960 -0.8984
 6040TIP3    H242316   1.394   7.412   0.586 -0.0365 -0.3041  0.0014
 6041TIP3   OH242317   6.193   2.162   2.983  0.7783 -0.3299 -0.7843
 6041TIP3    H142318   6.284   2.135   3.000  0.4542  0.1576  2.5505
 6041TIP3    H242319   6.141   2.113   3.047 -1.8645 -2.8315 -4.4803
 6042TIP3   OH242320   1.476   3.457   3.458 -0.3303  0.1245 -0.1406
 6042TIP3    H142321   1.417   3.505   3.515 -0.5742 -0.9574  0.5420
 6042TIP3    H242322   1.443   3.368   3.458  1.0444 -0.4052 -0.0968
 6043TIP3   OH242323   3.538   0.283   1.832 -0.9242 -0.3805 -0.4356
 6043TIP3    H142324   3.600   0.347   1.799  0.6809 -1.6439  0.0121
 6043TIP3    H242325   3.574   0.256   1.917 -1.2162 -2.2712 -0.8611
 6044TIP3   OH242326   5.205   0.162   2.682 -0.3955 -0.2009  0.4352
 6044TIP3    H142327   5.237   0.252   2.684 -0.1970 -0.2525 -0.3215
 6044TIP3    H242328   5.266   0.114   2.738 -0.9719  0.2667  1.5181
 6045TIP3   OH242329   5.846   5.417   2.076  0.3955 -0.2678 -0.4986
 6045TIP3    H142330   5.834   5.343   2.017  2.0019 -0.5362 -0.5320
 6045TIP3    H242331   5.759   5.454   2.087  0.0656  0.0274 -3.3539
 6046TIP3   OH242332   5.662   1.061   2.344  0.0318 -0.2608 -0.3552
 6046TIP3    H142333   5.692   1.087   2.431  2.1184 -0.8020 -0.8785
 6046TIP3    H242334   5.647   1.144   2.298  1.7129  0.0467 -0.3856
 6047TIP3   OH242335   3.825   2.505   0.414 -0.1131 -0.4861 -0.1463
 6047TIP3    H142336   3.741   2.537   0.449  0.2964  1.3259 -0.7146
 6047TIP3    H242337   3.826   2.536   0.324  1.1187 -0.6218 -0.1892
 6048TIP3   OH242338   3.666   6.267   2.145  0.3948  0.4204  0.5225
 6048TIP3    H142339   3.742   6.256   2.203  0.5748  0.8212  0.3675
 6048TIP3    H242340   3.604   6.317   2.197 -0.2977 -1.0146  1.1158
 6049TIP3   OH242341   7.391   3.902   1.899  0.7311  0.0905 -0.2799
 6049TIP3    H142342   7.474   3.855   1.909  1.3763  1.0277 -1.0378
 6049TIP3    H242343   7.388   3.962   1.973  1.0043  0.4556 -0.5641
 6050TIP3   OH242344   7.443   1.917   2.331 -0.3987 -0.2969 -0.2238
 6050TIP3    H142345   7.363   1.864   2.323 -0.4639 -0.2134 -0.1180
 6050TIP3    H242346   7.420   2.001   2.291 -0.7982  0.2045  1.0367
 6051TIP3   OH242347   0.848   3.143   1.821  0.1575  0.0589  0.0387
 6051TIP3    H142348   0.813   3.232   1.817  0.2519  0.0617 -1.5761
 6051TIP3    H242349   0.898   3.133   1.740  2.5819 -0.5128  1.5024
 6052TIP3   OH242350   7.034   7.337   2.429  0.2493  0.2721  0.1849
 6052TIP3    H142351   6.952   7.354   2.384 -0.7351 -0.4645  1.6269
 6052TIP3    H242352   7.051   7.416   2.480  0.4425  0.4336 -0.1319
 6053TIP3   OH242353   3.694   0.848   1.424  0.1448 -0.4515 -0.0487
 6053TIP3    H142354   3.717   0.829   1.515  3.0194 -0.1911 -0.6225
 6053TIP3    H242355   3.693   0.762   1.381  0.1339 -0.4648 -0.0215
 6054TIP3   OH242356   3.903   6.736   0.464 -0.0095  0.2147  0.2988
 6054TIP3    H142357   3.931   6.647   0.443 -1.4858  0.2443 -2.1350
 6054TIP3    H242358   3.808   6.733   0.459 -0.0745  1.9967 -0.1708
 6055TIP3   OH242359   1.617   4.001   1.510  0.1832 -0.4655  0.6233
 6055TIP3    H142360   1.672   3.927   1.483 -1.8372 -2.0061  0.4952
 6055TIP3    H242361   1.647   4.022   1.598  0.8265 -1.4266  0.6478
 6056TIP3   OH242362   3.427   0.777   1.226 -0.4022  0.2176 -0.2488
 6056TIP3    H142363   3.331   0.781   1.223 -0.4159  0.5463  0.3669
 6056TIP3    H242364   3.455   0.860   1.186 -0.4242  0.9233  1.1230
 6057TIP3   OH242365   7.307   4.798   1.578  0.2364 -0.9285 -0.1531
 6057TIP3    H142366   7.373   4.750   1.628 -0.1184 -2.0118 -0.6887
 6057TIP3    H242367   7.346   4.809   1.491  0.5290  0.2456  0.1091
 6058TIP3   OH242368   0.448   6.285   2.659 -0.3910 -0.2400  0.3704
 6058TIP3    H142369   0.375   6.230   2.632  0.5881 -0.1325 -3.0367
 6058TIP3    H242370   0.410   6.371   2.675 -1.3061 -0.7728  1.1296
 6059TIP3   OH242371   7.534   0.994   1.100 -0.1084 -1.1865  0.6174
 6059TIP3    H142372   7.582   0.980   1.181 -2.6598 -2.0442  2.0886
 6059TIP3    H242373   7.518   1.088   1.098  1.1174 -0.9593  0.3465
 6060TIP3   OH242374   4.572   2.382   2.387 -0.3463  0.8039  0.3479
 6060TIP3    H142375   4.591   2.372   2.294 -0.3681  1.8582  0.2248
 6060TIP3    H242376   4.481   2.352   2.396 -0.1358  0.0727  0.1616
 6061TIP3   OH242377   1.263   1.623   0.416 -0.6453  0.1600 -0.2131
 6061TIP3    H142378   1.256   1.685   0.488 -0.9702 -1.4284  1.1700
 6061TIP3    H242379   1.202   1.656   0.350 -0.4884  1.5280  0.3040
 6062TIP3   OH242380   7.475   1.835   2.768 -0.1147 -0.1837  0.3874
 6062TIP3    H142381   7.559   1.806   2.803  0.1018 -1.7655 -1.3150
 6062TIP3    H242382   7.497   1.894   2.696 -0.4918 -0.1201  0.3192
 6063TIP3   OH242383   0.968   2.823   1.721 -0.2773  0.7831 -0.5513
 6063TIP3    H142384   0.974   2.732   1.750  1.5113  1.7457  2.5636
 6063TIP3    H242385   0.887   2.855   1.760  0.4060  1.1673  0.5996
 6064TIP3   OH242386   0.410   4.606   2.792  0.1416 -0.0914  0.6598
 6064TIP3    H142387   0.339   4.648   2.742 -0.7431 -2.7224 -0.4947
 6064TIP3    H242388   0.380   4.609   2.883 -1.3444 -0.8161  0.2377
 6065TIP3   OH242389   4.023   1.240   0.327  0.6007 -0.0785  0.0088
 6065TIP3    H142390   4.107   1.227   0.371  0.8965  0.0736 -0.4978
 6065TIP3    H242391   4.024   1.176   0.256  0.6515  0.4816 -0.5036
 6066TIP3   OH242392   4.122   5.828   2.160  0.3592  0.3468 -0.7991
 6066TIP3    H142393   4.112   5.804   2.252  0.2088  0.9494 -0.6554
 6066TIP3    H242394   4.186   5.765   2.126  0.5300  0.2141 -0.2446
 6067TIP3   OH242395   4.220   7.391   0.844  0.4177 -0.1560 -0.2413
 6067TIP3    H142396   4.287   7.324   0.834 -1.1500 -1.4900 -2.8096
 6067TIP3    H242397   4.138   7.342   0.853 -0.6845  1.3860 -1.3490
 6068TIP3   OH242398   0.578   4.786   0.796 -0.1318 -0.3273 -0.2990
 6068TIP3    H142399   0.626   4.703   0.797 -2.5346 -1.8053  0.0784
 6068TIP3    H242400   0.510   4.774   0.731 -0.2066  1.6004 -0.6458
 6069TIP3   OH242401   2.706   4.036   1.161  0.3203  0.2167  0.1294
 6069TIP3    H142402   2.735   3.945   1.165  1.2234  0.5408  1.6767
 6069TIP3    H242403   2.656   4.049   1.242 -3.2329  0.0370 -1.8460
 6070TIP3   OH242404   5.596   5.492   1.198  0.4782  0.4002  0.5966
 6070TIP3    H142405   5.660   5.448   1.141 -0.1397 -0.4898  0.5740
 6070TIP3    H242406   5.649   5.528   1.270  0.9681 -0.7114  0.8157
 6071TIP3   OH242407   6.615   6.754   2.146 -0.0820 -0.0561  0.1422
 6071TIP3    H142408   6.669   6.679   2.173 -0.2806 -0.3960 -0.3846
 6071TIP3    H242409   6.527   6.733   2.178 -0.6310 -1.1186 -1.8657
 6072TIP3   OH242410   2.368   6.716   0.969  0.0583 -0.1517 -0.5056
 6072TIP3    H142411   2.460   6.691   0.965  0.2324  0.4599 -3.8829
 6072TIP3    H242412   2.365   6.800   0.923 -1.6425  2.1734  3.3751
 6073TIP3   OH242413   3.250   5.046   2.557 -0.3128 -0.2356  0.0955
 6073TIP3    H142414   3.270   5.073   2.647  1.6454 -0.3071 -0.2835
 6073TIP3    H242415   3.300   4.966   2.544 -0.0136  0.1492 -1.2842
 6074TIP3   OH242416   7.020   6.944   2.599  0.7599  0.1616 -0.3229
 6074TIP3    H142417   6.965   6.893   2.539 -0.4756  1.0436  0.0135
 6074TIP3    H242418   7.101   6.894   2.606  1.1839  0.3024 -3.1595
 6075TIP3   OH242419   3.279   6.807   0.619  0.7744  0.2927  0.1039
 6075TIP3    H142420   3.311   6.890   0.583  0.5605 -0.9105 -3.1539
 6075TIP3    H242421   3.248   6.830   0.706  2.4012  3.2506  0.0402
 6076TIP3   OH242422   7.324   0.833   1.712  0.4497 -0.1897 -0.3167
 6076TIP3    H142423   7.277   0.884   1.647 -3.0823  0.9354  2.7506
 6076TIP3    H242424   7.379   0.897   1.758 -0.8267  0.1306  0.8491
 6077TIP3   OH242425   3.879   3.195   1.653  0.3374 -0.4459 -0.4111
 6077TIP3    H142426   3.953   3.150   1.612 -0.0003 -0.5240 -0.9370
 6077TIP3    H242427   3.869   3.152   1.738  0.4119 -0.9417 -0.6535
 6078TIP3   OH242428   2.624   0.263   3.159  0.1092  0.3240 -0.0147
 6078TIP3    H142429   2.713   0.239   3.186  0.0117 -0.1617 -0.1217
 6078TIP3    H242430   2.635   0.345   3.111  0.2622  1.3710  1.7284
 6079TIP3   OH242431   5.876   0.223   2.542 -0.0231  0.1399  0.4871
 6079TIP3    H142432   5.827   0.260   2.615 -2.4862 -1.8946  0.0219
 6079TIP3    H242433   5.918   0.145   2.579 -1.3506 -0.9467 -0.2022
 6080TIP3   OH242434   5.388   4.500   2.097 -0.2815 -0.4092  0.5331
 6080TIP3    H142435   5.353   4.411   2.090 -1.0783 -0.0156 -0.5438
 6080TIP3    H242436   5.421   4.520   2.010  0.0883  0.2858  0.8242
 6081TIP3   OH242437   1.198   3.036   1.981 -0.1441 -0.2620  0.3622
 6081TIP3    H142438   1.216   3.101   1.914 -2.7074 -1.1369 -1.3475
 6081TIP3    H242439   1.206   2.952   1.936  0.6716 -1.0456  1.8735
 6082TIP3   OH242440   2.788   3.052   2.238  0.3254  0.0290 -0.0794
 6082TIP3    H142441   2.857   3.118   2.229  1.5026 -1.2022 -0.4588
 6082TIP3    H242442   2.748   3.047   2.151 -0.7846  1.2792  0.3322
 6083TIP3   OH242443   7.353   0.201   1.709 -0.2618 -0.3590 -0.0364
 6083TIP3    H142444   7.290   0.250   1.656  0.0076  0.6515  0.5520
 6083TIP3    H242445   7.378   0.126   1.655  0.3443  0.8856 -1.5247
 6084TIP3   OH242446   7.336   1.876   2.046  0.0264 -0.0704 -0.1409
 6084TIP3    H142447   7.346   1.920   1.962 -1.4169 -0.8746 -0.7741
 6084TIP3    H242448   7.410   1.815   2.050  0.9940  1.0718 -0.0878
 6085TIP3   OH242449   4.310   6.527   0.918  0.3430  0.1592  0.1155
 6085TIP3    H142450   4.280   6.475   0.993  1.0065 -0.3196  0.0676
 6085TIP3    H242451   4.381   6.474   0.880 -0.2745  0.1895 -1.1184
 6086TIP3   OH242452   5.805   5.578   0.620  0.1794 -0.5876 -0.4577
 6086TIP3    H142453   5.849   5.560   0.703 -0.1991 -0.3311 -0.2018
 6086TIP3    H242454   5.742   5.507   0.610 -0.2760 -0.2297 -0.1722
 6087TIP3   OH242455   4.279   3.749   1.340 -1.0143  0.2096  0.3708
 6087TIP3    H142456   4.296   3.689   1.268  1.2930  0.9268  0.2380
 6087TIP3    H242457   4.292   3.696   1.419  0.5816  0.3749  0.2511
 6088TIP3   OH242458   5.129   4.105   0.653 -0.2444 -0.0002 -0.0422
 6088TIP3    H142459   5.080   4.141   0.727 -2.3755 -0.3744 -1.1878
 6088TIP3    H242460   5.156   4.181   0.602  0.8313  0.2341  0.8480
 6089TIP3   OH242461   0.482   6.394   2.987  0.0484  0.5935 -0.3802
 6089TIP3    H142462   0.499   6.300   2.982  0.1529  0.4741  1.5271
 6089TIP3    H242463   0.388   6.402   2.970 -0.6146 -0.2495  2.2826
 6090TIP3   OH242464   4.180   0.292   1.145  0.4497 -0.3042  0.1259
 6090TIP3    H142465   4.132   0.286   1.063  0.4521 -2.5038  0.2250
 6090TIP3    H242466   4.270   0.314   1.120  0.0042  1.1414 -0.2651
 6091TIP3   OH242467   4.425   1.752   0.536  0.4199  0.2737 -0.1302
 6091TIP3    H142468   4.357   1.711   0.589  0.0439 -1.2082 -1.6735
 6091TIP3    H242469   4.505   1.705   0.558 -0.0443 -1.5527 -2.0357
 6092TIP3   OH242470   4.033   2.232   1.682 -0.0370 -0.2344  0.7308
 6092TIP3    H142471   3.975   2.252   1.608  3.3560  0.0016 -2.1187
 6092TIP3    H242472   4.023   2.306   1.741 -2.0840  0.0935  0.0692
 6093TIP3   OH242473   2.617   3.031   1.993  0.5076  0.4627 -0.2416
 6093TIP3    H142474   2.597   3.080   1.913  0.0729 -1.1029 -1.1434
 6093TIP3    H242475   2.535   2.986   2.014  1.4441 -1.6236 -0.7703
 6094TIP3   OH242476   2.551   0.616   2.851  0.3330 -0.4803  0.3860
 6094TIP3    H142477   2.628   0.590   2.901 -0.4068 -0.7241  1.4513
 6094TIP3    H242478   2.528   0.539   2.799 -0.7003 -1.3689  2.0536
 6095TIP3   OH242479   5.233   7.437   2.620  0.3902 -0.1346  0.0127
 6095TIP3    H142480   5.230   7.357   2.566 -3.1394  0.3872 -0.8614
 6095TIP3    H242481   5.271   7.503   2.562  0.0513 -0.4184 -0.5474
 6096TIP3   OH242482   6.999   2.217   2.738  0.1444 -0.2814 -0.2072
 6096TIP3    H142483   6.959   2.179   2.817  0.9173 -1.7532 -0.4932
 6096TIP3    H242484   6.954   2.174   2.666  0.1832  0.2650 -0.5574
 6097TIP3   OH242485   5.469   3.229   2.321 -0.5490 -0.4635  0.0991
 6097TIP3    H142486   5.477   3.324   2.323 -1.4529 -0.3822 -0.0237
 6097TIP3    H242487   5.490   3.204   2.231  1.9608 -0.6188  0.6378
 6098TIP3   OH242488   6.028   0.225   2.821  0.0737  0.3494  0.1030
 6098TIP3    H142489   5.949   0.275   2.839  0.1336 -0.0320  1.5106
 6098TIP3    H242490   5.996   0.141   2.789 -0.0344  0.9487 -1.4599
 6099TIP3   OH242491   5.215   4.816   2.001 -0.6337  0.0237 -0.2825
 6099TIP3    H142492   5.276   4.752   2.037  1.0465  1.0197 -1.1926
 6099TIP3    H242493   5.210   4.885   2.067 -1.6839 -0.5883  0.2831
 6100TIP3   OH242494   3.442   5.825   1.817  0.4837  0.1205 -0.2436
 6100TIP3    H142495   3.489   5.820   1.734 -1.0223  1.2762 -1.1956
 6100TIP3    H242496   3.484   5.758   1.872  2.0571 -0.0805 -1.6238
 6101TIP3   OH242497   5.485   6.964   1.513  0.2499  0.3127 -0.0254
 6101TIP3    H142498   5.392   6.974   1.496  0.0776 -1.2762 -0.2355
 6101TIP3    H242499   5.492   6.878   1.556  1.9301 -1.3011 -3.1419
 6102TIP3   OH242500   5.539   2.838   2.654  0.2228  0.3998 -0.4821
 6102TIP3    H142501   5.594   2.904   2.697 -0.3215  0.4158  0.2230
 6102TIP3    H242502   5.523   2.873   2.567  1.0903  0.5301 -0.5970
 6103TIP3   OH242503   0.454   5.408   1.402  0.2259  0.1320  0.2462
 6103TIP3    H142504   0.518   5.466   1.362 -1.1489  1.5531  0.0205
 6103TIP3    H242505   0.498   5.323   1.406  1.7961  0.8616 -0.6779
 6104TIP3   OH242506   3.546   0.086   1.400  0.8333 -0.0021 -0.7814
 6104TIP3    H142507   3.503   0.095   1.486  2.2048  2.1777 -0.2471
 6104TIP3    H242508   3.569  -0.007   1.395 -0.3706 -0.4299  0.6479
 6105TIP3   OH242509   4.240   2.980   2.211  0.5390  0.2836  0.1540
 6105TIP3    H142510   4.303   2.922   2.255  1.5181  1.5450  0.4655
 6105TIP3    H242511   4.259   2.969   2.118  0.7898  0.1732  0.2171
 6106TIP3   OH242512   1.477   6.702   0.752 -0.1429 -1.1201  0.5229
 6106TIP3    H142513   1.493   6.608   0.765 -0.6238 -1.2768  0.0656
 6106TIP3    H242514   1.389   6.705   0.714 -0.0068 -0.5013  0.2493
 6107TIP3   OH242515   2.327   5.810   1.117 -0.1803 -0.2628  0.4452
 6107TIP3    H142516   2.271   5.857   1.055  0.1798 -1.9265 -1.2571
 6107TIP3    H242517   2.265   5.765   1.175 -0.6032 -0.3912 -0.0895
 6108TIP3   OH242518   2.368   3.863   2.529 -0.1197  0.7249 -0.7212
 6108TIP3    H142519   2.310   3.800   2.572  0.2542  0.9920  0.1957
 6108TIP3    H242520   2.398   3.818   2.450  0.2622 -0.3082 -0.0037
 6109TIP3   OH242521   5.157   4.124   1.117  0.1457 -0.4770 -0.1880
 6109TIP3    H142522   5.231   4.176   1.085  0.6521 -1.1012 -0.0599
 6109TIP3    H242523   5.177   4.109   1.210  0.4593 -1.6227 -0.4167
 6110TIP3   OH242524   0.246   4.229   2.028 -0.8037 -0.1001 -0.7272
 6110TIP3    H142525   0.225   4.229   1.935 -1.2232  0.2726 -0.6366
 6110TIP3    H242526   0.319   4.291   2.035 -0.1141 -0.8675 -0.9409
 6111TIP3   OH242527   7.559   5.476   0.640  0.4265 -0.1275  0.1140
 6111TIP3    H142528   7.593   5.559   0.605  0.9282 -0.7952 -1.0253
 6111TIP3    H242529   7.637   5.430   0.671  0.0860  0.0593  1.3041
 6112TIP3   OH242530   1.540   3.918   2.207  0.0862  0.2992 -0.5324
 6112TIP3    H142531   1.467   3.980   2.202 -0.5415 -0.3878 -0.1676
 6112TIP3    H242532   1.618   3.972   2.219 -0.6933  0.9597  2.2684
 6113TIP3   OH242533   0.863   7.548   1.503  0.1142  0.4113  0.0942
 6113TIP3    H142534   0.802   7.544   1.576 -1.3693 -1.8980 -1.1437
 6113TIP3    H242535   0.808   7.556   1.425  1.6148  2.0845 -0.8833
 6114TIP3   OH242536   4.677   0.942   2.625  0.4005  0.6836 -0.1849
 6114TIP3    H142537   4.724   0.935   2.542  0.7404  0.3995  0.0275
 6114TIP3    H242538   4.585   0.955   2.600  0.4894  0.5161 -0.6019
 6115TIP3   OH242539   3.076   5.227   1.333  0.0075 -0.2300  0.1452
 6115TIP3    H142540   3.023   5.215   1.254 -2.8244 -0.2817  1.8910
 6115TIP3    H242541   3.164   5.200   1.308 -0.7054 -0.0502 -3.0096
 6116TIP3   OH242542   4.969   3.130   0.400  0.0802  0.2879 -0.2749
 6116TIP3    H142543   5.042   3.075   0.429 -0.4048 -0.5707 -0.6743
 6116TIP3    H242544   4.986   3.146   0.307  0.1180  0.6762 -0.2065
 6117TIP3   OH242545   5.679   4.399   1.038  1.1304  0.1619  0.0724
 6117TIP3    H142546   5.671   4.453   1.117  0.3986 -0.1767  0.2355
 6117TIP3    H242547   5.684   4.462   0.966 -0.4252  0.4739  0.1934
 6118TIP3   OH242548   0.978   5.245   0.891 -0.1640 -0.1456 -0.1071
 6118TIP3    H142549   0.993   5.195   0.811  0.6462 -0.1790  0.0600
 6118TIP3    H242550   0.923   5.318   0.864 -0.1708 -0.3391 -0.6287
 6119TIP3   OH242551   2.074   1.211   1.951 -0.6565 -0.5964  0.5788
 6119TIP3    H142552   2.039   1.269   2.019 -0.5640  0.7636 -0.4980
 6119TIP3    H242553   2.164   1.193   1.980 -0.4165  0.4615  0.5359
 6120TIP3   OH242554   2.488   0.410   2.687  0.2255  0.7190  0.1301
 6120TIP3    H142555   2.526   0.426   2.601 -1.4531  0.4047 -0.7191
 6120TIP3    H242556   2.395   0.429   2.676  0.0451  1.1518  2.0199
 6121TIP3   OH242557   3.156   4.788   1.643  0.1560 -0.7799  0.4435
 6121TIP3    H142558   3.133   4.720   1.706  0.5477  0.0503  1.5107
 6121TIP3    H242559   3.161   4.868   1.694  0.3825 -0.0545 -0.6695
 6122TIP3   OH242560   0.236   5.421   2.399 -0.4765  0.3671  0.5042
 6122TIP3    H142561   0.284   5.377   2.470  0.9738  3.0082  1.2989
 6122TIP3    H242562   0.175   5.479   2.444 -1.0606  0.5015 -0.4462
 6123TIP3   OH242563   1.978   5.400   1.659 -0.3522 -0.2096  0.0479
 6123TIP3    H142564   1.898   5.367   1.618 -0.5288  1.8268 -1.4302
 6123TIP3    H242565   1.947   5.461   1.725 -0.0310 -0.1027  0.1007
 6124TIP3   OH242566   6.225   3.665   2.125 -0.2063 -0.2306  0.3448
 6124TIP3    H142567   6.280   3.714   2.186  0.5750  0.7440 -1.1176
 6124TIP3    H242568   6.214   3.722   2.050 -3.1301 -0.4456  0.4967
 6125TIP3   OH242569   2.357   5.487   1.261  0.2984  0.2851  0.2970
 6125TIP3    H142570   2.418   5.501   1.333  0.6323  0.2519  0.0185
 6125TIP3    H242571   2.319   5.401   1.279  0.5482  0.1765  0.3090
 6126TIP3   OH242572   5.356   6.748   0.366 -0.2574 -0.1712  0.5317
 6126TIP3    H142573   5.344   6.843   0.360 -0.1189 -0.2373 -3.1136
 6126TIP3    H242574   5.289   6.719   0.426 -1.1398  2.1262  0.7491
 6127TIP3   OH242575   7.016   2.914   1.591 -0.0850 -0.2540  0.0643
 6127TIP3    H142576   7.025   2.843   1.654 -1.9494  1.2296  2.1794
 6127TIP3    H242577   6.935   2.893   1.543 -0.4933  0.2853  0.5079
 6128TIP3   OH242578   1.924   4.589   0.730 -0.4040  0.1998 -0.0045
 6128TIP3    H142579   1.951   4.604   0.640  1.2144 -3.1203 -0.2284
 6128TIP3    H242580   1.859   4.519   0.724 -0.7247  0.3479  1.3585
 6129TIP3   OH242581   6.525   2.109   1.256  0.0919 -0.2913  1.1267
 6129TIP3    H142582   6.483   2.050   1.319 -1.3962 -0.1793  0.2741
 6129TIP3    H242583   6.614   2.074   1.247 -0.2320 -1.3835  1.9120
 6130TIP3   OH242584   7.121   3.329   2.524  0.5151 -0.4448  0.2677
 6130TIP3    H142585   7.105   3.236   2.536  0.8935 -0.3867  1.3191
 6130TIP3    H242586   7.044   3.361   2.477  1.1484 -1.5786 -1.6622
 6131TIP3   OH242587   3.837   0.275   0.386  0.3953  0.4463 -0.0671
 6131TIP3    H142588   3.913   0.300   0.438 -0.8685 -1.8033  3.2288
 6131TIP3    H242589   3.770   0.339   0.408 -0.1364 -0.4997  1.2205
 6132TIP3   OH242590   6.543   6.043   0.474 -0.3273  0.0538 -0.3366
 6132TIP3    H142591   6.464   5.998   0.442  0.8039 -1.2595 -1.4040
 6132TIP3    H242592   6.616   5.993   0.437  1.0382  2.6572 -1.3995
 6133TIP3   OH242593   6.499   0.177   2.439 -0.3572 -0.2131  0.3052
 6133TIP3    H142594   6.593   0.159   2.443 -0.5129 -0.9101  1.1634
 6133TIP3    H242595   6.458   0.091   2.445 -1.0388 -0.0378 -1.3992
 6134TIP3   OH242596   4.284   5.491   2.804 -0.1838 -0.3539  0.2963
 6134TIP3    H142597   4.277   5.414   2.747 -2.7567  0.7965 -1.1313
 6134TIP3    H242598   4.213   5.480   2.867 -1.8581  1.6264 -1.0993
 6135TIP3   OH242599   4.614   1.310   2.093 -0.3382  0.1954 -0.4898
 6135TIP3    H142600   4.645   1.337   2.179 -1.8345 -1.3379  0.5738
 6135TIP3    H242601   4.584   1.391   2.052  0.9120  1.0275  0.1601
 6136TIP3   OH242602   0.451   1.501   2.850 -0.0144 -0.1244  0.2613
 6136TIP3    H142603   0.453   1.474   2.758  0.1059 -3.5906  1.1371
 6136TIP3    H242604   0.523   1.452   2.891  0.5089  2.0132  2.1055
 6137TIP3   OH242605   6.290   5.324   2.691  0.1158  0.4780 -0.1459
 6137TIP3    H142606   6.257   5.395   2.635 -0.5326  0.6866  0.4865
 6137TIP3    H242607   6.329   5.369   2.766 -1.0781  0.1853  0.6984
 6138TIP3   OH242608   4.231   6.090   2.110 -0.3520 -0.8334  0.3570
 6138TIP3    H142609   4.175   6.012   2.111  0.5320 -1.6728 -2.8765
 6138TIP3    H242610   4.319   6.056   2.126 -0.0530 -0.4180 -0.3737
 6139TIP3   OH242611   1.694   3.011   3.187 -0.7880 -0.3267  0.4469
 6139TIP3    H142612   1.709   3.061   3.267  0.5668 -0.0344  0.0367
 6139TIP3    H242613   1.612   3.047   3.151 -1.6602 -0.7800  1.9019
 6140TIP3   OH242614   0.648   3.384   3.059  0.1748 -0.5111  0.1420
 6140TIP3    H142615   0.601   3.368   3.141  0.1453  0.4022  0.3120
 6140TIP3    H242616   0.679   3.297   3.032  1.5216 -0.6647  1.9234
 6141TIP3   OH242617   4.106   0.062   1.591 -0.2013  0.0629 -0.0249
 6141TIP3    H142618   4.094   0.105   1.507  4.0824 -0.3441 -1.0829
 6141TIP3    H242619   4.137   0.132   1.649 -1.0852 -0.0895  0.6619
 6142TIP3   OH242620   4.430   2.070   2.082 -0.0802 -0.0916  0.1604
 6142TIP3    H142621   4.514   2.025   2.073 -0.5240 -0.9323  0.1408
 6142TIP3    H242622   4.448   2.140   2.145  0.8634  0.3436 -0.5495
 6143TIP3   OH242623   3.654   2.301   0.692  0.3602 -0.2420  0.1810
 6143TIP3    H142624   3.701   2.325   0.772  0.4807 -1.2248  0.4170
 6143TIP3    H242625   3.592   2.373   0.678  1.7268  0.9426  0.0200
 6144TIP3   OH242626   1.724   4.434   2.702 -0.0635  0.3155  0.4138
 6144TIP3    H142627   1.765   4.515   2.672 -2.2694  1.1851 -0.4145
 6144TIP3    H242628   1.727   4.376   2.626  1.7181 -0.5374  1.0716
 6145TIP3   OH242629   5.998   2.263   1.845  0.2058 -0.0625  0.3283
 6145TIP3    H142630   5.986   2.308   1.761  0.5555  0.7997  0.7342
 6145TIP3    H242631   6.091   2.243   1.848  0.1551 -0.2871  0.4181
 6146TIP3   OH242632   6.429   5.098   2.152 -0.3050  0.2141 -0.0363
 6146TIP3    H142633   6.444   5.163   2.083  1.7628 -0.2262 -0.0607
 6146TIP3    H242634   6.498   5.115   2.216  1.7702 -3.2460 -1.0606
 6147TIP3   OH242635   6.394   3.394   3.091  0.4335 -0.0823  0.1779
 6147TIP3    H142636   6.313   3.434   3.122  1.0709  0.9800  0.5576
 6147TIP3    H242637   6.366   3.317   3.042 -0.8411  0.6336 -0.2747
 6148TIP3   OH242638   5.937   4.081   2.492  0.4287 -0.4093  0.3761
 6148TIP3    H142639   6.002   4.100   2.560  1.1784 -0.6120 -0.2653
 6148TIP3    H242640   5.986   4.089   2.410 -0.7300  1.0570 -0.2282
 6149TIP3   OH242641   1.626   4.339   2.951 -0.1174  0.0058  0.1935
 6149TIP3    H142642   1.669   4.400   2.891 -1.0771  1.3888  0.8708
 6149TIP3    H242643   1.586   4.395   3.018 -0.6442 -1.3999  1.0939
 6150TIP3   OH242644   5.561   6.120   1.086 -0.4509  0.1672  0.0557
 6150TIP3    H142645   5.507   6.172   1.026 -0.2104 -2.3724 -2.5676
 6150TIP3    H242646   5.577   6.038   1.039  1.1861 -1.3408  2.9813
 6151TIP3   OH242647   7.244   1.884   2.912  0.7569  0.2452 -0.8815
 6151TIP3    H142648   7.244   1.815   2.979  0.7308 -0.2797 -1.4150
 6151TIP3    H242649   7.323   1.869   2.862  0.6113  0.4402 -1.1726
 6152TIP3   OH242650   1.627   5.344   2.420  0.0009 -0.7419 -0.4448
 6152TIP3    H142651   1.654   5.292   2.344  1.6766  1.1299 -1.2085
 6152TIP3    H242652   1.703   5.341   2.479  0.4344  1.3356 -0.8231
 6153TIP3   OH242653   5.785   3.756   1.800  0.1241  0.7882  1.0095
 6153TIP3    H142654   5.801   3.804   1.882  1.4090 -0.2245  1.3917
 6153TIP3    H242655   5.868   3.760   1.754  0.1010 -0.6058  0.8180
 6154TIP3   OH242656   0.370   6.052   0.601 -0.0274  0.0935  0.3870
 6154TIP3    H142657   0.326   6.088   0.523  0.9471  0.0448 -0.1971
 6154TIP3    H242658   0.395   5.964   0.575 -0.5134 -0.2578  1.0881
 6155TIP3   OH242659   2.558   6.927   2.487  0.2017 -0.0856  0.0318
 6155TIP3    H142660   2.478   6.897   2.442  0.5103  1.2221 -1.4850
 6155TIP3    H242661   2.526   6.976   2.563 -0.3886 -0.7634  0.2367
 6156TIP3   OH242662   2.653   3.441   1.993 -0.4477 -0.3233 -0.1449
 6156TIP3    H142663   2.569   3.467   1.956  0.2091  0.1641 -1.3458
 6156TIP3    H242664   2.705   3.413   1.918  0.9063  0.6256  0.4107
 6157TIP3   OH242665   6.617   6.483   0.926  0.0755 -0.4054  0.8168
 6157TIP3    H142666   6.625   6.417   0.858  0.1291  0.2796  0.1433
 6157TIP3    H242667   6.708   6.510   0.943  0.0783 -0.7047  1.2964
 6158TIP3   OH242668   5.032   0.363   1.020 -0.1330 -0.2650  0.4365
 6158TIP3    H142669   4.978   0.345   0.944 -1.0429  1.2366  0.6934
 6158TIP3    H242670   5.048   0.457   1.017  1.4506 -0.4863  1.0475
 6159TIP3   OH242671   0.174   2.183   1.610 -0.5805  0.3352  0.1470
 6159TIP3    H142672   0.203   2.272   1.588  1.1227 -0.4418 -0.9214
 6159TIP3    H242673   0.153   2.143   1.525  1.3658 -1.1415  0.2964
 6160TIP3   OH242674   4.958   2.159   2.074 -0.3127  0.7477  0.3135
 6160TIP3    H142675   4.977   2.184   2.164  1.3391  0.4335  0.0750
 6160TIP3    H242676   5.043   2.141   2.035 -0.9470  1.4092 -1.4847
 6161TIP3   OH242677   5.915   1.595   2.702 -0.3457  0.2142  0.2135
 6161TIP3    H142678   5.991   1.639   2.664  2.2079 -0.6360  3.7658
 6161TIP3    H242679   5.868   1.664   2.749  0.8989  0.0724  1.7513
 6162TIP3   OH242680   0.657   2.030   1.534  0.5108 -0.4369  0.5195
 6162TIP3    H142681   0.748   2.026   1.566 -0.1488  0.8353  2.8230
 6162TIP3    H242682   0.649   2.119   1.500 -0.2136 -0.0636  1.6130
 6163TIP3   OH242683   4.973   3.369   0.737  0.1700 -0.2993 -0.1299
 6163TIP3    H142684   4.917   3.347   0.663  0.6378 -0.0024 -0.5831
 6163TIP3    H242685   4.913   3.392   0.807 -0.2705  0.5987 -0.7898
 6164TIP3   OH242686   2.914   2.257   0.779  0.1207  0.0205  0.2634
 6164TIP3    H142687   2.966   2.221   0.707 -0.0481 -0.6122  0.4483
 6164TIP3    H242688   2.826   2.264   0.744 -0.1104 -0.9543  0.6117
 6165TIP3   OH242689   0.267   2.227   1.850  0.1162 -0.8696 -0.1819
 6165TIP3    H142690   0.229   2.195   1.769  1.9875 -0.6256 -1.2251
 6165TIP3    H242691   0.271   2.150   1.907 -1.0696 -1.0761 -0.3659
 6166TIP3   OH242692   6.983   7.189   0.942  0.3275  0.2676 -0.7126
 6166TIP3    H142693   6.917   7.258   0.945  0.3128  0.3316 -1.9224
 6166TIP3    H242694   7.039   7.214   0.869 -0.8119 -1.9913 -2.4574
 6167TIP3   OH242695   4.227   1.193   3.169 -0.2187 -0.0133  0.4813
 6167TIP3    H142696   4.285   1.142   3.113  0.3681 -1.1698  2.0522
 6167TIP3    H242697   4.285   1.226   3.239 -0.7427  2.1447 -0.0197
 6168TIP3   OH242698   7.440   2.719   1.219  0.0316  0.7314 -0.0423
 6168TIP3    H142699   7.468   2.628   1.225  0.7845  0.8851 -0.9214
 6168TIP3    H242700   7.467   2.759   1.301 -0.7496  0.0549  0.5537
 6169TIP3   OH242701   1.691   7.242   8.170  0.3509 -0.0128  0.0196
 6169TIP3    H142702   1.679   7.292   8.089  0.0630 -1.0411 -0.5836
 6169TIP3    H242703   1.644   7.293   8.236  0.2193  0.6125 -0.5418
 6170TIP3   OH242704   6.174   1.222   1.413 -0.4073 -0.0474 -0.8993
 6170TIP3    H142705   6.127   1.241   1.494  1.1239  0.8966 -0.1758
 6170TIP3    H242706   6.165   1.301   1.361  1.5645  0.7653 -0.1087
 6171TIP3   OH242707   5.239   2.091   2.031 -0.8570 -0.7365  0.4497
 6171TIP3    H142708   5.317   2.146   2.041 -0.9707 -0.5397  0.2569
 6171TIP3    H242709   5.241   2.034   2.108 -0.2701 -1.0562  0.2011
 6172TIP3   OH242710   4.267   0.509   1.669 -0.2925 -0.1952  0.3963
 6172TIP3    H142711   4.190   0.537   1.619  0.2308 -0.2020 -0.4300
 6172TIP3    H242712   4.341   0.524   1.610  0.2708 -0.8744  0.9103
 6173TIP3   OH242713   1.821   5.492   3.010 -0.0165 -0.7301 -0.7272
 6173TIP3    H142714   1.901   5.439   3.003 -0.8043 -1.8064 -2.0278
 6173TIP3    H242715   1.750   5.428   3.018 -0.7406  0.2163  0.7297
 6174TIP3   OH242716   1.503   7.447   1.734  0.2634  0.3947 -0.3887
 6174TIP3    H142717   1.592   7.415   1.743  0.3028  0.8305  0.9023
 6174TIP3    H242718   1.510   7.524   1.677  0.4241 -0.6486 -1.8607
 6175TIP3   OH242719   2.937   3.306   0.751  1.0237 -0.3614 -0.6311
 6175TIP3    H142720   2.987   3.385   0.734  2.5209 -1.7271 -3.0983
 6175TIP3    H242721   2.951   3.288   0.844 -0.3417  2.8187  0.3151
 6176TIP3   OH242722   6.451   3.251   2.503  0.4440  0.0222  0.5562
 6176TIP3    H142723   6.415   3.204   2.579 -0.5571 -0.5755 -0.2502
 6176TIP3    H242724   6.374   3.272   2.450  1.1785 -0.2143 -0.6416
 6177TIP3   OH242725   5.156   0.143   1.694 -0.3166 -0.4424  0.0956
 6177TIP3    H142726   5.125   0.178   1.778  0.0185  2.7491 -0.9813
 6177TIP3    H242727   5.100   0.185   1.628  1.2215 -0.7111 -1.4495
 6178TIP3   OH242728   6.256   3.612   2.481 -0.4473 -0.3620 -0.3889
 6178TIP3    H142729   6.245   3.695   2.528 -2.0988 -0.3642 -0.7072
 6178TIP3    H242730   6.339   3.622   2.434 -0.0925  0.6852  0.4244
 6179TIP3   OH242731   6.829   1.848   0.479 -0.0526 -0.0882 -0.0651
 6179TIP3    H142732   6.793   1.819   0.563  1.3492  1.0021  0.9747
 6179TIP3    H242733   6.906   1.793   0.466  0.3667  0.4881 -0.0620
 6180TIP3   OH242734   2.505   4.656   2.457 -0.6213 -0.5110 -0.2399
 6180TIP3    H142735   2.478   4.579   2.508 -1.4130  0.2292  0.4854
 6180TIP3    H242736   2.422   4.699   2.434 -0.1453  1.0272  0.7819
 6181TIP3   OH242737   5.073   0.650   1.586  0.4903 -0.1320 -0.2872
 6181TIP3    H142738   5.002   0.714   1.598 -0.0082 -0.6387 -0.4807
 6181TIP3    H242739   5.076   0.636   1.491  1.6844  0.8039 -0.4112
 6182TIP3   OH242740   1.453   5.711   2.817 -0.2818  0.2034 -0.0984
 6182TIP3    H142741   1.403   5.634   2.847  0.9603 -0.1877  1.1070
 6182TIP3    H242742   1.387   5.779   2.805 -1.5112 -1.1913 -1.8257
 6183TIP3   OH242743   6.397   7.036   1.989  0.1324  0.1598  0.0158
 6183TIP3    H142744   6.414   7.080   1.905  1.6568  1.1404  0.7960
 6183TIP3    H242745   6.460   6.964   1.992 -0.2578 -0.1797  0.1087
 6184TIP3   OH242746   0.484   0.752   2.349 -0.4231  0.2701  1.1266
 6184TIP3    H142747   0.487   0.700   2.429 -0.3229  0.6019  1.3451
 6184TIP3    H242748   0.560   0.723   2.298 -0.3134  0.2691  1.2895
 6185TIP3   OH242749   3.461   2.741   0.976 -1.0145 -0.5328 -0.2258
 6185TIP3    H142750   3.457   2.836   0.964 -1.3580 -0.6803 -1.3624
 6185TIP3    H242751   3.408   2.725   1.054  1.4150  0.4762  1.7519
 6186TIP3   OH242752   5.597   2.951   2.198  0.3983 -0.5018  0.4069
 6186TIP3    H142753   5.560   3.033   2.165 -1.0253 -0.6276  1.5970
 6186TIP3    H242754   5.624   2.904   2.119 -0.6830  0.2289 -0.4415
 6187TIP3   OH242755   4.121   3.078   0.545 -0.0900 -0.5703 -0.0365
 6187TIP3    H142756   4.060   3.058   0.617 -2.0748 -1.2000 -1.8035
 6187TIP3    H242757   4.148   2.992   0.513  1.1324 -0.2888  0.1967
 6188TIP3   OH242758   5.942   4.767   1.823 -0.3196 -0.5161  0.1886
 6188TIP3    H142759   5.895   4.767   1.907  0.1411 -0.6921  0.4529
 6188TIP3    H242760   6.034   4.782   1.847 -0.5856  3.5391 -0.5474
 6189TIP3   OH242761   4.372   0.901   1.790  0.0447  0.3952  0.2727
 6189TIP3    H142762   4.370   0.902   1.695 -2.7505  0.1621  0.2379
 6189TIP3    H242763   4.412   0.984   1.815  0.6796  0.5175 -1.1004
 6190TIP3   OH242764   1.766   6.192   1.195  0.2194  0.3285 -0.2080
 6190TIP3    H142765   1.818   6.249   1.253  0.8007  0.1007 -0.4939
 6190TIP3    H242766   1.675   6.209   1.220  0.5035 -0.9309  1.8506
 6191TIP3   OH242767   4.064   4.940   2.203  0.2486 -0.2529 -0.2947
 6191TIP3    H142768   4.037   4.967   2.291 -0.1632  1.2546 -0.8599
 6191TIP3    H242769   3.995   4.972   2.145  1.6529  0.9114 -1.4213
 6192TIP3   OH242770   1.676   3.738   3.180  0.6868 -0.2377  0.8152
 6192TIP3    H142771   1.723   3.821   3.173  0.8507 -0.3939  0.0256
 6192TIP3    H242772   1.583   3.762   3.171  0.7695 -0.2031  0.0412
 6193TIP3   OH242773   0.661   7.033   0.817 -0.5386  0.2114  0.4002
 6193TIP3    H142774   0.648   6.970   0.746 -2.6048  1.9950 -0.9669
 6193TIP3    H242775   0.594   7.010   0.882 -1.3764  1.0229 -0.1571
 6194TIP3   OH242776   1.840   1.888   2.470  0.1660 -0.3910 -0.0265
 6194TIP3    H142777   1.782   1.913   2.397  0.0738 -1.3884 -0.3086
 6194TIP3    H242778   1.897   1.820   2.433 -0.0036 -1.0432  0.8865
 6195TIP3   OH242779   3.379   2.000   0.718  0.0968 -0.4590 -0.1432
 6195TIP3    H142780   3.392   2.078   0.773 -0.3690 -0.3568 -0.1785
 6195TIP3    H242781   3.468   1.972   0.696  0.2593  0.2807 -0.4444
 6196TIP3   OH242782   2.374   1.049   2.555  0.1123 -0.1244  0.2371
 6196TIP3    H142783   2.414   1.102   2.625 -0.4090 -0.8994  1.1507
 6196TIP3    H242784   2.386   0.958   2.584  0.6735 -0.5141 -1.1264
 6197TIP3   OH242785   4.587   1.019   1.333 -0.1303 -0.2830 -0.1925
 6197TIP3    H142786   4.540   0.982   1.408 -0.4390 -0.0907 -0.2889
 6197TIP3    H242787   4.587   1.114   1.350 -0.1679 -0.2422 -0.4172
 6198TIP3   OH242788   1.183   2.437   1.994  0.0638 -0.4531 -0.0428
 6198TIP3    H142789   1.217   2.438   1.905  0.1506  0.2606 -0.0071
 6198TIP3    H242790   1.231   2.367   2.038  1.1222  0.2051 -0.1367
 6199TIP3   OH242791   3.600   5.948   2.769  0.5379  0.5364 -0.1158
 6199TIP3    H142792   3.509   5.923   2.755  0.5889  0.9712 -1.4083
 6199TIP3    H242793   3.598   6.044   2.768  1.0761  0.5527 -0.8139
 6200TIP3   OH242794   1.609   2.555   1.643  0.0241 -0.2541  0.3320
 6200TIP3    H142795   1.615   2.573   1.737 -1.6248  1.3029  0.1976
 6200TIP3    H242796   1.658   2.625   1.601 -0.9464  0.2398 -0.0098
 6201TIP3   OH242797   6.541   2.829   0.594  0.0106 -0.5412  0.0941
 6201TIP3    H142798   6.521   2.921   0.613  0.3406 -0.8961  2.5402
 6201TIP3    H242799   6.486   2.807   0.519  0.3121  1.7705 -0.8782
 6202TIP3   OH242800   7.149   7.197   2.208  0.3776 -0.1896  0.2749
 6202TIP3    H142801   7.114   7.233   2.289  0.0833 -0.4890  0.2853
 6202TIP3    H242802   7.127   7.103   2.212 -1.5155  0.1329 -1.0855
 6203TIP3   OH242803   0.963   4.472   1.118 -0.0539  0.3750  0.0800
 6203TIP3    H142804   0.985   4.543   1.057  2.0344  0.4546  0.8553
 6203TIP3    H242805   0.984   4.392   1.070 -0.3309  0.3499 -0.0043
 6204TIP3   OH242806   4.273   4.141   1.635  0.3027 -0.4323 -0.1199
 6204TIP3    H142807   4.294   4.174   1.547  1.1437  0.4042  0.3705
 6204TIP3    H242808   4.327   4.195   1.693  0.6662 -1.7885  0.8252
 6205TIP3   OH242809   3.386   6.797   2.922 -0.5348  0.1230  0.3495
 6205TIP3    H142810   3.316   6.862   2.929 -2.1620 -1.2550 -1.7506
 6205TIP3    H242811   3.358   6.724   2.978  0.9406  0.8648  2.1457
 6206TIP3   OH242812   4.175   4.990   1.588  0.3206 -0.4609  0.0276
 6206TIP3    H142813   4.118   5.048   1.539 -1.5880 -3.5578 -1.7528
 6206TIP3    H242814   4.263   5.006   1.553 -0.3381  0.5116 -1.2466
 6207TIP3   OH242815   3.109   4.789   3.246 -0.0224 -0.2305  0.6431
 6207TIP3    H142816   3.015   4.779   3.259 -0.6366  1.9549 -1.3445
 6207TIP3    H242817   3.129   4.731   3.172 -0.1493  0.4560  0.0609
 6208TIP3   OH242818   4.611   3.061   1.553  0.2202  0.2793 -0.3969
 6208TIP3    H142819   4.639   3.093   1.467 -1.0619 -0.6207 -1.1735
 6208TIP3    H242820   4.659   3.116   1.616 -0.0061  1.9849 -1.6697
 6209TIP3   OH242821   5.822   2.852   1.650  0.3196 -0.1988  0.0901
 6209TIP3    H142822   5.728   2.840   1.641  0.3385 -0.0762 -0.3124
 6209TIP3    H242823   5.852   2.774   1.696  0.1112 -0.5511 -0.3627
 6210TIP3   OH242824   1.987   5.994   2.074 -0.5514  0.3032 -0.5533
 6210TIP3    H142825   1.971   5.973   2.166  1.5540 -0.4588 -0.3144
 6210TIP3    H242826   1.997   6.089   2.073 -0.7892  0.3393 -0.0300
 6211TIP3   OH242827   0.599   3.620   1.584 -0.7519  0.1211  0.7272
 6211TIP3    H142828   0.514   3.663   1.584 -0.8842 -0.0969 -0.2005
 6211TIP3    H242829   0.585   3.538   1.631 -1.7144 -1.0454 -1.4206
 6212TIP3   OH242830   3.783   6.566   1.280  0.3139  0.4519 -0.6317
 6212TIP3    H142831   3.826   6.492   1.238  0.2455  0.8457 -1.4208
 6212TIP3    H242832   3.829   6.643   1.246 -1.2788  0.9109 -1.8516
 6213TIP3   OH242833   6.077   4.481   0.636  0.2927 -0.4638 -0.3916
 6213TIP3    H142834   6.097   4.538   0.562  0.4084 -0.1757 -0.1425
 6213TIP3    H242835   6.150   4.418   0.639  0.5776 -0.1261 -0.1809
 6214TIP3   OH242836   3.730   5.312   1.192 -0.5945 -0.6149 -0.2746
 6214TIP3    H142837   3.694   5.240   1.245 -2.0528 -0.5853 -1.1502
 6214TIP3    H242838   3.822   5.316   1.217 -1.2214 -0.5022  2.3417
 6215TIP3   OH242839   5.703   1.767   2.806 -0.1928 -0.1582  0.0695
 6215TIP3    H142840   5.634   1.710   2.841  0.5188 -0.4968  0.9512
 6215TIP3    H242841   5.716   1.833   2.873  1.0628 -0.7036  0.3906
 6216TIP3   OH242842   0.302   7.213   1.481 -0.1272 -0.5056  0.0504
 6216TIP3    H142843   0.269   7.130   1.517  0.1427 -0.3562  0.6684
 6216TIP3    H242844   0.378   7.187   1.429 -0.7728 -0.7718 -0.7807
 6217TIP3   OH242845   4.386   3.192   0.579  0.2855 -0.0234  0.1814
 6217TIP3    H142846   4.294   3.168   0.580 -0.1680  1.5375 -0.5002
 6217TIP3    H242847   4.391   3.264   0.515  1.9910 -0.1782  0.1034
 6218TIP3   OH242848   6.541   5.790   2.376  0.0705  0.0705  0.2111
 6218TIP3    H142849   6.509   5.846   2.446  1.0109  0.6976  0.1533
 6218TIP3    H242850   6.577   5.714   2.421  1.5886  0.9290  0.4942
 6219TIP3   OH242851   5.630   4.946   1.560  0.3168 -0.2023  0.0298
 6219TIP3    H142852   5.575   5.010   1.516  1.8221  0.9130 -0.3173
 6219TIP3    H242853   5.664   4.992   1.638  0.5011 -0.9573  0.4075
 6220TIP3   OH242854   5.714   2.130   2.604 -0.1982 -0.5010 -0.1164
 6220TIP3    H142855   5.623   2.134   2.574 -0.2787 -0.8037  0.0792
 6220TIP3    H242856   5.746   2.220   2.595 -1.1444  0.0886  1.7151
 6221TIP3   OH242857   2.087   3.369   3.099 -0.2695  0.3432  0.0447
 6221TIP3    H142858   2.057   3.302   3.038  0.6793  1.4634 -1.7122
 6221TIP3    H242859   2.096   3.323   3.182  1.3288 -1.9727 -1.3271
 6222TIP3   OH242860   3.635   7.307   2.447  0.1287  0.0258 -0.0494
 6222TIP3    H142861   3.648   7.391   2.491 -0.3646 -1.2274  2.7770
 6222TIP3    H242862   3.723   7.275   2.430  0.3357  0.6903 -0.2491
 6223TIP3   OH242863   3.526   2.554   1.742  0.0020  0.1583 -0.9709
 6223TIP3    H142864   3.440   2.519   1.720  0.4391 -0.8742 -1.0845
 6223TIP3    H242865   3.569   2.568   1.657 -0.0392  0.6468 -0.9149
 6224TIP3   OH242866   0.748   3.795   1.970  0.1982 -0.7715 -0.0967
 6224TIP3    H142867   0.827   3.777   1.919 -0.9816  0.9868 -2.7585
 6224TIP3    H242868   0.712   3.708   1.990  0.8334 -1.5410 -2.1159
 6225TIP3   OH242869   7.390   5.381   0.400 -0.3678  0.1811  0.4095
 6225TIP3    H142870   7.436   5.423   0.472  1.3498 -0.6292 -0.1697
 6225TIP3    H242871   7.451   5.385   0.326 -1.2771 -0.8084 -0.4306
 6226TIP3   OH242872   7.029   1.696   0.393  1.0206  0.0764 -0.0692
 6226TIP3    H142873   7.083   1.619   0.406  2.1730  0.8391 -0.2094
 6226TIP3    H242874   7.070   1.743   0.320 -0.5669  0.0459 -1.0216
 6227TIP3   OH242875   2.758   3.764   1.116 -0.2997 -0.3577  0.1370
 6227TIP3    H142876   2.802   3.710   1.182  0.1267 -1.1042 -0.7268
 6227TIP3    H242877   2.766   3.713   1.035 -1.7353  0.0569 -0.2816
 6228TIP3   OH242878   0.237   0.910   2.573  0.4784 -0.1736  0.2321
 6228TIP3    H142879   0.256   0.990   2.524 -0.9627 -0.0427 -0.1728
 6228TIP3    H242880   0.288   0.918   2.654  0.9701  0.7695 -0.1577
 6229TIP3   OH242881   0.414   2.785   3.047 -0.2412  0.4878  0.0770
 6229TIP3    H142882   0.487   2.780   3.110  0.1009  0.9498 -0.2783
 6229TIP3    H242883   0.448   2.838   2.975 -0.4081 -0.5429 -0.7997
 6230TIP3   OH242884   2.506   3.227   2.279 -0.0119 -0.7833 -0.1363
 6230TIP3    H142885   2.424   3.178   2.290  0.8948 -2.2106  0.6479
 6230TIP3    H242886   2.560   3.171   2.222  0.8315 -0.4364  0.3007
 6231TIP3   OH242887   2.752   5.732   1.794  0.5392 -0.4532 -0.1563
 6231TIP3    H142888   2.786   5.778   1.718  1.3499  0.4410  0.7112
 6231TIP3    H242889   2.783   5.783   1.869 -3.0886  0.7579  0.7661
 6232TIP3   OH242890   4.434   3.968   1.283  0.3945  0.3918  0.3373
 6232TIP3    H142891   4.392   3.889   1.316  0.9887 -0.1671 -0.2246
 6232TIP3    H242892   4.527   3.948   1.284  0.4826  0.6708 -0.8629
 6233TIP3   OH242893   4.254   2.571   2.856  0.1039 -0.0940  0.3061
 6233TIP3    H142894   4.248   2.644   2.918  0.2154  0.0782  0.1141
 6233TIP3    H242895   4.183   2.512   2.882 -0.3198  0.3342  0.1383
 6234TIP3   OH242896   0.909   5.999   1.487 -0.3861 -0.3146  0.1913
 6234TIP3    H142897   0.931   6.089   1.465 -1.0709 -0.2077 -0.0807
 6234TIP3    H242898   0.898   5.999   1.582 -2.4239  0.3741  0.0098
 6235TIP3   OH242899   4.429   2.009   2.367 -0.7476  0.2936 -0.4852
 6235TIP3    H142900   4.464   1.931   2.322 -2.3432 -1.1358  0.6045
 6235TIP3    H242901   4.414   1.980   2.457 -1.1086  1.9792  0.0324
 6236TIP3   OH242902   2.251   6.848   2.154 -0.1159  0.2431  0.3514
 6236TIP3    H142903   2.232   6.805   2.071 -0.0215 -0.0271  0.4717
 6236TIP3    H242904   2.171   6.895   2.175 -0.2567  0.0341  0.2805
 6237TIP3   OH242905   0.718   3.147   2.962 -0.2822 -0.4145  0.1144
 6237TIP3    H142906   0.633   3.104   2.960  0.1347 -1.4663  2.3886
 6237TIP3    H242907   0.753   3.136   2.874 -1.7456 -1.4958 -0.3587
 6238TIP3   OH242908   2.833   2.415   1.996 -0.6079  0.1096 -0.3780
 6238TIP3    H142909   2.874   2.454   2.073 -0.5646 -0.2184 -0.2336
 6238TIP3    H242910   2.906   2.396   1.937 -0.7360  1.3612 -0.9650
 6239TIP3   OH242911   7.019   3.998   1.142 -0.1353  0.6315 -0.3865
 6239TIP3    H142912   7.085   4.055   1.182  0.7474 -0.8685  0.4360
 6239TIP3    H242913   6.939   4.049   1.142  0.3455  1.4825  1.3775
 6240TIP3   OH242914   6.583   6.867   1.056  0.2128  0.0709  0.5672
 6240TIP3    H142915   6.630   6.945   1.086 -0.2522  0.9379 -0.8585
 6240TIP3    H242916   6.628   6.795   1.100  1.2717  1.0528  1.1889
 6241TIP3   OH242917   2.149   5.637   2.716  0.3196  0.0496  0.5970
 6241TIP3    H142918   2.192   5.690   2.650 -1.1464 -0.8693 -1.1865
 6241TIP3    H242919   2.058   5.630   2.686 -0.0705 -1.5264  1.9857
 6242TIP3   OH242920   6.011   2.197   2.781  0.4344  0.3072  0.7268
 6242TIP3    H142921   6.067   2.198   2.859  0.2978 -0.5194  0.8456
 6242TIP3    H242922   5.923   2.178   2.815  0.9110 -3.9684  0.1163
 6243TIP3   OH242923   7.103   0.955   3.258 -0.1615  0.0117  0.3647
 6243TIP3    H142924   7.173   0.988   3.202 -0.2375 -1.4774 -0.6857
 6243TIP3    H242925   7.023   0.989   3.219 -0.2346 -1.2721 -0.6684
 6244TIP3   OH242926   2.501   1.168   2.773 -0.5449  0.3076  0.5100
 6244TIP3    H142927   2.508   1.087   2.823  0.5183 -0.0905 -0.2660
 6244TIP3    H242928   2.570   1.224   2.808 -0.6327  0.5074  0.3633
 6245TIP3   OH242929   1.507   3.665   2.058 -0.3737  0.0697 -0.2932
 6245TIP3    H142930   1.520   3.746   2.107  2.9680 -0.9089  0.7069
 6245TIP3    H242931   1.462   3.607   2.119 -0.6017  0.4021 -0.1447
 6246TIP3   OH242932   5.587   3.825   3.125 -0.3802 -0.5233 -0.0399
 6246TIP3    H142933   5.509   3.773   3.106 -2.4004  2.6465 -1.2120
 6246TIP3    H242934   5.642   3.816   3.047 -1.4366  0.2349 -0.9077
 6247TIP3   OH242935   6.568   5.892   2.117 -0.5749 -0.0587 -0.1014
 6247TIP3    H142936   6.525   5.816   2.078 -0.8019 -0.0921  0.2195
 6247TIP3    H242937   6.590   5.864   2.206  0.1385 -0.0563 -0.2716
 6248TIP3   OH242938   1.290   4.371   2.870  0.6461 -0.3651  0.3695
 6248TIP3    H142939   1.256   4.282   2.873  0.0651 -0.1482  0.4627
 6248TIP3    H242940   1.353   4.376   2.942 -0.7913 -0.1314  1.6800
 6249TIP3   OH242941   3.250   4.058   1.909 -0.0689  0.3762 -0.6837
 6249TIP3    H142942   3.262   3.968   1.941  1.3643  0.9032  0.3599
 6249TIP3    H242943   3.162   4.082   1.938  0.8711  0.5583  2.2862
 6250TIP3   OH242944   5.122   1.629   0.945 -0.9315  0.6777 -0.0428
 6250TIP3    H142945   5.136   1.558   1.007  0.2973 -1.5342 -2.6454
 6250TIP3    H242946   5.205   1.636   0.898 -2.7128 -0.2023 -3.6942
 6251TIP3   OH242947   4.782   6.604   1.914  0.5338  0.1139 -0.2803
 6251TIP3    H142948   4.775   6.652   1.831 -0.2121  1.8314  0.7225
 6251TIP3    H242949   4.771   6.671   1.981 -1.6178 -1.6262  1.2216
 6252TIP3   OH242950   7.240   4.756   0.565 -0.1432 -0.5790  0.3097
 6252TIP3    H142951   7.312   4.715   0.613 -0.2032 -1.2453 -0.1527
 6252TIP3    H242952   7.195   4.683   0.522 -3.3251 -0.7222  3.3832
 6253TIP3   OH242953   5.421   4.348   1.412  0.4753 -0.1840  0.1439
 6253TIP3    H142954   5.391   4.261   1.388 -0.8111  0.3902 -0.4318
 6253TIP3    H242955   5.516   4.341   1.412  0.4535 -1.1613 -1.6057
 6254TIP3   OH242956   4.542   4.798   2.384 -0.0038  0.1758 -0.3046
 6254TIP3    H142957   4.514   4.860   2.316 -0.3294 -0.3520 -0.6592
 6254TIP3    H242958   4.462   4.778   2.433  0.2070  0.4544  0.1597
 6255TIP3   OH242959   4.860   5.429   0.771  0.3404 -0.6858  0.0259
 6255TIP3    H142960   4.786   5.408   0.714  0.9103 -0.9213 -0.6505
 6255TIP3    H242961   4.879   5.521   0.753  1.5897 -1.1803 -1.4852
 6256TIP3   OH242962   7.454   0.780   3.091 -0.2713 -0.1435  0.0400
 6256TIP3    H142963   7.406   0.862   3.098 -2.6949 -1.2911 -1.4662
 6256TIP3    H242964   7.417   0.724   3.159  1.0928 -0.1329  0.8143
 6257TIP3   OH242965   5.800   4.448   0.465 -0.3690  0.3915 -0.5373
 6257TIP3    H142966   5.824   4.409   0.549 -0.1382  0.4412 -0.5798
 6257TIP3    H242967   5.854   4.527   0.460 -0.0382  0.1434 -0.9474
 6258TIP3   OH242968   7.272   4.284   1.085  0.1587  0.4274  0.0522
 6258TIP3    H142969   7.206   4.268   1.017  0.5645 -3.3959  0.3320
 6258TIP3    H242970   7.349   4.235   1.056  0.2302 -1.6588  3.3420
 6259TIP3   OH242971   0.964   1.427   2.323 -0.0461  0.1728 -0.5436
 6259TIP3    H142972   0.986   1.472   2.404  0.0540  0.3603 -0.6726
 6259TIP3    H242973   0.877   1.390   2.338 -1.1693  2.3475 -1.2140
 6260TIP3   OH242974   2.967   3.526   1.594  0.1284  0.1203  0.0489
 6260TIP3    H142975   3.000   3.600   1.544 -0.7679 -0.3088 -1.2103
 6260TIP3    H242976   2.998   3.449   1.546  1.0610 -0.3534  1.3436
 6261TIP3   OH242977   1.136   3.577   2.375 -0.5774 -0.2941 -0.0532
 6261TIP3    H142978   1.101   3.499   2.332 -1.3316  0.2471 -0.4437
 6261TIP3    H242979   1.229   3.578   2.351 -0.7707 -0.5476 -0.8468
 6262TIP3   OH242980   4.101   2.072   2.774  0.2307  0.1220  0.4976
 6262TIP3    H142981   4.125   1.979   2.763 -1.1105 -0.2533  0.6156
 6262TIP3    H242982   4.007   2.075   2.755  0.3918  1.5858 -0.1757
 6263TIP3   OH242983   6.521   1.005   2.897  0.6004 -0.3573 -0.1698
 6263TIP3    H142984   6.515   1.074   2.962  1.2594 -0.9348  0.5210
 6263TIP3    H242985   6.585   1.037   2.833  1.1914 -0.4846  0.3532
 6264TIP3   OH242986   3.021   5.519   1.321  0.5129 -0.1853  0.3637
 6264TIP3    H142987   2.979   5.522   1.235  0.5374 -1.0760  0.3154
 6264TIP3    H242988   3.046   5.427   1.333 -1.7491 -0.6312  2.4058
 6265TIP3   OH242989   0.968   6.664   1.795 -0.1170 -0.1689 -0.2809
 6265TIP3    H142990   0.876   6.636   1.792 -0.5777  1.1882  0.4399
 6265TIP3    H242991   1.015   6.596   1.747 -1.7759  0.2637 -2.6968
 6266TIP3   OH242992   4.523   4.942   2.141 -0.1148  0.3049  0.3272
 6266TIP3    H142993   4.570   4.882   2.084 -1.3697 -0.4463  0.0246
 6266TIP3    H242994   4.574   5.023   2.140  0.9365 -0.3521 -0.2644
 6267TIP3   OH242995   5.646   6.642   1.396  0.0318 -0.7588  0.5357
 6267TIP3    H142996   5.609   6.724   1.427 -0.2872 -1.6842  2.8535
 6267TIP3    H242997   5.738   6.661   1.380 -0.4244  0.4594 -0.7304
 6268TIP3   OH242998   0.902   7.090   1.262 -0.9160  0.1320  0.6764
 6268TIP3    H142999   0.879   7.007   1.304  1.4537 -1.5495 -1.1105
 6268TIP3    H243000   0.917   7.067   1.171  0.2169  2.4601  0.2137
 6269TIP3   OH243001   3.120   7.184   0.797  0.8626 -0.7074 -0.1470
 6269TIP3    H143002   3.043   7.240   0.792  1.1279 -0.4060 -1.5307
 6269TIP3    H243003   3.134   7.169   0.890 -0.7808 -0.6599  0.1382
 6270TIP3   OH243004   3.866   3.579   1.337  0.1266  0.2248  0.3654
 6270TIP3    H143005   3.780   3.604   1.303  0.2896 -0.5933 -0.7148
 6270TIP3    H243006   3.926   3.644   1.301  0.1060  0.1592  0.2106
 6271TIP3   OH243007   4.719   1.582   2.663 -0.0209  0.2312 -0.3149
 6271TIP3    H143008   4.687   1.524   2.594  1.7898 -1.1149 -0.1135
 6271TIP3    H243009   4.786   1.530   2.708 -0.7348  1.2669  2.1015
 6272TIP3   OH243010   4.430   4.349   2.217  0.3475 -0.3355  0.0118
 6272TIP3    H143011   4.366   4.374   2.151 -0.3707 -1.9448  0.0456
 6272TIP3    H243012   4.479   4.429   2.235 -0.5749  0.5363 -1.2076
 6273TIP3   OH243013   4.458   4.735   1.482 -0.4574 -0.1414  0.2754
 6273TIP3    H143014   4.436   4.809   1.426  0.8362  0.4105  0.4475
 6273TIP3    H243015   4.374   4.704   1.516 -1.1710  0.0792 -1.2439
 6274TIP3   OH243016   4.218   3.439   1.834  0.0928  0.0101  0.5054
 6274TIP3    H143017   4.182   3.371   1.891 -0.6653 -0.8997 -0.9835
 6274TIP3    H243018   4.166   3.517   1.852 -1.4526 -0.7930 -0.2991
 6275TIP3   OH243019   4.078   6.088   2.601  0.9124 -0.0902 -0.4404
 6275TIP3    H143020   4.099   5.998   2.628  0.9979 -0.3092 -1.2304
 6275TIP3    H243021   3.985   6.098   2.622  0.8990 -0.3651 -0.3632
 6276TIP3   OH243022   2.544   6.529   0.564  0.2303 -0.1355 -0.0944
 6276TIP3    H143023   2.542   6.618   0.529 -0.6724 -0.1800 -0.1857
 6276TIP3    H243024   2.636   6.513   0.583  0.2230  1.4615  1.6075
 6277TIP3   OH243025   5.110   1.974   1.675 -0.3134  0.4745 -0.5052
 6277TIP3    H143026   5.085   1.883   1.691  0.0413  0.4498 -0.0683
 6277TIP3    H243027   5.029   2.024   1.687 -0.5727  0.1840 -1.0446
 6278TIP3   OH243028   5.143   1.142   1.907  0.0780  0.1520 -0.6924
 6278TIP3    H143029   5.162   1.079   1.837  2.2453  0.1548 -0.1677
 6278TIP3    H243030   5.223   1.193   1.915 -0.6113  1.0324  0.9141
 6279TIP3   OH243031   1.596   5.547   2.113  0.2644  0.0585  0.2391
 6279TIP3    H143032   1.638   5.475   2.066  0.3258  0.1304  0.1844
 6279TIP3    H243033   1.543   5.592   2.047  0.2039  0.0457  0.2795
 6280TIP3   OH243034   0.388   6.428   1.865 -0.7720 -0.8749  0.6078
 6280TIP3    H143035   0.441   6.490   1.915 -0.0070 -1.6196  0.7350
 6280TIP3    H243036   0.446   6.397   1.796 -1.8932  0.3407 -0.9634
 6281TIP3   OH243037   0.269   6.691   2.161 -0.4911  0.3120 -0.8577
 6281TIP3    H143038   0.341   6.754   2.166 -1.3375  1.2500  0.2461
 6281TIP3    H243039   0.196   6.736   2.204 -1.4931 -0.9360 -1.2092
 6282TIP3   OH243040   2.342   5.568   0.770 -0.3870 -0.0144  0.0543
 6282TIP3    H143041   2.377   5.512   0.839  2.1869  1.3512 -0.0200
 6282TIP3    H243042   2.339   5.512   0.692 -0.9005 -0.8807  0.6872
 6283TIP3   OH243043   3.320   7.417   2.599  0.1739 -0.6452  0.1956
 6283TIP3    H143044   3.296   7.389   2.688  0.3621 -0.0377  0.4470
 6283TIP3    H243045   3.364   7.502   2.612  0.1991 -0.5501 -0.4798
 6284TIP3   OH243046   5.212   7.058   2.089 -0.0850 -0.3536 -0.3658
 6284TIP3    H143047   5.264   7.130   2.126 -0.9309 -0.4886  1.1707
 6284TIP3    H243048   5.227   7.064   1.995  1.6374  0.4447 -0.0927
 6285TIP3   OH243049   6.020   5.223   0.526  0.0136  0.6590 -0.1125
 6285TIP3    H143050   6.093   5.269   0.567 -1.1416  2.1223  0.4148
 6285TIP3    H243051   5.969   5.292   0.484 -1.4104 -0.2368  0.0787
 6286TIP3   OH243052   0.097   4.385   3.524 -0.4256  0.1836  0.0245
 6286TIP3    H143053   0.148   4.353   3.449  2.6223  1.1995  1.4737
 6286TIP3    H243054   0.032   4.442   3.486  0.1273 -0.4077 -1.9404
 6287TIP3   OH243055   5.851   1.384   2.155 -0.2437 -0.1668  0.1650
 6287TIP3    H143056   5.892   1.448   2.213  0.3309 -1.0262  0.7280
 6287TIP3    H243057   5.920   1.360   2.093 -1.1965  1.6881 -1.7550
 6288TIP3   OH243058   3.728   4.522   1.721  0.1388  0.1974 -0.1606
 6288TIP3    H143059   3.646   4.484   1.749  0.3776  0.7079  1.2961
 6288TIP3    H243060   3.796   4.464   1.756  0.4207  0.0778 -0.8839
 6289TIP3   OH243061   6.294   1.456   1.654  0.0100  0.3705  0.2716
 6289TIP3    H143062   6.283   1.459   1.749 -0.3629  1.6591  0.2157
 6289TIP3    H243063   6.208   1.431   1.620  0.2506 -0.4901  0.2836
 6290TIP3   OH243064   4.184   2.836   2.665 -0.6247  0.4602 -0.8205
 6290TIP3    H143065   4.213   2.828   2.756 -0.2288  1.1949 -0.8729
 6290TIP3    H243066   4.249   2.893   2.624  0.2629 -1.3644 -2.0569
 6291TIP3   OH243067   2.029   7.330   1.718 -0.0208  0.1044 -0.2529
 6291TIP3    H143068   2.071   7.281   1.648  0.9651  0.0987  0.3234
 6291TIP3    H243069   1.999   7.411   1.677  0.1378 -0.1031 -0.7756
 6292TIP3   OH243070   4.363   2.366   2.691 -0.2608 -0.0812 -0.2505
 6292TIP3    H143071   4.343   2.426   2.763  2.3237 -1.0637  1.4557
 6292TIP3    H243072   4.307   2.395   2.619 -1.3624  2.3656  1.4345
 6293TIP3   OH243073   1.234   4.534   1.706  0.1803 -0.4518 -0.4741
 6293TIP3    H143074   1.253   4.497   1.793  1.7070  0.1135 -0.5288
 6293TIP3    H243075   1.289   4.482   1.647 -0.1990 -0.2678 -0.9839
 6294TIP3   OH243076   3.454   4.808   1.676  0.0933  0.3569 -0.2336
 6294TIP3    H143077   3.543   4.800   1.709  0.3027 -1.4903 -1.1321
 6294TIP3    H243078   3.399   4.764   1.741  0.0758 -0.1524 -0.5877
 6295TIP3   OH243079   6.508   1.719   1.007  0.2025  0.2935 -0.1053
 6295TIP3    H143080   6.453   1.643   1.025  0.0584  0.2184 -0.8220
 6295TIP3    H243081   6.462   1.766   0.937 -0.7499  2.1345  1.6669
 6296TIP3   OH243082   1.737   4.400   0.734  0.6545 -0.0863  0.0896
 6296TIP3    H143083   1.725   4.333   0.800 -1.3955 -0.3980 -0.5236
 6296TIP3    H243084   1.728   4.354   0.651  3.1203  0.3057 -0.4646
 6297TIP3   OH243085   3.084   3.929   2.791 -0.4187  0.1051  0.3613
 6297TIP3    H143086   3.004   3.970   2.825 -0.3213  0.7753 -0.1835
 6297TIP3    H243087   3.120   3.994   2.730 -0.9814 -1.3247 -1.6042
 6298TIP3   OH243088   1.708   0.464   1.869 -0.7114 -0.0802 -0.9158
 6298TIP3    H143089   1.774   0.531   1.851 -1.7215  1.2176 -0.0110
 6298TIP3    H243090   1.758   0.390   1.905  0.3406  0.5269 -1.1009
 6299TIP3   OH243091   0.393   6.088   1.763  0.0048  0.3908 -0.5608
 6299TIP3    H143092   0.447   6.137   1.701 -0.7576  0.5726 -1.0974
 6299TIP3    H243093   0.318   6.145   1.780 -0.1846  0.0081 -0.0761
 6300TIP3   OH243094   6.988   0.853   1.848  0.1319 -0.3020 -0.4096
 6300TIP3    H143095   7.025   0.819   1.766 -0.4597  0.6205 -1.0868
 6300TIP3    H243096   7.025   0.942   1.855  0.7341 -0.6203  0.7058
 6301TIP3   OH243097   4.560   6.867   2.515  0.0978 -0.2193 -0.5121
 6301TIP3    H143098   4.483   6.855   2.570  0.8315 -1.3624  0.3259
 6301TIP3    H243099   4.631   6.884   2.577  1.0103 -1.8955 -1.0339
 6302TIP3   OH243100   4.800   0.261   3.179  0.7790 -0.1442 -0.3674
 6302TIP3    H143101   4.790   0.321   3.253  0.3674  0.7384 -1.1123
 6302TIP3    H243102   4.819   0.177   3.219 -2.5412 -0.4373  0.9325
 6303TIP3   OH243103   5.092   0.938   1.642  0.3884 -0.0868  0.0124
 6303TIP3    H143104   5.061   1.019   1.602 -0.4462 -0.5778 -0.3926
 6303TIP3    H243105   5.012   0.887   1.656  1.0733 -1.9992 -2.3383
 6304TIP3   OH243106   0.229   5.241   1.151 -0.4931  0.4133 -0.1211
 6304TIP3    H143107   0.311   5.195   1.134 -0.2473  1.3628 -1.6713
 6304TIP3    H243108   0.228   5.314   1.089 -2.6360  0.2648 -0.3639
 6305TIP3   OH243109   6.578   6.330   2.715  0.1845 -0.5490 -0.1231
 6305TIP3    H143110   6.516   6.320   2.644  0.5938  0.6665 -0.6848
 6305TIP3    H243111   6.585   6.243   2.754 -1.1036 -0.9171 -0.6713
 6306TIP3   OH243112   6.764   5.365   2.143  0.3830 -0.3269 -0.3108
 6306TIP3    H143113   6.772   5.404   2.056  1.7379  0.8328  0.2777
 6306TIP3    H243114   6.854   5.343   2.167 -0.0228 -0.9835  0.6416
 6307TIP3   OH243115   1.571   7.072   2.681 -0.1301 -0.1651 -0.3016
 6307TIP3    H143116   1.500   7.133   2.697 -1.5686 -1.6172 -0.8536
 6307TIP3    H243117   1.591   7.081   2.588 -0.0760 -0.2367 -0.2977
 6308TIP3   OH243118   1.842   3.411   0.879  0.1827  0.3043 -0.2545
 6308TIP3    H143119   1.880   3.457   0.804  1.2178 -0.4571 -0.2239
 6308TIP3    H243120   1.748   3.409   0.861  0.2714  1.2455 -0.9025
 6309TIP3   OH243121   1.071   7.538   2.322 -0.1424  0.5021 -0.5252
 6309TIP3    H143122   0.979   7.545   2.346 -0.2475 -3.7710  1.3030
 6309TIP3    H243123   1.070   7.528   2.227 -1.8527 -1.1674 -0.4076
 6310TIP3   OH243124   0.709   1.315   2.278 -0.2562 -0.2043 -0.1761
 6310TIP3    H143125   0.688   1.245   2.216 -1.0587  0.9612 -1.2756
 6310TIP3    H243126   0.624   1.357   2.295  0.1156  0.1166  0.9486
 6311TIP3   OH243127   1.168   6.578   1.621  0.1054 -0.1840 -0.2517
 6311TIP3    H143128   1.184   6.669   1.596 -0.1321 -0.1900 -0.4338
 6311TIP3    H243129   1.180   6.528   1.540  0.2708 -0.3204 -0.1448
 6312TIP3   OH243130   7.035   3.834   1.357  0.0723 -0.0105  0.1291
 6312TIP3    H143131   7.028   3.912   1.302 -1.0832 -0.1816  0.0104
 6312TIP3    H243132   6.976   3.771   1.316 -0.4591 -0.2970  1.3115
 6313TIP3   OH243133   1.028   7.050   0.784  0.2873 -0.1109  0.3606
 6313TIP3    H143134   1.113   7.046   0.741 -0.0020  0.2455 -0.2760
 6313TIP3    H243135   0.968   7.008   0.721 -0.3575  1.5206 -0.1747
 6314TIP3   OH243136   6.813   7.146   0.349  0.3572 -0.3275  0.0105
 6314TIP3    H143137   6.878   7.122   0.284 -0.0969 -1.9555  0.1125
 6314TIP3    H243138   6.851   7.220   0.397  0.9098  0.5625 -1.7458
 6315TIP3   OH243139   2.445   0.668   0.617  0.0828 -0.0837 -0.1194
 6315TIP3    H143140   2.511   0.658   0.686  0.8297  2.0332 -0.4614
 6315TIP3    H243141   2.376   0.606   0.641  0.9535 -0.3945  1.7542
 6316TIP3   OH243142   7.497   5.399   1.954  0.0484  0.1513  0.1620
 6316TIP3    H143143   7.543   5.389   1.871  1.4195  1.2381  0.7557
 6316TIP3    H243144   7.526   5.325   2.007  0.0115  0.0595  0.0541
 6317TIP3   OH243145   5.641   4.163   0.500  0.0306  0.3384  0.3621
 6317TIP3    H143146   5.568   4.221   0.482 -0.3918 -0.8503 -2.0766
 6317TIP3    H243147   5.719   4.217   0.484 -0.3418  0.0676 -3.0443
 6318TIP3   OH243148   3.060   0.422   0.687 -0.4917 -0.0644  0.1583
 6318TIP3    H143149   2.980   0.370   0.683 -0.4608 -0.0961 -0.0471
 6318TIP3    H243150   3.040   0.502   0.639 -0.1373 -0.4244 -0.5932
 6319TIP3   OH243151   6.289   5.830   2.194  0.0042  0.2505  0.5604
 6319TIP3    H143152   6.293   5.814   2.100 -1.7223 -1.5182  0.7345
 6319TIP3    H243153   6.380   5.823   2.223  0.4776  0.1144 -0.8586
 6320TIP3   OH243154   4.222   3.918   3.318  0.1550 -0.3749 -0.2998
 6320TIP3    H143155   4.195   3.838   3.364 -0.3125  0.3130  0.6458
 6320TIP3    H243156   4.163   3.923   3.243 -0.0373 -0.7385 -0.1773
 6321TIP3   OH243157   4.990   4.288   2.596 -0.1473  0.4643  0.2050
 6321TIP3    H143158   5.047   4.335   2.657 -0.7534  1.0781  0.3237
 6321TIP3    H243159   4.909   4.274   2.646 -1.0425  1.8978 -0.7562
 6322TIP3   OH243160   7.071   4.456   0.693  0.2122 -0.1897  0.1145
 6322TIP3    H143161   6.998   4.394   0.685  1.8014 -1.9811 -1.4470
 6322TIP3    H243162   7.142   4.416   0.643  1.6680  2.4389 -0.0737
 6323TIP3   OH243163   2.759   4.693   0.904 -0.5449 -0.0041  0.1083
 6323TIP3    H143164   2.774   4.776   0.949 -0.5189  0.8142 -1.3358
 6323TIP3    H243165   2.726   4.718   0.818  0.0946 -1.4658 -0.6037
 6324TIP3   OH243166   0.815   1.612   3.479 -0.1211  0.4923  0.2093
 6324TIP3    H143167   0.823   1.685   3.541 -0.1209  1.2487 -0.6587
 6324TIP3    H243168   0.750   1.642   3.415  0.3317 -0.0171 -0.5057
 6325TIP3   OH243169   6.228   6.120   1.960  0.2194  0.7003 -0.1502
 6325TIP3    H143170   6.268   6.035   1.940  1.4136  0.9413  1.0594
 6325TIP3    H243171   6.208   6.116   2.054 -0.0244  1.6213 -0.1489
 6326TIP3   OH243172   4.089   6.998   2.285  0.0657 -0.2670 -0.0134
 6326TIP3    H143173   4.055   7.075   2.331  1.3092  0.0207  0.4599
 6326TIP3    H243174   4.104   7.028   2.195  1.5348  0.3778  0.4160
 6327TIP3   OH243175   0.612   3.490   2.515  0.1598  0.0486 -0.1950
 6327TIP3    H143176   0.525   3.451   2.507  0.3770 -0.2259 -1.4990
 6327TIP3    H243177   0.615   3.556   2.446  0.3308  1.3937  1.0442
 6328TIP3   OH243178   1.355   6.545   0.451  0.0870 -0.5443 -0.2716
 6328TIP3    H143179   1.433   6.600   0.462 -0.6955  0.6814 -0.6528
 6328TIP3    H243180   1.386   6.469   0.401  1.1864 -0.4669  0.2484
 6329TIP3   OH243181   4.366   2.076   0.937 -0.2361  0.2415 -0.1431
 6329TIP3    H143182   4.455   2.043   0.924  0.7706  2.8091 -0.2599
 6329TIP3    H243183   4.314   2.032   0.870  0.9113 -1.3212 -0.0593
 6330TIP3   OH243184   4.172   3.646   3.414 -0.2519  0.4274  0.1669
 6330TIP3    H143185   4.248   3.594   3.387 -1.2425  0.7943 -3.9991
 6330TIP3    H243186   4.105   3.581   3.435  0.3024  0.0892  0.9132
 6331TIP3   OH243187   3.210   7.436   1.238 -0.0335  0.7087 -0.1363
 6331TIP3    H143188   3.164   7.372   1.184  3.2926 -2.1663  0.0680
 6331TIP3    H243189   3.227   7.509   1.179 -1.9555  0.4428 -1.0843
 6332TIP3   OH243190   6.124   7.066   0.847  0.0509 -0.1104  0.2928
 6332TIP3    H143191   6.127   6.994   0.910 -2.1740  1.0445  1.8841
 6332TIP3    H243192   6.090   7.026   0.767  0.2318 -1.0978  0.6945
 6333TIP3   OH243193   4.787   4.549   2.095 -0.1309 -0.1278 -0.4602
 6333TIP3    H143194   4.777   4.641   2.068  0.6331 -0.0177 -0.3899
 6333TIP3    H243195   4.863   4.518   2.047  0.3300 -0.3780  0.4138
 6334TIP3   OH243196   4.677   1.521   0.684 -0.4145  0.2376  0.5627
 6334TIP3    H143197   4.756   1.505   0.735  1.0279  1.4825 -1.1903
 6334TIP3    H243198   4.694   1.603   0.638 -3.3051  1.3090  1.1755
 6335TIP3   OH243199   5.157   0.295   0.404 -0.5290  0.2411 -0.7314
 6335TIP3    H143200   5.189   0.223   0.350  0.8896  1.0997 -1.0816
 6335TIP3    H243201   5.152   0.258   0.493  1.6872  0.0798 -0.6111
 6336TIP3   OH243202   2.877   4.553   1.921  0.2005 -0.0752 -0.8079
 6336TIP3    H143203   2.895   4.479   1.978 -2.1512  0.7955  1.2043
 6336TIP3    H243204   2.795   4.532   1.878 -0.0235  0.9465 -0.9131
 6337TIP3   OH243205   0.512   0.419   2.183  0.2507  0.1027  0.6921
 6337TIP3    H143206   0.571   0.492   2.199 -0.4561  0.8578 -0.0968
 6337TIP3    H243207   0.500   0.418   2.088 -2.0225  0.7893  0.9205
 6338TIP3   OH243208   1.261   5.893   0.904 -0.4659  0.6034 -0.4748
 6338TIP3    H143209   1.294   5.806   0.925 -1.0047  0.6119  0.4506
 6338TIP3    H243210   1.328   5.953   0.936  0.3614  0.5281 -1.9656
 6339TIP3   OH243211   0.559   4.877   1.924  0.1743  0.1050  0.0525
 6339TIP3    H143212   0.526   4.855   1.838 -2.7058  1.5866  0.6593
 6339TIP3    H243213   0.582   4.793   1.964 -0.7861 -0.8052 -1.2567
 6340TIP3   OH243214   2.898   1.014   0.830  0.0044 -0.3111  0.1049
 6340TIP3    H143215   2.982   0.989   0.790 -0.4052  1.5335 -2.1249
 6340TIP3    H243216   2.839   0.942   0.809  0.5062 -0.6424 -0.1876
 6341TIP3   OH243217   6.830   6.104   0.795  0.1268  0.2562  0.0990
 6341TIP3    H143218   6.776   6.043   0.744 -2.0989  1.9761  0.2463
 6341TIP3    H243219   6.846   6.059   0.878 -1.1991 -0.2708  0.0914
 6342TIP3   OH243220   2.093   7.393   1.328  0.0763 -0.6566 -0.4193
 6342TIP3    H143221   1.998   7.388   1.338  0.2289 -0.1146  1.7546
 6342TIP3    H243222   2.127   7.331   1.392  1.2141 -1.4756 -1.7616
 6343TIP3   OH243223   2.942   4.610   1.362  0.6941  0.4866 -0.2348
 6343TIP3    H143224   3.037   4.613   1.347  0.5445 -2.5343 -2.8344
 6343TIP3    H243225   2.908   4.685   1.315  1.5931 -0.3577 -2.3329
 6344TIP3   OH243226   0.679   5.008   1.040 -0.1892  0.5736  0.3600
 6344TIP3    H143227   0.761   4.994   1.087 -0.5002  2.2503  1.5105
 6344TIP3    H243228   0.699   4.986   0.949  1.1980 -0.1662  0.8102
 6345TIP3   OH243229   6.843   4.283   0.629 -0.1635 -0.1446 -0.1038
 6345TIP3    H143230   6.832   4.189   0.635  0.3168 -0.2457 -0.7215
 6345TIP3    H243231   6.758   4.315   0.597 -0.3505 -0.3531  0.1757
 6346TIP3   OH243232   1.015   6.123   1.241 -0.1723  0.3870 -0.0342
 6346TIP3    H143233   1.073   6.156   1.172  0.5370  1.9917  1.2645
 6346TIP3    H243234   1.072   6.074   1.300  0.4482  3.6806  2.3766
 6347TIP3   OH243235   0.298   7.450   2.713 -0.2597 -0.0480 -0.5247
 6347TIP3    H143236   0.347   7.381   2.758  0.6297  0.5809 -0.4917
 6347TIP3    H243237   0.210   7.445   2.750  0.5771  0.8213  1.7901
 6348TIP3   OH243238   1.552   3.810   2.451  0.4409  0.7221  0.4932
 6348TIP3    H143239   1.533   3.835   2.360 -0.7887 -0.9446  0.2402
 6348TIP3    H243240   1.537   3.889   2.501 -1.4442  1.0351 -0.4705
 6349TIP3   OH243241   6.354   5.220   1.713  0.1725 -0.0936  0.1880
 6349TIP3    H143242   6.408   5.193   1.638  0.2490  0.4026  0.0570
 6349TIP3    H243243   6.396   5.301   1.744  0.8129 -0.8925  1.4717
 6350TIP3   OH243244   1.492   6.209   1.982 -0.0493 -0.1300  0.2374
 6350TIP3    H143245   1.402   6.183   1.961  0.3256 -0.7694 -0.6632
 6350TIP3    H243246   1.524   6.140   2.040 -0.3431  0.4411  1.0924
 6351TIP3   OH243247   6.123   7.189   0.518  0.0914  0.2749  0.5748
 6351TIP3    H143248   6.143   7.102   0.554  0.2854  0.0305 -0.1046
 6351TIP3    H243249   6.150   7.184   0.427  1.1619  1.4224  0.8080
 6352TIP3   OH243250   4.179   1.218   1.405 -0.2233 -1.0905 -0.0229
 6352TIP3    H143251   4.179   1.124   1.387 -0.3224 -1.1909  0.4827
 6352TIP3    H243252   4.092   1.236   1.441 -0.6337 -0.5862 -1.2005
 6353TIP3   OH243253   7.570   6.520   2.394 -0.3935 -0.3463  0.6314
 6353TIP3    H143254   7.535   6.558   2.313  0.5946  0.2753  0.4737
 6353TIP3    H243255   7.533   6.574   2.464 -1.1428 -0.8003  0.5924
 6354TIP3   OH243256   1.447   7.401   1.078 -0.3745 -0.0187  0.5412
 6354TIP3    H143257   1.390   7.324   1.080  1.8802 -1.9109 -1.4396
 6354TIP3    H243258   1.410   7.457   1.010 -1.9078  0.6565  1.8522
 6355TIP3   OH243259   4.454   7.445   1.722  0.3545 -0.5382 -0.1216
 6355TIP3    H143260   4.490   7.532   1.740  0.9984 -0.6372 -0.8669
 6355TIP3    H243261   4.500   7.386   1.782 -1.0511 -0.2027  1.3504
 6356TIP3   OH243262   0.095   1.779   3.368 -0.3059  0.1264  0.1855
 6356TIP3    H143263   0.019   1.834   3.389 -0.6654  0.8903 -2.6391
 6356TIP3    H243264   0.163   1.841   3.343 -0.2119 -0.6266 -1.5539
 6357TIP3   OH243265   1.073   3.548   1.097  0.1865  0.1796  0.7546
 6357TIP3    H143266   1.091   3.455   1.093  0.4150  0.2666 -1.5333
 6357TIP3    H243267   1.156   3.588   1.122  0.2558 -0.1686  1.0928
 6358TIP3   OH243268   0.775   6.562   1.510 -0.2237 -0.1642  0.5888
 6358TIP3    H143269   0.775   6.546   1.605 -1.6537 -0.0251  0.6344
 6358TIP3    H243270   0.865   6.546   1.483  0.2843  0.1175  2.0303
 6359TIP3   OH243271   3.001   1.311   1.560  0.9393 -0.5201 -0.0010
 6359TIP3    H143272   3.090   1.276   1.560  0.3766 -1.9864 -0.0051
 6359TIP3    H243273   2.984   1.334   1.468  1.5257  0.3771  0.0997
 6360TIP3   OH243274   1.833   1.339   2.108 -0.5601  0.3583 -0.3948
 6360TIP3    H143275   1.742   1.333   2.135 -0.3690  0.9762  0.4507
 6360TIP3    H243276   1.883   1.321   2.188  0.0289  3.0135 -0.0752
 6361TIP3   OH243277   3.953   3.784   2.595 -0.5440  0.1892 -0.6084
 6361TIP3    H143278   4.022   3.732   2.636 -0.3104  0.7886 -0.2278
 6361TIP3    H243279   3.940   3.858   2.655 -1.7769 -0.1108 -0.4747
 6362TIP3   OH243280   7.534   4.173   0.696  0.2161  0.2600 -0.1085
 6362TIP3    H143281   7.569   4.122   0.623 -0.7975 -2.0346  0.9020
 6362TIP3    H243282   7.449   4.204   0.665  0.4617  0.6209 -0.4294
 6363TIP3   OH243283   6.377   2.029   1.696  0.1138 -0.6143 -0.3598
 6363TIP3    H143284   6.426   2.001   1.618  1.2542  1.4301 -0.4625
 6363TIP3    H243285   6.427   2.103   1.730 -0.5750 -1.1917  2.1251
 6364TIP3   OH243286   3.577   1.876   0.952  0.4963 -0.1117  0.2210
 6364TIP3    H143287   3.579   1.971   0.967  0.0370  0.1742 -1.3807
 6364TIP3    H243288   3.662   1.856   0.912 -0.4655  0.1638 -2.1419
 6365TIP3   OH243289   7.478   3.464   2.474 -0.2344  0.1217 -0.7438
 6365TIP3    H143290   7.426   3.503   2.404 -1.0098 -0.1628 -0.3342
 6365TIP3    H243291   7.478   3.370   2.455 -1.0771 -0.0464  0.0412
 6366TIP3   OH243292   2.801   4.472   1.580  0.1756  0.1867  0.2080
 6366TIP3    H143293   2.811   4.386   1.620 -0.8505 -0.5467 -1.0608
 6366TIP3    H243294   2.860   4.470   1.505  0.8932  0.9783  0.7273
 6367TIP3   OH243295   2.514   3.668   0.591  0.0941  0.1100  0.0636
 6367TIP3    H143296   2.452   3.732   0.554 -0.3993  0.6395  1.7229
 6367TIP3    H243297   2.580   3.722   0.634  0.9067 -0.4852 -0.4180
 6368TIP3   OH243298   0.009   5.730   2.103 -0.0964  0.1934 -0.5747
 6368TIP3    H143299   0.012   5.637   2.124 -0.1857  0.5701  1.3530
 6368TIP3    H243300   0.099   5.752   2.080 -0.0295 -0.3268 -0.8268
 6369TIP3   OH243301   6.260   7.266   0.978  0.7063  0.2457 -0.0808
 6369TIP3    H143302   6.305   7.194   1.024  1.2738  1.4151  1.2808
 6369TIP3    H243303   6.215   7.223   0.906  2.6301 -1.2438 -0.5080
 6370TIP3   OH243304   4.733   2.116   2.361  0.5070 -0.3669 -0.0940
 6370TIP3    H143305   4.650   2.087   2.323  0.2668  0.8855 -0.5569
 6370TIP3    H243306   4.709   2.191   2.415  1.5407  1.0659 -1.5528
 6371TIP3   OH243307   4.360   6.806   2.112 -0.7605 -0.1049  0.2357
 6371TIP3    H143308   4.408   6.733   2.075 -1.8551 -2.0566  2.3882
 6371TIP3    H243309   4.284   6.817   2.055  0.3665  0.6863 -1.1803
 6372TIP3   OH243310   1.072   4.751   1.403  0.0954 -0.5285  0.2132
 6372TIP3    H143311   1.116   4.836   1.400  1.8534 -1.3834  0.4224
 6372TIP3    H243312   0.997   4.761   1.345  1.7089  0.3976 -1.8627
 6373TIP3   OH243313   0.691   7.544   1.299 -0.1917 -0.4039 -0.2744
 6373TIP3    H143314   0.724   7.473   1.244  1.6261  0.6547 -0.6405
 6373TIP3    H243315   0.653   7.607   1.238 -0.4195 -0.3485 -0.0806
 6374TIP3   OH243316   6.841   2.096   3.301 -0.0821  0.0598  0.2566
 6374TIP3    H143317   6.792   2.177   3.291 -1.7795 -1.0780 -1.1825
 6374TIP3    H243318   6.932   2.120   3.284 -0.6307  1.5458 -0.7112
 6375TIP3   OH243319   3.009   5.652   3.169 -0.1099  0.3806 -0.6697
 6375TIP3    H143320   3.043   5.610   3.091 -0.3558 -1.6989  0.2673
 6375TIP3    H243321   3.085   5.691   3.211  0.9075 -2.4665  0.3645
 6376TIP3   OH243322   0.927   1.013   1.562  0.1743  0.7770 -0.4673
 6376TIP3    H143323   1.013   1.044   1.589  0.2640  0.0519  0.1100
 6376TIP3    H243324   0.886   1.089   1.521  1.6387  0.7376 -2.0921
 6377TIP3   OH243325   5.232   2.896   0.682 -0.3268  0.3095 -0.1038
 6377TIP3    H143326   5.156   2.845   0.652  0.4783 -0.0372 -1.6356
 6377TIP3    H243327   5.278   2.837   0.742 -0.6863  0.1142 -0.0194
 6378TIP3   OH243328   2.025   1.714   1.277 -0.1183  0.1417 -0.9077
 6378TIP3    H143329   1.949   1.771   1.265  0.1395  0.5581 -0.6078
 6378TIP3    H243330   2.083   1.764   1.333  0.8951  0.3333 -2.0765
 6379TIP3   OH243331   2.867   6.054   1.158 -0.3516 -0.2588 -0.1262
 6379TIP3    H143332   2.901   5.986   1.101  1.3943  0.1866  0.3475
 6379TIP3    H243333   2.818   6.006   1.226  2.2074 -1.2529  1.1649
 6380TIP3   OH243334   3.197   1.677   1.010  0.2453 -0.0932 -0.5129
 6380TIP3    H143335   3.246   1.727   0.944  1.7386  0.6244  1.0463
 6380TIP3    H243336   3.168   1.743   1.074 -2.4901 -0.5515 -1.1484
 6381TIP3   OH243337   6.658   4.355   3.325 -0.2195  0.1403  0.3413
 6381TIP3    H143338   6.732   4.382   3.379 -0.0964  0.9515 -0.2130
 6381TIP3    H243339   6.680   4.386   3.237  0.1521 -2.1955 -0.4514
 6382TIP3   OH243340   1.550   6.271   2.363  0.3321 -0.1272 -0.8076
 6382TIP3    H143341   1.495   6.309   2.432  0.1398  0.1362 -1.1033
 6382TIP3    H243342   1.634   6.254   2.406  0.2530  0.1519 -0.5406
 6383TIP3   OH243343   0.883   5.124   2.284  0.4265  0.2587 -0.4129
 6383TIP3    H143344   0.845   5.037   2.293  1.9964 -0.5470 -1.1296
 6383TIP3    H243345   0.847   5.174   2.357 -1.7234 -0.5111 -0.8831
 6384TIP3   OH243346   1.242   6.765   2.136 -0.1527 -0.5839 -0.4817
 6384TIP3    H143347   1.288   6.817   2.202 -0.1574  0.1663 -1.0491
 6384TIP3    H243348   1.242   6.676   2.170 -0.0199 -0.2336  0.4540
 6385TIP3   OH243349   5.167   5.597   0.783 -0.8909 -0.2373 -0.5850
 6385TIP3    H143350   5.089   5.572   0.733 -1.7967  0.2614  0.5235
 6385TIP3    H243351   5.218   5.517   0.791 -2.0488 -0.9521 -0.0486
 6386TIP3   OH243352   1.447   6.315   0.642 -0.5600 -0.0101  0.0341
 6386TIP3    H143353   1.432   6.372   0.718  0.7412 -0.3515  0.5829
 6386TIP3    H243354   1.532   6.344   0.607 -1.9403  1.3797 -2.4545
 6387TIP3   OH243355   3.998   7.262   0.887  0.5412  0.2173  0.0435
 6387TIP3    H143356   3.934   7.316   0.933 -0.3272  0.3838 -1.2833
 6387TIP3    H243357   3.949   7.227   0.812  2.1403  0.8250 -1.3432
 6388TIP3   OH243358   2.918   1.819   0.707 -0.2771  0.5588  0.2595
 6388TIP3    H143359   2.908   1.863   0.622  0.0329  0.9438  0.4195
 6388TIP3    H243360   2.840   1.844   0.756 -0.2759  0.6403  0.2208
 6389TIP3   OH243361   0.180   6.157   0.969 -0.1321 -0.3035 -0.0205
 6389TIP3    H143362   0.271   6.149   0.940  0.3213  0.5746  1.1066
 6389TIP3    H243363   0.160   6.071   1.005  0.6718 -0.1339  0.8630
 6390TIP3   OH243364   7.021   1.237   0.971  0.3033 -0.0331  0.0386
 6390TIP3    H143365   7.094   1.281   0.926 -0.7240  0.7041 -0.9466
 6390TIP3    H243366   6.984   1.305   1.027  0.2537 -0.3564  0.3997
 6391TIP3   OH243367   5.091   4.429   2.807  0.3546 -0.9539  0.2870
 6391TIP3    H143368   5.129   4.515   2.793  0.7726 -1.3843 -1.4382
 6391TIP3    H243369   4.999   4.446   2.827  0.2796 -0.1392 -0.7248
 6392TIP3   OH243370   7.011   2.371   1.375  0.4979  0.1936  0.0832
 6392TIP3    H143371   6.946   2.341   1.312  0.9343 -1.3202  0.3176
 6392TIP3    H243372   7.076   2.417   1.322  2.1199 -3.0857 -1.0227
 6393TIP3   OH243373   0.611   0.316   1.458 -0.0207  0.5013  0.1130
 6393TIP3    H143374   0.527   0.297   1.415  0.3669  1.4657 -1.1392
 6393TIP3    H243375   0.587   0.370   1.533 -0.3883  3.7210 -2.1023
 6394TIP3   OH243376   5.456   4.928   2.386  0.0543 -0.1656  1.1968
 6394TIP3    H143377   5.510   5.005   2.367 -0.1332 -0.1076  0.8942
 6394TIP3    H243378   5.514   4.870   2.436  0.8303 -0.6794 -0.2380
 6395TIP3   OH243379   6.189   6.597   1.439  0.2000 -0.0224  0.0660
 6395TIP3    H143380   6.201   6.532   1.509  1.2594 -0.6574 -0.6795
 6395TIP3    H243381   6.236   6.675   1.471  0.7158 -0.3228  0.0483
 6396TIP3   OH243382   6.264   6.751   7.801  0.0300  0.1430  0.1511
 6396TIP3    H143383   6.204   6.772   7.873  0.4844 -0.4377  0.7184
 6396TIP3    H243384   6.207   6.732   7.727 -0.6029 -1.8403  1.0587
 6397TIP3   OH243385   6.539   5.268   1.975 -0.1749  0.9406 -0.0280
 6397TIP3    H143386   6.606   5.277   2.043 -0.1679  1.9491 -0.1573
 6397TIP3    H243387   6.588   5.268   1.893 -0.1548 -0.6045 -0.0475
 6398TIP3   OH243388   4.345   6.263   1.659  0.0233 -0.0107 -0.0942
 6398TIP3    H143389   4.395   6.270   1.740  0.0725  1.4345 -0.2358
 6398TIP3    H243390   4.353   6.170   1.635 -2.3380 -1.1809  2.9953
 6399TIP3   OH243391   2.631   6.787   1.973  0.1628 -0.9198  0.0442
 6399TIP3    H143392   2.638   6.857   2.037 -0.9108 -0.7612  0.0149
 6399TIP3    H243393   2.646   6.707   2.024 -1.0595 -0.8231  0.5996
 6400TIP3   OH243394   4.597   0.834   0.782  1.1629 -0.2642  0.3629
 6400TIP3    H143395   4.651   0.802   0.709  0.2026 -0.1955 -0.3973
 6400TIP3    H243396   4.540   0.900   0.742 -0.2496 -1.1156  0.9145
 6401TIP3   OH243397   3.321   0.319   0.531 -0.7355 -0.8980  0.3115
 6401TIP3    H143398   3.301   0.388   0.467  0.2250 -1.2232 -0.3668
 6401TIP3    H243399   3.316   0.363   0.616 -1.8443 -0.4106  0.0154
 6402TIP3   OH243400   0.830   4.848   2.855 -0.1525 -0.6705 -0.3058
 6402TIP3    H143401   0.916   4.821   2.824 -0.6756 -3.2318  0.2751
 6402TIP3    H243402   0.769   4.817   2.788 -0.6984  0.5272 -0.3870
 6403TIP3   OH243403   5.424   0.507   1.895  0.0716 -0.2779  0.2305
 6403TIP3    H143404   5.486   0.566   1.938  1.0201 -1.2794  0.2664
 6403TIP3    H243405   5.350   0.501   1.955 -0.5018  1.6232 -0.2013
 6404TIP3   OH243406   5.151   5.492   1.252 -0.4293 -0.8448 -0.0817
 6404TIP3    H143407   5.178   5.400   1.249 -0.3147 -0.8251  0.3032
 6404TIP3    H243408   5.103   5.505   1.171 -0.7434 -1.3387  0.0200
 6405TIP3   OH243409   0.312   1.099   1.420 -0.4691  0.4150  0.4387
 6405TIP3    H143410   0.333   1.009   1.446 -2.1522 -0.0279  0.4147
 6405TIP3    H243411   0.363   1.154   1.480  0.5142 -0.5541  0.5122
 6406TIP3   OH243412   0.928   2.889   0.660  0.5045 -0.3714 -0.7643
 6406TIP3    H143413   0.873   2.861   0.587 -0.4729 -2.3871  0.6569
 6406TIP3    H243414   0.869   2.939   0.717  0.8595 -0.1306 -0.6028
 6407TIP3   OH243415   3.870   7.347   0.379  0.2054  0.2571  0.0202
 6407TIP3    H143416   3.914   7.380   0.301 -0.5433  0.2147 -0.4211
 6407TIP3    H243417   3.925   7.377   0.452  0.8695  0.3480 -0.5103
 6408TIP3   OH243418   2.904   1.741   1.316  0.5702 -0.5332  0.1967
 6408TIP3    H143419   2.842   1.707   1.379  1.0629 -2.7608 -0.4484
 6408TIP3    H243420   2.990   1.723   1.354  0.9002  1.4524  0.5372
 6409TIP3   OH243421   5.389   3.099   2.963  0.0061 -0.1713  0.3897
 6409TIP3    H143422   5.352   3.029   2.909  0.2605  0.3175 -0.4297
 6409TIP3    H243423   5.455   3.055   3.017 -0.3324 -0.6825  0.3947
 6410TIP3   OH243424   6.965   0.607   2.271  0.1605 -0.4759 -0.1848
 6410TIP3    H143425   7.007   0.617   2.185 -0.5493 -0.7955 -0.5763
 6410TIP3    H243426   7.010   0.670   2.327  1.5026 -1.1329 -0.4664
 6411TIP3   OH243427   0.695   7.170   1.487 -0.2001  0.1100  0.2739
 6411TIP3    H143428   0.622   7.183   1.426 -1.4375 -1.5659  1.3160
 6411TIP3    H243429   0.769   7.147   1.431 -1.4090 -1.7905 -0.6645
 6412TIP3   OH243430   6.416   7.229   2.176 -0.3677  0.6874 -0.0620
 6412TIP3    H143431   6.495   7.197   2.220 -1.3636 -0.6191  0.8547
 6412TIP3    H243432   6.396   7.162   2.111 -1.6747  0.0760  0.9137
 6413TIP3   OH243433   5.476   2.978   2.432  0.7303  0.6901 -0.6847
 6413TIP3    H143434   5.445   3.062   2.398 -0.6223 -0.0078 -1.2273
 6413TIP3    H243435   5.522   2.939   2.358 -1.0715 -0.2494 -1.3556
 6414TIP3   OH243436   6.345   6.778   1.528 -0.4456  0.5209 -0.6215
 6414TIP3    H143437   6.347   6.870   1.500  0.2060  1.1316  1.2576
 6414TIP3    H243438   6.434   6.747   1.512 -0.1426  0.7973  0.4278
 6415TIP3   OH243439   7.481   4.864   1.366  0.3674  0.2193 -0.3321
 6415TIP3    H143440   7.473   4.959   1.374 -0.7485  0.1690 -0.6055
 6415TIP3    H243441   7.555   4.851   1.307  0.9037  0.8957  0.1662
 6416TIP3   OH243442   2.708   5.928   0.884  0.1782 -0.0102 -0.6285
 6416TIP3    H143443   2.647   5.998   0.859  0.6970  1.1478  1.1394
 6416TIP3    H243444   2.782   5.938   0.825 -0.5327 -0.2448 -1.5768
 6417TIP3   OH243445   7.158   5.452   1.201 -0.0330 -0.0383 -0.4265
 6417TIP3    H143446   7.210   5.532   1.190  0.7208 -0.4259  0.1889
 6417TIP3    H243447   7.169   5.405   1.118  0.3617  0.0206 -0.4099
 6418TIP3   OH243448   3.946   4.226   1.264  0.2511 -0.3098 -0.0465
 6418TIP3    H143449   3.998   4.281   1.206  0.3928 -0.4207 -0.0241
 6418TIP3    H243450   3.987   4.139   1.259  1.0369 -0.0295  1.1894
 6419TIP3   OH243451   3.035   4.727   1.114 -0.3085 -0.0768  0.3258
 6419TIP3    H143452   2.959   4.785   1.110  0.7191  1.2314 -1.0823
 6419TIP3    H243453   3.085   4.759   1.189 -0.0587  0.4728 -0.0703
 6420TIP3   OH243454   0.305   2.672   2.652  0.4940  0.6332 -0.5190
 6420TIP3    H143455   0.220   2.666   2.609  0.3467  0.7206 -0.2434
 6420TIP3    H243456   0.294   2.623   2.734 -0.0960  2.8436  0.7928
 6421TIP3   OH243457   4.521   6.339   0.893 -0.1647 -0.0257 -0.0858
 6421TIP3    H143458   4.447   6.278   0.893  0.2470 -0.5647  1.2643
 6421TIP3    H243459   4.579   6.305   0.961  1.1485  0.6056 -0.8685
 6422TIP3   OH243460   1.734   3.236   1.897 -0.5287 -0.4644  0.0843
 6422TIP3    H143461   1.729   3.326   1.929 -1.9910 -0.1047 -1.0392
 6422TIP3    H243462   1.813   3.235   1.843 -0.9660  0.4039 -0.5966
 6423TIP3   OH243463   3.575   3.074   2.897 -0.2634 -0.7521  0.6827
 6423TIP3    H143464   3.557   3.096   2.988  0.3088  0.6926  0.4690
 6423TIP3    H243465   3.595   3.158   2.855 -0.0708 -1.4445 -0.6688
 6424TIP3   OH243466   6.964   5.185   1.660  0.0010 -0.4264 -0.1992
 6424TIP3    H143467   7.019   5.122   1.707 -0.1514  0.0350  0.6071
 6424TIP3    H243468   7.007   5.194   1.575  0.0738 -1.5461 -0.2937
 6425TIP3   OH243469   0.077   5.565   2.575 -0.0198  0.0042  0.2437
 6425TIP3    H143470  -0.016   5.544   2.580  0.0593 -0.2331  0.8734
 6425TIP3    H243471   0.118   5.508   2.640  1.0356 -2.4127 -2.3452
 6426TIP3   OH243472   0.433   4.106   1.341 -0.1308 -0.4984  0.6323
 6426TIP3    H143473   0.391   4.062   1.267 -2.9225  0.9333  1.2424
 6426TIP3    H243474   0.361   4.148   1.389  2.1113  3.7952  0.7392
 6427TIP3   OH243475   4.645   2.367   0.916 -0.5449 -0.0206 -0.0266
 6427TIP3    H143476   4.673   2.349   1.005 -1.1087  1.5315  0.4899
 6427TIP3    H243477   4.713   2.327   0.861  0.5724  0.2584  1.1088
 6428TIP3   OH243478   3.699   4.474   0.951  0.4648 -0.1118  0.1796
 6428TIP3    H143479   3.772   4.531   0.976 -0.0735  1.0628 -0.8341
 6428TIP3    H243480   3.635   4.485   1.020 -0.5421  2.2504 -1.0057
 6429TIP3   OH243481   0.235   3.497   1.288  0.4430  0.0963  0.6493
 6429TIP3    H143482   0.281   3.444   1.222  1.4020 -0.3777  1.6651
 6429TIP3    H243483   0.143   3.489   1.265  0.8145  0.8268 -1.2797
 6430TIP3   OH243484   5.626   4.759   0.635 -0.2853 -0.9221  0.5626
 6430TIP3    H143485   5.570   4.716   0.700  0.5869 -1.1834  1.1620
 6430TIP3    H243486   5.639   4.847   0.669 -0.6981 -0.7076  0.1840
 6431TIP3   OH243487   5.828   3.614   0.840  0.1115 -0.0547 -0.1894
 6431TIP3    H143488   5.852   3.706   0.841 -0.9978  0.2855 -2.1207
 6431TIP3    H243489   5.911   3.567   0.829  0.5205  0.7892 -0.7243
 6432TIP3   OH243490   1.081   3.278   3.353 -0.4455 -0.6883  0.0538
 6432TIP3    H143491   1.013   3.240   3.297  0.3665 -0.9319 -0.8008
 6432TIP3    H243492   1.137   3.325   3.292  0.2135 -0.5911  0.7319
 6433TIP3   OH243493   4.754   0.087   3.464  0.4084  0.1682  0.0043
 6433TIP3    H143494   4.699   0.030   3.518 -0.6789  1.7965  0.7192
 6433TIP3    H243495   4.758   0.044   3.379  0.2209 -1.3100  0.7140
 6434TIP3   OH243496   2.748   1.395   1.592  0.3694 -0.2255  0.2265
 6434TIP3    H143497   2.837   1.365   1.575  0.2305 -0.8020  0.5178
 6434TIP3    H243498   2.710   1.329   1.649 -1.2480 -1.6443 -2.3111
 6435TIP3   OH243499   4.320   2.619   2.537 -0.2731  0.5937  0.5015
 6435TIP3    H143500   4.407   2.654   2.557  0.0638 -0.7267  1.4594
 6435TIP3    H243501   4.266   2.644   2.612 -0.7075  1.2738 -0.0183
 6436TIP3   OH243502   5.424   0.952   1.877 -0.1448  0.1968 -0.5476
 6436TIP3    H143503   5.416   0.906   1.961 -0.5488 -2.0391 -1.7273
 6436TIP3    H243504   5.484   0.897   1.826  0.4009  1.7171 -1.6049
 6437TIP3   OH243505   7.026   6.758   0.695  0.5354 -0.4863 -0.1616
 6437TIP3    H143506   6.967   6.811   0.642  1.3673 -0.0932 -0.7172
 6437TIP3    H243507   6.998   6.668   0.681  0.1440 -0.3102 -0.5072
 6438TIP3   OH243508   5.313   3.712   2.658 -0.2379  0.3689 -0.3787
 6438TIP3    H143509   5.404   3.741   2.649 -0.1961 -0.2137 -2.0689
 6438TIP3    H243510   5.302   3.698   2.752  1.1837  1.1912 -0.0624
 6439TIP3   OH243511   2.735   0.186   1.534 -0.3427  0.0540  0.0738
 6439TIP3    H143512   2.713   0.249   1.603  0.6592 -1.9689  2.4032
 6439TIP3    H243513   2.744   0.239   1.455  0.3041  2.8005  1.8450
 6440TIP3   OH243514   0.183   0.592   0.686  0.3586  0.4019 -0.5652
 6440TIP3    H143515   0.159   0.628   0.601 -0.5816 -1.3860 -1.1111
 6440TIP3    H243516   0.274   0.619   0.699 -0.0577  2.2722 -1.2421
 6441TIP3   OH243517   6.005   4.304   3.332 -0.6705 -0.4362  0.0446
 6441TIP3    H143518   6.090   4.344   3.313  0.1184 -2.2085 -0.3919
 6441TIP3    H243519   5.960   4.367   3.387  1.2376  0.2358  0.9239
 6442TIP3   OH243520   6.846   6.817   2.439 -0.0731 -0.4076 -0.1104
 6442TIP3    H143521   6.763   6.862   2.459 -1.4445 -2.2491 -1.3742
 6442TIP3    H243522   6.867   6.844   2.350 -0.5112 -1.6053 -0.5998
 6443TIP3   OH243523   0.924   2.732   0.977 -0.3458  0.3493 -0.7456
 6443TIP3    H143524   0.945   2.826   0.974 -0.3941  0.3325 -1.8947
 6443TIP3    H243525   1.008   2.689   0.962 -0.6875  0.2525 -2.6058
 6444TIP3   OH243526   6.476   7.416   2.610 -0.0212  0.1884 -0.1245
 6444TIP3    H143527   6.438   7.397   2.524  0.8163 -1.8232 -0.0930
 6444TIP3    H243528   6.552   7.358   2.616  0.5255  1.0274  1.5738
 6445TIP3   OH243529   6.065   4.730   1.420 -0.3542 -0.0895 -0.6091
 6445TIP3    H143530   6.140   4.684   1.457  0.8649  1.7806 -0.6127
 6445TIP3    H243531   5.995   4.717   1.485  1.3661  2.0301  1.8777
 6446TIP3   OH243532   7.014   3.680   3.346 -0.3446 -0.1328  0.4131
 6446TIP3    H143533   6.993   3.605   3.401 -3.3399 -0.1704 -0.5726
 6446TIP3    H243534   7.106   3.669   3.323 -0.5183 -3.1847  0.7927
 6447TIP3   OH243535   5.924   5.457   0.406  0.1587  0.0845  0.4875
 6447TIP3    H143536   5.861   5.477   0.337 -1.3174 -2.0311  1.1026
 6447TIP3    H243537   5.894   5.509   0.481  0.3115  0.5284  0.2463
 6448TIP3   OH243538   5.472   1.028   1.045  0.1287 -0.2759  0.4483
 6448TIP3    H143539   5.506   1.111   1.012 -0.5759 -0.3226 -0.4343
 6448TIP3    H243540   5.537   0.999   1.109 -0.5464  1.8981  2.2130
 6449TIP3   OH243541   7.162   5.680   0.874 -0.2574  0.6161 -0.2505
 6449TIP3    H143542   7.194   5.663   0.963  0.2833  0.4096 -0.4852
 6449TIP3    H243543   7.206   5.761   0.848  2.0012 -0.9094 -1.4877
 6450TIP3   OH243544   0.580   2.076   2.555 -0.2447  0.0284  0.2659
 6450TIP3    H143545   0.661   2.043   2.593 -1.4168 -2.1598  1.0339
 6450TIP3    H243546   0.573   2.166   2.588  1.8732  0.3022  0.0924
 6451TIP3   OH243547   2.579   5.401   2.458 -0.0472  0.2020  0.4463
 6451TIP3    H143548   2.510   5.349   2.416  1.4941 -0.7839 -1.0404
 6451TIP3    H243549   2.588   5.363   2.545  1.0449 -2.1737 -0.6091
 6452TIP3   OH243550   0.485   6.718   1.694 -0.1173 -0.0006 -1.0070
 6452TIP3    H143551   0.566   6.671   1.713 -0.1650 -0.2274 -1.3479
 6452TIP3    H243552   0.501   6.760   1.609 -1.0945 -1.7972 -2.1378
 6453TIP3   OH243553   1.246   4.529   1.067  0.0866 -0.4610 -0.0330
 6453TIP3    H143554   1.327   4.573   1.092 -0.6851  1.4398 -0.7253
 6453TIP3    H243555   1.241   4.453   1.125  0.7028  1.2230  2.3773
 6454TIP3   OH243556   1.133   2.954   3.220  0.1943  0.0831 -0.1619
 6454TIP3    H143557   1.172   2.917   3.299 -0.8763  1.5051  1.0919
 6454TIP3    H243558   1.038   2.948   3.234 -0.0176  0.6624 -1.1869
 6455TIP3   OH243559   4.886   4.595   1.188 -0.0872  0.3758 -0.7277
 6455TIP3    H143560   4.919   4.662   1.249 -0.9273 -0.2522  0.4626
 6455TIP3    H243561   4.945   4.520   1.201 -1.3448 -0.4373  0.7698
 6456TIP3   OH243562   6.826   7.152   2.093 -0.4043 -0.0329  0.3377
 6456TIP3    H143563   6.813   7.173   2.000  1.0092 -0.7772 -0.0569
 6456TIP3    H243564   6.891   7.216   2.123  0.6914 -1.0609  0.2459
 6457TIP3   OH243565   7.266   2.653   2.484 -1.1030 -0.0506  0.6218
 6457TIP3    H143566   7.210   2.605   2.545 -1.0223 -0.8528  0.0820
 6457TIP3    H243567   7.216   2.731   2.461 -2.2564 -1.0362 -0.2872
 6458TIP3   OH243568   5.106   5.407   2.626 -0.2195 -0.5589  0.0049
 6458TIP3    H143569   5.115   5.454   2.709  0.0753 -0.8976  0.1696
 6458TIP3    H243570   5.149   5.323   2.642 -1.3653 -1.1793 -0.0502
 6459TIP3   OH243571   6.259   5.383   2.016  0.3825  0.5261 -0.3676
 6459TIP3    H143572   6.351   5.364   1.997 -0.0960 -0.2762 -1.9679
 6459TIP3    H243573   6.209   5.319   1.966 -1.0917  1.7257 -0.5248
 6460TIP3   OH243574   2.274   4.541   2.803  0.0500  0.3030  0.0476
 6460TIP3    H143575   2.247   4.533   2.894  0.2216 -1.5920 -0.0168
 6460TIP3    H243576   2.370   4.546   2.806 -0.0144  1.8648  0.0296
 6461TIP3   OH243577   3.077   1.346   0.504  0.2967  0.4220 -0.0869
 6461TIP3    H143578   3.140   1.362   0.434 -0.5095 -0.1648 -0.9619
 6461TIP3    H243579   3.056   1.253   0.497  0.1571  0.3655  0.9008
 6462TIP3   OH243580   4.719   2.661   1.152  0.2387  0.4539  0.2373
 6462TIP3    H143581   4.768   2.637   1.230  0.0107  1.5331  0.7260
 6462TIP3    H243582   4.695   2.577   1.112  0.2803 -0.1090  1.3675
 6463TIP3   OH243583   2.622   0.804   2.364  0.1096  0.1469 -0.5157
 6463TIP3    H143584   2.661   0.751   2.433  1.0558 -1.0256 -1.8822
 6463TIP3    H243585   2.686   0.800   2.292 -0.8083  1.3551 -1.4396
 6464TIP3   OH243586   0.784   5.293   2.877 -0.4093 -0.2666  0.2081
 6464TIP3    H143587   0.718   5.320   2.942 -2.1533  2.8915 -2.5168
 6464TIP3    H243588   0.735   5.240   2.815  0.5454 -0.9581  0.0395
 6465TIP3   OH243589   3.739   1.620   2.289 -0.0420  0.5104 -0.5318
 6465TIP3    H143590   3.766   1.698   2.240  1.6261  0.2522 -0.1016
 6465TIP3    H243591   3.773   1.635   2.378  1.3149 -1.1834 -0.7197
 6466TIP3   OH243592   6.583   5.638   3.219 -0.3611  0.1723  0.3905
 6466TIP3    H143593   6.577   5.670   3.309 -1.9353  0.7558  0.1024
 6466TIP3    H243594   6.638   5.559   3.226  0.4650  0.8232  1.6762
 6467TIP3   OH243595   3.567   0.185   2.135  0.9491 -0.3771 -0.5126
 6467TIP3    H143596   3.548   0.131   2.211  2.5956  1.1005  1.0437
 6467TIP3    H243597   3.661   0.178   2.123  0.7839 -0.2036 -2.1489
 6468TIP3   OH243598   7.000   7.077   1.585  0.2776 -0.2964  0.2729
 6468TIP3    H143599   7.076   7.084   1.644 -0.0472 -1.2007  0.8137
 6468TIP3    H243600   6.939   7.019   1.631 -0.0315 -0.9386 -0.9255
 6469TIP3   OH243601   4.255   5.175   1.789  0.2142  0.1628  0.0364
 6469TIP3    H143602   4.270   5.146   1.879 -0.1760 -1.0933 -0.2819
 6469TIP3    H243603   4.230   5.095   1.742  0.7166  0.7410 -1.2591
 6470TIP3   OH243604   2.891   7.343   0.842 -0.2703 -0.1418 -0.3312
 6470TIP3    H143605   2.842   7.383   0.913  1.3639 -0.0799  0.8261
 6470TIP3    H243606   2.938   7.416   0.801  0.9447 -0.5129  0.3352
 6471TIP3   OH243607   0.459   5.569   0.914  0.4075  0.8134  0.3082
 6471TIP3    H143608   0.470   5.661   0.891 -1.2748  0.5801 -1.7377
 6471TIP3    H243609   0.377   5.566   0.964  0.0146  0.3402 -0.3502
 6472TIP3   OH243610   4.719   0.364   0.467  0.3788 -0.1884 -0.5823
 6472TIP3    H143611   4.656   0.394   0.532  1.2281  0.2826  0.0514
 6472TIP3    H243612   4.702   0.271   0.458  0.2019 -0.2503  0.2841
 6473TIP3   OH243613   7.324   6.195   3.213 -0.3764  0.4750 -0.5171
 6473TIP3    H143614   7.231   6.214   3.221 -1.0931 -2.1792 -1.5804
 6473TIP3    H243615   7.328   6.104   3.185  2.5954 -0.0167  1.0744
 6474TIP3   OH243616   7.537   5.869   0.755  0.1986 -0.3341  0.1569
 6474TIP3    H143617   7.593   5.940   0.725  1.8927 -0.6552  2.3102
 6474TIP3    H243618   7.486   5.907   0.827 -1.0355 -0.5456 -0.5853
 6475TIP3   OH243619   2.632   2.570   2.737 -0.3849 -0.5828 -0.2105
 6475TIP3    H143620   2.716   2.547   2.777 -1.0727  1.6301  2.7978
 6475TIP3    H243621   2.567   2.523   2.789 -1.2604  1.7812  0.9840
 6476TIP3   OH243622   6.884   4.291   1.370  0.2422  0.3715 -0.0542
 6476TIP3    H143623   6.966   4.243   1.358 -0.1200 -0.9457  2.0989
 6476TIP3    H243624   6.911   4.381   1.385  1.3692 -0.1221  1.0450
 6477TIP3   OH243625   5.207   2.765   2.195 -0.0502 -0.2814  0.0268
 6477TIP3    H143626   5.181   2.850   2.228  0.3965 -0.5158  1.0153
 6477TIP3    H243627   5.300   2.776   2.172 -0.0402 -0.4504 -0.0133
 6478TIP3   OH243628   2.459   5.865   2.978  0.0371  0.2630  0.0165
 6478TIP3    H143629   2.413   5.936   3.022 -1.9175 -2.0539  2.0593
 6478TIP3    H243630   2.536   5.848   3.032  1.6596  1.9645 -1.5759
 6479TIP3   OH243631   0.698   1.890   0.493  0.2054  0.5185  0.1399
 6479TIP3    H143632   0.659   1.806   0.470 -0.5687  0.9060  0.0090
 6479TIP3    H243633   0.644   1.955   0.448 -0.0690  1.1727  1.3775
 6480TIP3   OH243634   1.780   7.522   1.985 -0.3290 -0.4586  0.5064
 6480TIP3    H143635   1.755   7.443   1.935 -0.7513 -0.8339  1.2928
 6480TIP3    H243636   1.833   7.488   2.057  0.3759  0.0945  0.2541
 6481TIP3   OH243637   3.181   4.430   2.403  0.1232 -0.2240 -0.4255
 6481TIP3    H143638   3.145   4.505   2.356  0.3008  0.5224  0.5820
 6481TIP3    H243639   3.202   4.464   2.490 -0.4224 -1.6067  0.2857
 6482TIP3   OH243640   6.998   1.770   2.338 -0.0475 -0.0084 -0.0301
 6482TIP3    H143641   6.968   1.698   2.283  0.6021 -1.0795  0.9719
 6482TIP3    H243642   7.042   1.830   2.278 -0.5679 -0.4619 -0.8743
 6483TIP3   OH243643   0.589   5.651   2.215  0.1999  0.1086 -0.7417
 6483TIP3    H143644   0.508   5.616   2.178  0.9338 -2.8844  0.1632
 6483TIP3    H243645   0.584   5.630   2.309  1.1975  1.6043 -0.3181
 6484TIP3   OH243646   3.914   1.353   0.933 -0.0134  0.2903 -0.3875
 6484TIP3    H143647   3.820   1.360   0.920 -0.1468 -0.3541  0.1918
 6484TIP3    H243648   3.934   1.260   0.920  0.0883 -0.1432  2.2038
 6485TIP3   OH243649   5.292   3.594   2.414  0.4127 -0.1736  0.1695
 6485TIP3    H143650   5.309   3.620   2.505  2.4154 -2.0038  0.4065
 6485TIP3    H243651   5.211   3.542   2.419  1.4000 -1.6713  1.2364
 6486TIP3   OH243652   4.600   4.546   2.292 -0.0361  0.8161  0.1174
 6486TIP3    H143653   4.676   4.556   2.234  0.7498  0.4822  1.0654
 6486TIP3    H243654   4.579   4.635   2.319 -0.1598  0.9354 -0.3486
 6487TIP3   OH243655   5.890   6.430   1.647  0.3131 -0.5055  0.0023
 6487TIP3    H143656   5.947   6.430   1.724 -0.3582  0.0680  0.5100
 6487TIP3    H243657   5.931   6.367   1.587  0.9472 -0.8180  0.7433
 6488TIP3   OH243658   2.452   0.124   1.257  0.8200  0.5847 -0.0991
 6488TIP3    H143659   2.517   0.126   1.187 -0.2604  2.1830 -1.1576
 6488TIP3    H243660   2.379   0.074   1.220  0.7558  0.3018  0.4024
 6489TIP3   OH243661   5.244   3.323   0.672  0.0372  0.1497 -0.7173
 6489TIP3    H143662   5.288   3.405   0.692 -0.8900  0.7370 -1.0251
 6489TIP3    H243663   5.151   3.340   0.691 -0.5576  0.0164 -3.1943
 6490TIP3   OH243664   5.381   0.758   3.666  0.4751 -0.0912  0.2965
 6490TIP3    H143665   5.415   0.745   3.578  1.0176  0.5210  0.4017
 6490TIP3    H243666   5.316   0.690   3.678  1.4784 -1.1336 -0.0188
 6491TIP3   OH243667   2.129   4.808   1.874  0.1787 -0.2085  0.1655
 6491TIP3    H143668   2.213   4.795   1.920  0.6961 -2.0745 -1.1676
 6491TIP3    H243669   2.154   4.818   1.782 -1.0580 -1.3874 -0.3336
 6492TIP3   OH243670   1.413   3.948   1.101 -0.5482  0.3506 -0.0784
 6492TIP3    H143671   1.401   3.986   1.188  2.6765  3.5036 -0.7728
 6492TIP3    H243672   1.329   3.963   1.057 -1.6397  0.3445  1.8849
 6493TIP3   OH243673   0.166   1.230   0.542  0.1830 -0.5166 -0.7112
 6493TIP3    H143674   0.116   1.150   0.529  0.1761 -0.5689 -0.3680
 6493TIP3    H243675   0.178   1.236   0.637  2.1916 -1.3527 -0.8522
 6494TIP3   OH243676   3.674   6.863   2.467  0.2409  0.2976  0.1471
 6494TIP3    H143677   3.716   6.780   2.445 -0.6685 -0.3909  0.9114
 6494TIP3    H243678   3.675   6.913   2.386  1.8944  0.0417 -0.0263
 6495TIP3   OH243679   1.396   4.065   1.361 -0.2349  0.5885  0.0245
 6495TIP3    H143680   1.458   4.015   1.414 -1.1758 -0.0672  0.5319
 6495TIP3    H243681   1.310   4.038   1.393 -0.7832  2.0093 -0.1682
 6496TIP3   OH243682   4.312   4.316   2.485 -0.0129 -0.1138 -0.2669
 6496TIP3    H143683   4.324   4.229   2.523 -0.0911 -0.7877 -1.7067
 6496TIP3    H243684   4.381   4.323   2.419 -0.7160  0.4331 -0.9647
 6497TIP3   OH243685   4.457   0.536   2.121 -0.4005 -0.5974 -0.4036
 6497TIP3    H143686   4.386   0.501   2.174 -2.0458  1.7249 -0.9424
 6497TIP3    H243687   4.415   0.566   2.041  0.7556  2.6304  0.0293
 6498TIP3   OH243688   6.633   3.298   2.292  0.1909  0.2944 -0.2831
 6498TIP3    H143689   6.678   3.263   2.370 -1.3609 -0.5600  0.2614
 6498TIP3    H243690   6.559   3.239   2.278 -0.8289  1.7121 -1.0923
 6499TIP3   OH243691   4.446   5.005   1.184  0.0313 -0.6997 -0.2046
 6499TIP3    H143692   4.379   4.964   1.129  0.4562 -2.6888  0.6698
 6499TIP3    H243693   4.528   4.989   1.137  0.1525 -0.4387 -0.0806
 6500TIP3   OH243694   0.193   2.210   2.241 -0.2190  0.0374  0.5007
 6500TIP3    H143695   0.159   2.206   2.152 -1.1577  1.7661  0.7196
 6500TIP3    H243696   0.285   2.232   2.231  0.0785 -1.3626 -0.0472
 6501TIP3   OH243697   6.541   1.046   0.466 -0.2313  0.0595  0.5036
 6501TIP3    H143698   6.578   0.966   0.429  1.1154  1.5348 -1.5292
 6501TIP3    H243699   6.612   1.086   0.515 -0.8982  0.0636  1.5127
 6502TIP3   OH243700   6.464   6.114   2.532 -0.5164 -0.5884  0.1762
 6502TIP3    H143701   6.419   6.182   2.482 -0.5487 -0.0093  0.9694
 6502TIP3    H243702   6.394   6.059   2.566 -0.6075  0.0134  0.9845
 6503TIP3   OH243703   0.513   6.295   1.621  0.0753 -0.2710  0.3478
 6503TIP3    H143704   0.439   6.288   1.560 -0.1995  0.5104  0.5792
 6503TIP3    H243705   0.580   6.344   1.572 -0.5241  1.2539  0.9878
 6504TIP3   OH243706   3.574   0.421   1.061  0.2718  0.2445  0.0307
 6504TIP3    H143707   3.500   0.442   1.119  1.5438  0.4459  1.6338
 6504TIP3    H243708   3.566   0.327   1.046  0.1134  0.1275  0.8155
 6505TIP3   OH243709   0.187   5.118   1.384 -0.6228 -0.4155 -0.4946
 6505TIP3    H143710   0.225   5.172   1.315 -1.1902  0.2938 -0.2611
 6505TIP3    H243711   0.230   5.033   1.375  1.8336  0.6290  0.4084
 6506TIP3   OH243712   0.766   7.335   1.732  0.2430  0.3347  0.1204
 6506TIP3    H143713   0.857   7.311   1.749  0.4640  0.6462 -0.5820
 6506TIP3    H243714   0.734   7.268   1.672 -0.5658 -0.8278  1.7873
 6507TIP3   OH243715   1.177   3.162   3.028  0.0945 -0.2901  0.3294
 6507TIP3    H143716   1.152   3.092   3.089  0.3444 -1.4090 -0.8077
 6507TIP3    H243717   1.135   3.240   3.064 -0.3908 -1.0543  1.5152
 6508TIP3   OH243718   5.795   1.825   0.742  0.0401 -0.2633 -0.4312
 6508TIP3    H143719   5.834   1.787   0.663  0.8562 -2.0422  0.7778
 6508TIP3    H243720   5.833   1.913   0.747  1.0154 -0.6178 -1.2927
 6509TIP3   OH243721   6.065   2.921   2.559 -0.4229  0.0762 -0.7229
 6509TIP3    H143722   6.076   2.942   2.652 -0.9152 -0.2578 -0.5891
 6509TIP3    H243723   6.084   2.828   2.554 -1.4029 -0.1208 -0.7911
 6510TIP3   OH243724   6.139   0.087   0.359 -0.5223  0.1737 -0.3248
 6510TIP3    H143725   6.215   0.140   0.336 -0.7282 -0.7053 -3.4428
 6510TIP3    H243726   6.176   0.011   0.403  0.5087 -0.3404 -1.9688
 6511TIP3   OH243727   6.954   2.702   1.173 -0.3038  0.3081 -0.5163
 6511TIP3    H143728   6.881   2.764   1.177 -0.1318  0.7121 -2.4414
 6511TIP3    H243729   6.919   2.629   1.122 -0.0439 -0.5375  0.4904
 6512TIP3   OH243730   4.958   0.076   2.519 -0.4253 -0.0942 -0.3126
 6512TIP3    H143731   4.923   0.164   2.530  0.7941  0.4259 -0.5166
 6512TIP3    H243732   5.037   0.074   2.572 -0.7314 -1.2578  0.1323
 6513TIP3   OH243733   3.908   5.535   1.460  0.0238 -0.0424 -0.5012
 6513TIP3    H143734   3.936   5.489   1.539 -1.1984  0.9544  0.5406
 6513TIP3    H243735   3.944   5.482   1.388 -0.6265 -2.1764  0.6466
 6514TIP3   OH243736   7.314   7.170   1.993  1.0774  0.0686  0.0315
 6514TIP3    H143737   7.264   7.177   2.074  1.1212  0.2874  0.0393
 6514TIP3    H243738   7.391   7.118   2.018  1.6091  0.9959  0.3799
 6515TIP3   OH243739   6.001   3.632   1.141  0.0859 -0.2091  0.1063
 6515TIP3    H143740   6.067   3.677   1.087  1.3151  0.6889  2.2217
 6515TIP3    H243741   6.019   3.539   1.127  0.2887 -0.0129 -1.0922
 6516TIP3   OH243742   1.984   7.015   1.993  0.1216 -0.7407 -0.1324
 6516TIP3    H143743   2.056   7.074   1.967 -0.5248  0.3806  0.5597
 6516TIP3    H243744   1.981   7.022   2.088 -2.4884  1.2161 -0.2559
 6517TIP3   OH243745   2.271   2.231   3.282 -0.0986  0.4312  0.4438
 6517TIP3    H143746   2.284   2.314   3.328  1.5650 -1.1087  2.9673
 6517TIP3    H243747   2.200   2.188   3.329  1.0625 -0.8192  1.1121
 6518TIP3   OH243748   5.780   4.833   1.277  0.2413 -0.4509 -0.1871
 6518TIP3    H143749   5.704   4.789   1.316  0.9066 -0.3396  1.3081
 6518TIP3    H243750   5.855   4.781   1.305  1.0030  1.2876  1.2150
 6519TIP3   OH243751   6.841   5.625   0.666 -0.4178  0.0917 -0.1237
 6519TIP3    H143752   6.808   5.538   0.642 -0.4922  0.4072 -1.1818
 6519TIP3    H243753   6.926   5.632   0.622  0.1592  0.0986  0.9353
 6520TIP3   OH243754   1.043   7.477   0.697  0.0019 -0.1234  0.7095
 6520TIP3    H143755   1.082   7.564   0.703  0.2129 -0.3000  2.9570
 6520TIP3    H243756   1.109   7.424   0.652  1.1537  0.2457  1.8913
 6521TIP3   OH243757   2.067   3.674   1.576  0.2063  0.1492 -0.2309
 6521TIP3    H143758   2.096   3.607   1.514  2.0204  0.1514  0.5463
 6521TIP3    H243759   2.148   3.715   1.606 -0.5719  0.0331  2.2372
 6522TIP3   OH243760   0.617   0.593   2.583  0.7458  0.2195 -0.2759
 6522TIP3    H143761   0.539   0.575   2.635  0.2941  0.0486 -0.9970
 6522TIP3    H243762   0.687   0.548   2.629  0.1207 -1.0617 -0.5377
 6523TIP3   OH243763   3.673   3.041   1.041 -0.4288  0.0781  0.0694
 6523TIP3    H143764   3.593   3.041   0.988 -0.4371  0.1249  0.0818
 6523TIP3    H243765   3.664   3.118   1.097  0.2353  0.8266 -0.8366
 6524TIP3   OH243766   7.150   3.534   0.603  0.4210  0.0681 -0.4606
 6524TIP3    H143767   7.238   3.562   0.577  0.0924  0.4846 -1.1485
 6524TIP3    H243768   7.094   3.560   0.530 -0.0822 -1.3982 -0.6396
 6525TIP3   OH243769   4.166   5.407   0.653  0.1862 -0.1802 -0.3865
 6525TIP3    H143770   4.101   5.424   0.585 -0.6661  0.6631  0.6098
 6525TIP3    H243771   4.134   5.329   0.698  1.5826 -1.7314 -1.8943
 6526TIP3   OH243772   7.444   3.365   3.333  0.1124 -0.5527  0.1140
 6526TIP3    H143773   7.445   3.270   3.323  2.9765 -0.8582  2.1252
 6526TIP3    H243774   7.487   3.399   3.255 -1.2896 -0.8153 -0.8081
 6527TIP3   OH243775   4.042   7.198   2.466  0.3728  0.4339 -0.3100
 6527TIP3    H143776   3.977   7.257   2.504 -1.0087  1.2430 -3.6322
 6527TIP3    H243777   4.117   7.255   2.447  0.9260  0.1000  0.7953
 6528TIP3   OH243778   1.873   4.922   0.891 -0.4589 -0.0869  0.4398
 6528TIP3    H143779   1.812   4.875   0.948 -2.4087  3.5993  1.7684
 6528TIP3    H243780   1.952   4.931   0.944 -0.3221 -1.1566  0.4461
 6529TIP3   OH243781   4.585   5.134   0.958 -0.1951 -0.4935 -0.1513
 6529TIP3    H143782   4.545   5.130   0.872 -4.0413 -3.0934  1.4749
 6529TIP3    H243783   4.564   5.222   0.990 -0.5054 -0.2084 -1.1251
 6530TIP3   OH243784   2.694   2.317   1.110  0.0799 -0.0773 -0.1639
 6530TIP3    H143785   2.772   2.266   1.087 -0.7258 -1.5379  0.2011
 6530TIP3    H243786   2.717   2.358   1.194  0.1559 -1.2375  0.4091
 6531TIP3   OH243787   1.666   1.016   2.857 -0.7188 -0.2497  0.1490
 6531TIP3    H143788   1.689   0.928   2.885 -0.1865 -0.1069  0.1683
 6531TIP3    H243789   1.570   1.018   2.859 -0.7207 -0.7040  0.5206
 6532TIP3   OH243790   5.841   4.714   1.562  0.1094 -0.0966 -0.1074
 6532TIP3    H143791   5.856   4.740   1.653 -0.4755 -1.8885  0.5335
 6532TIP3    H243792   5.751   4.741   1.544  1.1701  3.1825 -1.2842
 6533TIP3   OH243793   2.324   2.580   1.610  1.3411  0.1340  0.0293
 6533TIP3    H143794   2.230   2.597   1.608  1.5770  1.4895 -0.7429
 6533TIP3    H243795   2.353   2.596   1.520  2.3345 -0.1328  0.2921
 6534TIP3   OH243796   2.197   0.589   0.939 -0.4367 -0.7313 -0.1769
 6534TIP3    H143797   2.228   0.678   0.955  1.0922 -0.6156 -3.1320
 6534TIP3    H243798   2.255   0.534   0.991  1.8097 -0.1977 -1.9559
 6535TIP3   OH243799   3.849   2.456   2.670 -0.3573 -0.5097 -0.1682
 6535TIP3    H143800   3.838   2.404   2.749 -1.8018  1.0446  0.7119
 6535TIP3    H243801   3.885   2.539   2.701  0.2920 -0.3423 -1.3201
 6536TIP3   OH243802   6.079   0.360   0.754  0.1841  0.4405  0.0743
 6536TIP3    H143803   6.018   0.345   0.682  1.6874 -3.1257 -0.6908
 6536TIP3    H243804   6.027   0.343   0.833 -0.3764 -0.3126 -0.4413
 6537TIP3   OH243805   3.375   7.454   1.690  0.5125  0.2041  0.1374
 6537TIP3    H143806   3.309   7.441   1.622 -1.3509 -0.6113  1.9833
 6537TIP3    H243807   3.386   7.549   1.694 -0.6097  0.3704 -0.1934
 6538TIP3   OH243808   3.264   6.549   0.513  0.1128 -0.7439  0.3649
 6538TIP3    H143809   3.264   6.583   0.424  0.7141 -0.4902  0.4558
 6538TIP3    H243810   3.258   6.627   0.569  0.1979 -0.8710  0.5527
 6539TIP3   OH243811   7.104   0.311   2.468  0.5700 -0.0794 -0.4332
 6539TIP3    H143812   7.151   0.383   2.426  0.6123 -1.0234 -2.0795
 6539TIP3    H243813   7.165   0.277   2.533  0.3007  1.7528  0.8596
 6540TIP3   OH243814   4.782   3.628   2.551 -0.3129  0.0188 -0.2282
 6540TIP3    H143815   4.857   3.568   2.550 -0.9854 -0.8945  0.9954
 6540TIP3    H243816   4.805   3.694   2.616 -0.9452 -0.8194  0.8842
 6541TIP3   OH243817   1.483   2.109   1.231 -0.8368  0.5733  0.4550
 6541TIP3    H143818   1.474   2.141   1.320  1.6319  0.6116  0.7450
 6541TIP3    H243819   1.484   2.189   1.177 -0.9926  0.6191  0.5179
 6542TIP3   OH243820   0.408   6.065   1.315  0.6125  0.4104 -0.4408
 6542TIP3    H143821   0.350   6.130   1.354  0.4103 -0.1478  0.2091
 6542TIP3    H243822   0.435   6.103   1.232  0.7294  1.4450  0.0648
 6543TIP3   OH243823   5.844   6.519   1.047  0.1763  0.0977 -0.0750
 6543TIP3    H143824   5.937   6.499   1.057  0.0534 -1.0112 -0.8618
 6543TIP3    H243825   5.826   6.502   0.954 -0.8215  0.2406  0.0799
 6544TIP3   OH243826   1.580   1.017   1.587 -0.2123 -0.0281 -0.5027
 6544TIP3    H143827   1.493   1.052   1.568  0.1463  0.8329 -0.5943
 6544TIP3    H243828   1.607   1.061   1.669  0.0993 -0.3495 -0.4280
 6545TIP3   OH243829   0.628   6.902   2.602 -0.2249  0.1549  0.4217
 6545TIP3    H143830   0.601   6.912   2.693  0.3866 -0.4437  0.6752
 6545TIP3    H243831   0.700   6.963   2.591  1.7117 -1.8410  1.2147
 6546TIP3   OH243832   3.929   0.956   2.111  0.1789  0.0868  0.2270
 6546TIP3    H143833   3.976   0.877   2.136  2.2292  1.6599  1.5851
 6546TIP3    H243834   3.983   0.995   2.042 -1.2254 -0.0153 -1.0005
 6547TIP3   OH243835   4.394   1.175   0.682 -0.0427  0.0984 -0.0405
 6547TIP3    H143836   4.333   1.248   0.674  0.2722  0.4090  0.3304
 6547TIP3    H243837   4.349   1.111   0.737 -0.9030 -0.6273 -1.5470
 6548TIP3   OH243838   4.612   2.731   0.802 -0.8841 -0.3731  0.2480
 6548TIP3    H143839   4.582   2.774   0.722  0.9054 -0.3378 -0.4409
 6548TIP3    H243840   4.549   2.660   0.817 -0.4034 -1.3716 -2.0755
 6549TIP3   OH243841   5.709   0.800   2.224  0.4959 -0.6625  0.6771
 6549TIP3    H143842   5.772   0.782   2.294 -0.9399  0.4272  2.3596
 6549TIP3    H243843   5.688   0.893   2.235 -0.8625 -0.8316 -0.2576
 6550TIP3   OH243844   4.139   0.647   0.354 -0.5775 -0.1643 -0.1004
 6550TIP3    H143845   4.122   0.555   0.371 -2.2581 -0.0979 -1.2113
 6550TIP3    H243846   4.117   0.659   0.262  0.0825  1.2474 -0.0983
 6551TIP3   OH243847   1.301   6.990   0.707  0.0091 -0.1162  0.0351
 6551TIP3    H143848   1.272   6.905   0.672 -2.7805  0.8236 -0.2340
 6551TIP3    H243849   1.388   7.003   0.670 -1.3376 -0.8005 -3.8299
 6552TIP3   OH243850   2.785   4.617   2.446 -0.0313 -0.0220 -0.1539
 6552TIP3    H143851   2.771   4.547   2.383 -0.1186 -1.4006  1.3502
 6552TIP3    H243852   2.698   4.648   2.468 -0.0682 -0.4358  0.2762
 6553TIP3   OH243853   4.422   1.118   1.979  0.5201  0.0799 -0.5846
 6553TIP3    H143854   4.400   1.077   2.063 -1.7951  0.0106 -1.1489
 6553TIP3    H243855   4.405   1.211   1.992 -2.3071 -0.1759 -1.5485
 6554TIP3   OH243856   5.004   1.297   3.409  0.0496  0.2410  0.0238
 6554TIP3    H143857   5.033   1.307   3.499  2.1273  0.5076 -0.6317
 6554TIP3    H243858   5.028   1.378   3.366 -0.8114  0.0707 -0.8274
 6555TIP3   OH243859   5.931   7.295   2.610  0.4491 -0.1277 -0.1759
 6555TIP3    H143860   5.943   7.233   2.682 -2.0464 -0.1785  0.2825
 6555TIP3    H243861   5.960   7.246   2.532  3.0215 -0.1182  0.6917
 6556TIP3   OH243862   1.305   7.562   0.892 -0.2432 -0.5844 -0.5757
 6556TIP3    H143863   1.218   7.550   0.931 -0.3460  0.1155 -0.5846
 6556TIP3    H243864   1.293   7.630   0.826  0.9488  2.0257  1.6829
 6557TIP3   OH243865   6.847   5.887   2.095  0.4482  0.3247 -0.0518
 6557TIP3    H143866   6.870   5.797   2.071 -1.2753 -0.2901  0.4788
 6557TIP3    H243867   6.752   5.890   2.090  0.3931  1.7612  1.1478
 6558TIP3   OH243868   3.462   3.850   0.848 -0.2973 -0.0204 -0.1460
 6558TIP3    H143869   3.504   3.879   0.766 -0.3515  1.3098  0.2724
 6558TIP3    H243870   3.369   3.851   0.828 -0.3338  0.6963  0.0449
 6559TIP3   OH243871   2.835   6.856   1.379  0.1108 -0.2645  0.3513
 6559TIP3    H143872   2.833   6.886   1.470 -3.1146  0.7179  0.1059
 6559TIP3    H243873   2.889   6.920   1.334 -2.3762  2.3859  0.8016
 6560TIP3   OH243874   6.168   3.796   2.673 -0.0572  0.5736  0.7485
 6560TIP3    H143875   6.076   3.803   2.697 -0.0917  0.4011  0.6696
 6560TIP3    H243876   6.216   3.831   2.748 -0.1559 -0.1260  1.1484
 6561TIP3   OH243877   2.469   1.702   2.198  0.1749 -0.1117 -0.2932
 6561TIP3    H143878   2.402   1.673   2.261  0.3803  0.0298 -0.0121
 6561TIP3    H243879   2.464   1.797   2.199  0.4169 -0.1003 -0.2399
 6562TIP3   OH243880   5.713   1.330   1.134  0.8693  0.6931 -0.0771
 6562TIP3    H143881   5.706   1.235   1.149  2.6676  0.8047  1.9992
 6562TIP3    H243882   5.658   1.346   1.058  0.7726 -2.0709 -0.7071
 6563TIP3   OH243883   6.397   1.956   0.489  0.1206  0.0106 -0.3224
 6563TIP3    H143884   6.476   1.987   0.534 -0.7753 -0.1930  1.4583
 6563TIP3    H243885   6.344   2.035   0.476  0.0977 -0.0257 -0.4529
 6564TIP3   OH243886   6.891   0.715   1.312  0.2609  0.5395 -0.0023
 6564TIP3    H143887   6.915   0.805   1.291  3.3300 -0.2834 -0.5490
 6564TIP3    H243888   6.942   0.694   1.391 -1.0053 -0.4984  0.5875
 6565TIP3   OH243889   0.198   1.006   1.693  0.6928 -0.3365  0.1771
 6565TIP3    H143890   0.267   1.059   1.733  1.2070 -1.2346  0.5030
 6565TIP3    H243891   0.242   0.960   1.621  0.5212 -1.1682  0.5937
 6566TIP3   OH243892   3.198   7.393   1.870 -0.6233  0.0151 -0.0013
 6566TIP3    H143893   3.235   7.383   1.958 -1.4690  2.0703  0.6585
 6566TIP3    H243894   3.274   7.388   1.812 -0.0911 -1.7109  0.7816
 6567TIP3   OH243895   2.658   4.898   0.709 -0.0714 -0.4939  0.1298
 6567TIP3    H143896   2.684   4.975   0.760  0.0863 -0.8391  0.5775
 6567TIP3    H243897   2.628   4.934   0.626 -1.0100  0.1480  0.7170
 6568TIP3   OH243898   5.103   2.477   0.719  0.0399 -0.1323 -0.7093
 6568TIP3    H143899   5.131   2.404   0.664  0.0690 -0.4088 -0.3324
 6568TIP3    H243900   5.156   2.468   0.799 -1.1477 -0.6965  0.0388
 6569TIP3   OH243901   5.579   3.755   1.613 -0.1803  0.6688 -0.5290
 6569TIP3    H143902   5.661   3.749   1.663 -0.0384  2.2983 -0.4996
 6569TIP3    H243903   5.607   3.773   1.523 -0.4854 -0.0248 -0.7669
 6570TIP3   OH243904   4.240   3.401   0.731 -0.4740 -0.3056  0.1280
 6570TIP3    H143905   4.266   3.437   0.647  0.3348 -0.7267  0.1951
 6570TIP3    H243906   4.297   3.444   0.795 -2.4112  1.5532  0.7471
 6571TIP3   OH243907   3.507   4.328   1.991  0.1193 -0.2097 -0.4150
 6571TIP3    H143908   3.533   4.356   2.078 -0.0041  0.9939 -0.7419
 6571TIP3    H243909   3.560   4.250   1.973  0.8911  0.1329  0.3211
 6572TIP3   OH243910   4.492   6.345   2.385  0.2358  0.2102 -0.0222
 6572TIP3    H143911   4.401   6.316   2.395  0.7231 -0.9819  1.4155
 6572TIP3    H243912   4.519   6.369   2.474  1.7046 -0.7037 -0.1870
 6573TIP3   OH243913   5.883   0.300   3.644 -0.5658 -0.2211  0.0946
 6573TIP3    H143914   5.875   0.228   3.706  0.6265 -0.6987 -0.2784
 6573TIP3    H243915   5.900   0.257   3.560 -0.2362  0.4763 -0.2022
 6574TIP3   OH243916   6.127   5.909   1.151  0.0505 -0.3382 -0.8000
 6574TIP3    H143917   6.189   5.920   1.078  0.1959 -0.3440 -0.6785
 6574TIP3    H243918   6.155   5.829   1.195 -0.4559 -0.7099 -1.1414
 6575TIP3   OH243919   7.354   5.684   2.620 -0.7640  0.3037  0.2973
 6575TIP3    H143920   7.425   5.724   2.671 -0.2800  0.8759 -0.7771
 6575TIP3    H243921   7.341   5.598   2.660  0.5436  0.1957  0.5338
 6576TIP3   OH243922   3.746   2.172   1.577 -0.2159  0.5220 -0.3913
 6576TIP3    H143923   3.727   2.137   1.490  1.3729  2.3591 -1.5610
 6576TIP3    H243924   3.760   2.265   1.563 -0.5418  0.9827  1.9680
 6577TIP3   OH243925   6.433   3.071   0.639  0.2935 -0.0925 -0.1748
 6577TIP3    H143926   6.377   3.079   0.716 -0.5048 -2.3844 -0.4410
 6577TIP3    H243927   6.393   3.129   0.574  1.0465  1.9669  1.0823
 6578TIP3   OH243928   7.285   0.156   2.226 -0.1617  0.3959 -0.7451
 6578TIP3    H143929   7.367   0.121   2.260  0.5003  1.1876 -1.4911
 6578TIP3    H243930   7.303   0.248   2.210 -1.0870  0.4972 -1.2591
 6579TIP3   OH243931   3.083   0.749   2.528 -0.5498 -0.6499 -0.4243
 6579TIP3    H143932   3.177   0.736   2.538 -0.3655  0.2322 -0.9362
 6579TIP3    H243933   3.059   0.691   2.456 -0.5678 -1.5035  0.2419
 6580TIP3   OH243934   7.186   0.590   1.710  0.1579 -0.6709 -0.1827
 6580TIP3    H143935   7.268   0.639   1.714 -0.2171 -0.0395  0.0972
 6580TIP3    H243936   7.172   0.560   1.800 -1.2343  1.5059  0.4054
 6581TIP3   OH243937   0.119   4.559   1.123 -0.2843  0.1210 -0.2505
 6581TIP3    H143938   0.113   4.476   1.171  0.7439  0.0405 -0.2266
 6581TIP3    H243939   0.030   4.578   1.095 -0.3754 -1.4850 -1.1006
 6582TIP3   OH243940   6.891   4.103   2.168 -0.0942  0.3054 -0.4498
 6582TIP3    H143941   6.871   4.027   2.113 -0.8815  1.2357 -1.4910
 6582TIP3    H243942   6.866   4.178   2.115 -1.3334  1.2467  1.3350
 6583TIP3   OH243943   5.692   7.218   2.186  0.7006 -0.4001  0.8722
 6583TIP3    H143944   5.778   7.241   2.221  1.2821 -1.6497  0.2934
 6583TIP3    H243945   5.677   7.128   2.215  0.7968 -1.1593 -1.2563
 6584TIP3   OH243946   3.278   4.354   2.961  0.3516  0.2274  0.4187
 6584TIP3    H143947   3.256   4.356   2.868  1.3016 -2.8328  0.0057
 6584TIP3    H243948   3.373   4.343   2.963  0.5255  1.6917  1.8207
 6585TIP3   OH243949   6.465   2.647   2.483 -0.2390  0.5706  0.5768
 6585TIP3    H143950   6.513   2.722   2.517  0.4168  0.4763 -0.1113
 6585TIP3    H243951   6.378   2.681   2.463  0.6301  1.6974 -1.6353
 6586TIP3   OH243952   7.141   4.161   1.323  0.1395  0.0944  0.1981
 6586TIP3    H143953   7.191   4.205   1.255 -0.5269 -0.5875 -0.7513
 6586TIP3    H243954   7.204   4.147   1.394  1.1682 -0.2768 -0.7579
 6587TIP3   OH243955   2.739   6.690   0.991 -0.0467  0.1009  0.7134
 6587TIP3    H143956   2.815   6.638   0.966 -0.7523 -0.5237 -0.2094
 6587TIP3    H243957   2.665   6.630   0.983 -0.7130  0.8580  1.0219
 6588TIP3   OH243958   5.374   6.781   2.498 -0.1478  0.2453  0.2375
 6588TIP3    H143959   5.370   6.865   2.544 -0.1512  1.4014 -1.7357
 6588TIP3    H243960   5.318   6.793   2.421 -0.1476 -1.5860 -0.1021
 6589TIP3   OH243961   5.841   2.355   1.145 -0.4102 -0.3288  0.0756
 6589TIP3    H143962   5.926   2.326   1.112  0.6035  0.8096  1.6075
 6589TIP3    H243963   5.849   2.450   1.151 -1.7534 -0.2242  0.3981
 6590TIP3   OH243964   6.704   3.011   2.210 -0.5830  0.1495  0.0512
 6590TIP3    H143965   6.718   2.950   2.281 -1.7595  0.3701  0.4984
 6590TIP3    H243966   6.609   3.025   2.208 -0.3888  1.6516 -0.2877
 6591TIP3   OH243967   5.810   4.839   2.389  0.0890  0.4807 -0.7761
 6591TIP3    H143968   5.779   4.823   2.300  0.3659 -1.4180 -0.5831
 6591TIP3    H243969   5.903   4.817   2.387  0.1376  0.5922 -0.0664
 6592TIP3   OH243970   6.216   3.121   0.764 -0.2446  0.3603  0.1658
 6592TIP3    H143971   6.237   3.203   0.809 -1.5429  0.5187  0.5072
 6592TIP3    H243972   6.133   3.137   0.720  0.3724 -0.2030 -1.2985
 6593TIP3   OH243973   1.190   0.808   0.458  0.4709  0.0290 -0.2379
 6593TIP3    H143974   1.111   0.838   0.413 -0.3183  1.5500  1.9749
 6593TIP3    H243975   1.252   0.880   0.450  0.5510  0.0510  0.5032
 6594TIP3   OH243976   6.304   4.136   1.127  0.4190  0.3993  0.1818
 6594TIP3    H143977   6.362   4.149   1.202  0.5878  0.8847 -0.0220
 6594TIP3    H243978   6.362   4.106   1.057  0.3924  0.6852  0.0355
 6595TIP3   OH243979   5.355   1.259   2.877  0.1556  0.3615 -0.5656
 6595TIP3    H143980   5.360   1.336   2.934 -0.2955  0.4064 -0.5846
 6595TIP3    H243981   5.365   1.184   2.936 -1.5265  0.3598 -0.2368
 6596TIP3   OH243982   6.226   6.535   2.898 -0.1476 -0.1168  0.3261
 6596TIP3    H143983   6.212   6.477   2.823 -1.7931 -0.2376  0.6766
 6596TIP3    H243984   6.317   6.520   2.924  0.1814 -0.7221 -1.0922
 6597TIP3   OH243985   2.116   0.852   1.364 -0.0453 -0.4278  0.2128
 6597TIP3    H143986   2.113   0.796   1.442  2.4939  0.5303  1.0946
 6597TIP3    H243987   2.136   0.939   1.397 -4.3507  1.3027 -1.0864
 6598TIP3   OH243988   5.500   2.865   1.032 -0.2336  0.4956 -0.7333
 6598TIP3    H143989   5.559   2.923   0.984 -1.5498  3.0195  0.4753
 6598TIP3    H243990   5.461   2.808   0.965  0.6713  1.4121 -2.0814
 6599TIP3   OH243991   7.413   7.129   0.878  0.1032 -0.1574 -0.0826
 6599TIP3    H143992   7.465   7.054   0.907  0.3985  0.4705  1.0745
 6599TIP3    H243993   7.326   7.093   0.860  0.4721 -0.9200 -0.3846
 6600TIP3   OH243994   6.662   3.738   2.991 -0.1962 -0.2739 -0.9566
 6600TIP3    H143995   6.692   3.814   2.941  0.4797  1.3028  1.5951
 6600TIP3    H243996   6.743   3.699   3.025 -0.6660  0.2639  0.9043
 6601TIP3   OH243997   0.838   3.468   2.301  0.6457  0.3059 -0.2297
 6601TIP3    H143998   0.789   3.389   2.325  0.9800  0.4886  1.1444
 6601TIP3    H243999   0.930   3.444   2.313  0.7095  1.2328  1.3696
 6602TIP3   OH244000   0.706   2.081   2.857 -0.5568  0.4903 -0.1385
 6602TIP3    H144001   0.708   2.113   2.948  0.4059  0.5578 -0.1833
 6602TIP3    H244002   0.650   2.144   2.812  0.3692  1.4565  0.0340
 6603TIP3   OH244003   5.149   4.676   1.354 -0.2069  0.8956  0.4866
 6603TIP3    H144004   5.141   4.646   1.445  2.3166  1.5853  1.0134
 6603TIP3    H244005   5.202   4.610   1.311  2.6681  2.8079  0.8333
 6604TIP3   OH244006   0.365   3.735   1.793  0.7103 -0.0472 -0.4448
 6604TIP3    H144007   0.322   3.667   1.740  0.9202 -0.3576 -0.2171
 6604TIP3    H244008   0.436   3.689   1.837 -0.4621 -0.1825  1.4076
 6605TIP3   OH244009   0.259   0.834   1.469 -0.4862  0.8319 -0.6087
 6605TIP3    H144010   0.296   0.779   1.400  0.7803  1.8446 -0.7889
 6605TIP3    H244011   0.170   0.803   1.480 -0.3148 -0.1701 -1.8355
 6606TIP3   OH244012   6.499   1.429   2.147  0.5084 -0.3329 -0.1767
 6606TIP3    H144013   6.456   1.377   2.214  3.1365 -1.5119  0.7211
 6606TIP3    H244014   6.552   1.492   2.196  0.4543  0.5452 -1.2063
 6607TIP3   OH244015   0.799   6.523   2.045  0.2462 -0.1061  0.0072
 6607TIP3    H144016   0.834   6.434   2.053  1.3968  0.3428  0.2114
 6607TIP3    H244017   0.875   6.579   2.061 -0.4567  0.9111 -0.1847
 6608TIP3   OH244018   7.050   5.699   2.429  0.0113  0.2614  0.4337
 6608TIP3    H144019   7.024   5.607   2.423 -0.9197  0.5560 -0.5299
 6608TIP3    H244020   6.968   5.747   2.415  0.6934  1.2270 -0.3877
 6609TIP3   OH244021   2.762   0.909   1.138  0.2608 -0.5300  0.1961
 6609TIP3    H144022   2.839   0.953   1.173 -0.3033 -1.5345  3.0215
 6609TIP3    H244023   2.792   0.869   1.056  2.3725  0.1615  0.5717
 6610TIP3   OH244024   3.085   4.996   9.249  0.2696  0.2968  0.3266
 6610TIP3    H144025   3.066   5.088   9.267 -1.3168  0.1524 -0.4309
 6610TIP3    H244026   3.026   4.973   9.177 -0.9680 -1.8796  1.9321
 6611TIP3   OH244027   0.709   5.899   0.603 -0.1341  0.5094  0.1766
 6611TIP3    H144028   0.629   5.860   0.567 -0.3796 -0.0062  1.2122
 6611TIP3    H244029   0.713   5.865   0.693 -0.6608  3.3157  1.3773
 6612TIP3   OH244030   5.372   4.436   1.680 -0.1160  0.1014  0.7375
 6612TIP3    H144031   5.351   4.385   1.602  1.0745  0.5768  0.0863
 6612TIP3    H244032   5.344   4.381   1.753  0.6911 -1.2809  0.0317
 6613TIP3   OH244033   3.821   3.224   0.811  0.3856 -0.3390  0.3958
 6613TIP3    H144034   3.915   3.208   0.814  0.4281 -1.3810 -2.5043
 6613TIP3    H244035   3.781   3.140   0.835  0.2610 -0.3918  0.0197
 6614TIP3   OH244036   0.688   7.274   2.913 -0.2919  0.3265 -0.7676
 6614TIP3    H144037   0.762   7.285   2.973  0.3534  2.5001 -1.8539
 6614TIP3    H244038   0.728   7.271   2.826 -1.2872 -1.7095 -1.2201
 6615TIP3   OH244039   0.960   0.569   0.408  0.4319 -0.1127  0.6564
 6615TIP3    H144040   0.968   0.649   0.355 -2.7356 -0.4974 -0.6193
 6615TIP3    H244041   0.926   0.599   0.492 -2.5401 -0.1651 -0.4359
 6616TIP3   OH244042   5.667   2.558   2.115 -0.0889 -0.2970  0.5763
 6616TIP3    H144043   5.616   2.603   2.047 -0.3392 -0.1163  0.8814
 6616TIP3    H244044   5.738   2.515   2.067  0.3770  0.7287  0.3019
 6617TIP3   OH244045   6.802   4.934   2.729 -0.8449 -0.4395 -0.5242
 6617TIP3    H144046   6.709   4.924   2.748 -0.5812 -1.2248  0.4331
 6617TIP3    H244047   6.846   4.931   2.814 -0.0073  0.9354 -0.8746
 6618TIP3   OH244048   1.840   5.010   1.631 -0.1497  0.5938 -0.6249
 6618TIP3    H144049   1.904   4.991   1.563 -1.7249 -0.4727 -1.8758
 6618TIP3    H244050   1.755   4.999   1.588 -1.1957  0.6039  1.3267
 6619TIP3   OH244051   5.996   5.666   1.707 -0.1119  1.3303  0.1348
 6619TIP3    H144052   5.962   5.582   1.676 -0.1045  0.5475  2.1235
 6619TIP3    H244053   6.088   5.666   1.681 -0.1776  0.8397 -0.1046
 6620TIP3   OH244054   2.386   4.850   0.344  0.3980  0.2141 -0.9769
 6620TIP3    H144055   2.298   4.846   0.306  0.1858 -1.3639 -0.4023
 6620TIP3    H244056   2.399   4.764   0.383  1.4627  1.0361  0.6062
 6621TIP3   OH244057   2.718   2.994   2.515 -0.2441 -0.6980  0.5388
 6621TIP3    H144058   2.730   3.033   2.428  0.8976 -0.9540  0.5731
 6621TIP3    H244059   2.763   2.910   2.510 -1.2662 -1.2881  0.9919
 6622TIP3   OH244060   0.184   4.546   3.033  0.4429 -0.4683  0.0272
 6622TIP3    H144061   0.275   4.518   3.046  0.2022 -0.6592  1.4423
 6622TIP3    H244062   0.132   4.471   3.064 -0.2273 -0.9238 -2.0416
 6623TIP3   OH244063   0.463   7.335   2.425 -0.5217  0.4370 -0.2925
 6623TIP3    H144064   0.510   7.388   2.489 -0.0637  0.2099 -0.4340
 6623TIP3    H244065   0.451   7.250   2.468  0.9092 -0.1367 -0.9515
 6624TIP3   OH244066   1.887   2.777   2.983  0.2167  0.3178 -0.2873
 6624TIP3    H144067   1.900   2.865   3.018 -0.6742  0.4378 -0.2392
 6624TIP3    H244068   1.966   2.730   3.008  0.2661  0.8267  0.5626
 6625TIP3   OH244069   0.937   6.280   1.442 -0.0787 -0.4564 -0.3591
 6625TIP3    H144070   1.031   6.296   1.445  0.3133 -2.6047  0.5523
 6625TIP3    H244071   0.925   6.222   1.366 -0.7895  0.3171 -0.8615
 6626TIP3   OH244072   1.679   6.707   1.984  0.0941  0.2666 -0.0295
 6626TIP3    H144073   1.600   6.758   1.967 -0.2594  0.2457  1.4654
 6626TIP3    H244074   1.648   6.617   1.994  0.8105 -0.5176 -3.5645
 6627TIP3   OH244075   5.740   3.424   2.178  0.0409 -0.1076  0.1293
 6627TIP3    H144076   5.647   3.409   2.193 -0.0953  0.2086 -0.3760
 6627TIP3    H244077   5.751   3.519   2.183 -0.0460  0.0504 -1.8208
 6628TIP3   OH244078   2.917   3.335   2.403  0.0600  0.2287 -0.2654
 6628TIP3    H144079   2.915   3.322   2.498  0.4390  2.0066  0.0290
 6628TIP3    H244080   2.975   3.266   2.371 -0.2373 -0.5312  0.7522
 6629TIP3   OH244081   7.355   3.171   2.355  0.1915 -0.3935  0.1923
 6629TIP3    H144082   7.343   3.133   2.268  0.9224 -1.0936  0.3863
 6629TIP3    H244083   7.273   3.217   2.372  0.3014  0.3530 -1.1531
 6630TIP3   OH244084   4.405   5.882   0.799  0.5159 -0.8877 -0.3330
 6630TIP3    H144085   4.379   5.951   0.738  0.3580 -1.2053 -0.6314
 6630TIP3    H244086   4.359   5.804   0.767 -1.1804 -0.6590  1.3309
 6631TIP3   OH244087   4.760   4.702   0.629  0.3999  0.2982  0.2114
 6631TIP3    H144088   4.839   4.658   0.599 -0.0702 -0.1564 -0.4146
 6631TIP3    H244089   4.689   4.656   0.583 -0.0741  2.1229 -0.9759
 6632TIP3   OH244090   4.826   1.850   1.338  0.0117  0.3530 -0.3130
 6632TIP3    H144091   4.823   1.899   1.256 -1.2761  1.5796  0.4196
 6632TIP3    H244092   4.738   1.814   1.348 -0.3030  1.4613  1.2271
 6633TIP3   OH244093   1.876   0.704   1.799  0.2562  0.6940  0.3690
 6633TIP3    H144094   1.893   0.797   1.789  0.2132  0.5667 -1.0775
 6633TIP3    H244095   1.915   0.664   1.722  1.6784 -0.6902  1.7310
 6634TIP3   OH244096   6.603   3.802   0.674 -0.2288 -0.5444  0.4378
 6634TIP3    H144097   6.508   3.794   0.678 -0.3004  0.2957  0.7177
 6634TIP3    H244098   6.634   3.715   0.652 -1.1877 -0.3852 -1.7308
 6635TIP3   OH244099   5.439   4.265   0.780  0.9832  0.3220  0.5797
 6635TIP3    H144100   5.362   4.260   0.723 -0.2142 -1.2198  2.2064
 6635TIP3    H244101   5.493   4.190   0.756  0.0187 -0.8858  1.9999
 6636TIP3   OH244102   7.018   4.751   1.606  0.0044 -0.1171 -0.0059
 6636TIP3    H144103   6.993   4.833   1.648  0.5609  0.3071 -0.4806
 6636TIP3    H244104   7.114   4.756   1.599 -0.0429 -0.3409 -0.9737
 6637TIP3   OH244105   1.816   2.634   2.105  0.0513  0.5776 -0.1124
 6637TIP3    H144106   1.736   2.685   2.092 -2.3509 -3.0902 -1.3175
 6637TIP3    H244107   1.857   2.631   2.018  1.5288  2.2853  0.4611
 6638TIP3   OH244108   3.059   5.260   2.504 -0.2159  0.2396  0.3557
 6638TIP3    H144109   3.024   5.242   2.417 -2.1112 -0.7583  1.2766
 6638TIP3    H244110   3.148   5.224   2.502  0.1486  1.1388 -1.4536
 6639TIP3   OH244111   2.191   6.712   1.927 -0.3740  0.5690  0.2810
 6639TIP3    H144112   2.272   6.688   1.882 -0.0576 -0.0090  1.1284
 6639TIP3    H244113   2.122   6.696   1.863  0.2596  2.1996 -0.8646
 6640TIP3   OH244114   1.629   5.076   1.244  0.8066 -0.3378 -0.4893
 6640TIP3    H144115   1.586   5.008   1.296  1.3167  0.3995  0.9621
 6640TIP3    H244116   1.561   5.139   1.225  0.2936 -1.2763 -1.9743
 6641TIP3   OH244117   1.267   3.833   1.701 -0.0252  0.2688  0.6867
 6641TIP3    H144118   1.291   3.761   1.760 -0.9158  0.9942  1.9635
 6641TIP3    H244119   1.257   3.791   1.616  2.4972 -0.6105  0.7336
 6642TIP3   OH244120   1.700   1.671   0.849  0.7196  0.3759 -0.9060
 6642TIP3    H144121   1.736   1.689   0.936  3.0649  0.2390 -1.7914
 6642TIP3    H244122   1.742   1.735   0.792 -0.1494 -0.0731 -2.0851
 6643TIP3   OH244123   3.932   1.358   2.187 -0.5702 -0.0683 -0.0682
 6643TIP3    H144124   3.901   1.414   2.258 -1.2737 -2.4405  1.6368
 6643TIP3    H244125   3.950   1.274   2.230  2.0973 -0.6890 -2.1559
 6644TIP3   OH244126   4.285   5.997   1.607 -0.3000  0.0061  0.0845
 6644TIP3    H144127   4.252   5.908   1.602  0.6924 -0.3911  0.3685
 6644TIP3    H244128   4.323   6.014   1.521 -0.4291  0.1227  0.0516
 6645TIP3   OH244129   4.873   1.094   1.281 -0.4555 -0.1843 -0.1520
 6645TIP3    H144130   4.923   1.115   1.360  0.1497 -0.3759 -0.4753
 6645TIP3    H244131   4.782   1.097   1.309 -0.2223 -1.2180  0.7952
 6646TIP3   OH244132   4.910   7.247   2.166 -0.1971  0.2823  0.0952
 6646TIP3    H144133   4.908   7.161   2.209 -1.3430  0.2754  0.0611
 6646TIP3    H244134   4.832   7.292   2.199 -0.4761  0.7070 -1.0997
 6647TIP3   OH244135   1.804   2.147   0.937 -0.2372  0.1278  0.2835
 6647TIP3    H144136   1.751   2.224   0.923  0.4323  0.3115 -1.4973
 6647TIP3    H244137   1.832   2.120   0.849  0.8941 -1.1644  0.9901
 6648TIP3   OH244138   4.827   1.895   1.048 -0.0918  0.3116 -0.2862
 6648TIP3    H144139   4.828   1.818   0.991 -0.4623  0.1910 -0.1346
 6648TIP3    H244140   4.910   1.939   1.031 -0.1065  0.1580 -0.7562
 6649TIP3   OH244141   0.849   1.605   1.118 -0.3674 -0.6055  0.3219
 6649TIP3    H144142   0.925   1.619   1.175  1.7881 -1.1296 -2.1905
 6649TIP3    H244143   0.844   1.684   1.065 -2.3261 -0.1237  1.1663
 6650TIP3   OH244144   0.204   2.165   2.791  0.1341 -0.0914 -0.3890
 6650TIP3    H144145   0.133   2.117   2.749 -0.1592  1.8498 -2.3404
 6650TIP3    H244146   0.226   2.234   2.728  2.4406  0.5561  1.0049
 6651TIP3   OH244147   6.752   6.226   1.638  0.9975 -0.9022  0.3371
 6651TIP3    H144148   6.751   6.178   1.556 -0.9145  0.3878 -0.4805
 6651TIP3    H244149   6.717   6.165   1.703  1.4172 -1.5537 -0.0412
 6652TIP3   OH244150   2.043   1.328   2.724  0.7003 -0.3319 -0.1785
 6652TIP3    H144151   2.080   1.263   2.783  0.1708 -1.0614 -0.6213
 6652TIP3    H244152   1.964   1.286   2.689 -0.2311  0.9386  0.2976
 6653TIP3   OH244153   3.212   6.201   0.894 -0.2125  0.2094  0.5425
 6653TIP3    H144154   3.292   6.244   0.862 -0.5410  0.5667  0.1871
 6653TIP3    H244155   3.238   6.163   0.978  1.1670 -2.2805 -0.9001
 6654TIP3   OH244156   4.736   3.928   2.180 -0.4268 -0.1589  0.6802
 6654TIP3    H144157   4.749   4.015   2.143 -0.1608  0.3283  1.8656
 6654TIP3    H244158   4.647   3.929   2.216  0.3049  0.4101  2.6231
 6655TIP3   OH244159   2.643   1.582   1.172 -0.3305 -0.4414 -0.2109
 6655TIP3    H144160   2.647   1.570   1.077  2.2210  2.0658 -0.5474
 6655TIP3    H244161   2.600   1.667   1.183  0.4191 -0.1853  0.8170
 6656TIP3   OH244162   3.855   7.283   1.719  0.6020  0.2621  0.5195
 6656TIP3    H144163   3.764   7.293   1.693  1.0138  1.4851 -0.5602
 6656TIP3    H244164   3.905   7.317   1.645  1.8905  1.3074  1.8151
 6657TIP3   OH244165   1.037   5.096   1.803  0.0071 -0.2290  0.4180
 6657TIP3    H144166   0.948   5.066   1.824 -0.4165 -0.2277 -1.2317
 6657TIP3    H244167   1.088   5.016   1.797 -0.0064 -0.2703  0.8424
 6658TIP3   OH244168   6.052   6.205   1.470  0.2797  0.2927 -0.4416
 6658TIP3    H144169   6.003   6.123   1.468  1.7965 -0.8726  2.9811
 6658TIP3    H244170   6.144   6.179   1.459  0.7837  1.4871  0.6471
 6659TIP3   OH244171   2.564   6.500   0.963 -0.2587 -0.3292  0.3275
 6659TIP3    H144172   2.503   6.493   0.890 -1.2567 -0.1820  1.1267
 6659TIP3    H244173   2.609   6.416   0.966 -0.9532 -0.7086  0.1869
 6660TIP3   OH244174   0.249   4.265   3.846 -0.4958  0.4615 -0.0704
 6660TIP3    H144175   0.198   4.235   3.921 -1.8849  1.9928 -0.3465
 6660TIP3    H244176   0.274   4.184   3.800 -0.3941 -0.4457  1.5028
 6661TIP3   OH244177   1.286   0.302   1.604  0.2780 -0.2123 -0.0120
 6661TIP3    H144178   1.354   0.336   1.546  1.2184 -2.4261 -0.3061
 6661TIP3    H244179   1.211   0.286   1.546  0.9226 -1.6133 -0.4803
 6662TIP3   OH244180   6.558   7.154   0.448 -0.3681 -0.0941  0.0474
 6662TIP3    H144181   6.543   7.065   0.478 -0.8280 -0.0067  0.0891
 6662TIP3    H244182   6.638   7.149   0.396 -1.0317 -0.7673 -0.9546
 6663TIP3   OH244183   6.255   1.766   1.555 -0.6637 -0.6125  0.4033
 6663TIP3    H144184   6.317   1.778   1.628  0.2673 -0.4961 -0.3797
 6663TIP3    H244185   6.170   1.760   1.597 -0.2459  0.3026  1.4594
 6664TIP3   OH244186   4.053   7.368   0.596 -0.4901  0.1166  0.5900
 6664TIP3    H144187   4.018   7.282   0.622 -0.0753 -0.1149  0.3899
 6664TIP3    H244188   4.080   7.408   0.679  1.8276 -1.0518  0.4918
 6665TIP3   OH244189   6.540   7.343   2.900 -0.2385 -0.5598  0.2184
 6665TIP3    H144190   6.597   7.389   2.838  1.1607 -1.4143  0.8303
 6665TIP3    H244191   6.511   7.411   2.961 -0.3437 -0.0081 -0.4334
 6666TIP3   OH244192   0.823   3.461   1.829 -0.6268  0.4300 -0.3418
 6666TIP3    H144193   0.787   3.454   1.917  2.6561  0.5477  1.1569
 6666TIP3    H244194   0.862   3.548   1.826  0.6682 -0.1516 -1.2989
 6667TIP3   OH244195   0.331   1.658   0.641 -0.3274 -0.2479  0.2208
 6667TIP3    H144196   0.329   1.589   0.574  2.1465 -1.1275  0.9456
 6667TIP3    H244197   0.328   1.610   0.724 -1.6097  0.7348  0.7689
 6668TIP3   OH244198   2.555   6.388   2.105 -0.3491 -0.3302 -0.2340
 6668TIP3    H144199   2.596   6.473   2.121 -0.8048  0.2539 -2.0242
 6668TIP3    H244200   2.628   6.326   2.109 -0.4855 -0.6423  5.4166
 6669TIP3   OH244201   0.302   6.759   1.054 -0.6816 -0.8386 -0.2381
 6669TIP3    H144202   0.229   6.697   1.060  0.9682 -2.9187 -0.6143
 6669TIP3    H244203   0.340   6.744   0.968  0.0650  0.3536 -0.1369
 6670TIP3   OH244204   2.495   3.936   2.030 -0.0332  0.3929 -0.3229
 6670TIP3    H144205   2.488   3.983   2.113  0.0307 -0.3136  0.0920
 6670TIP3    H244206   2.584   3.953   2.000  1.0095 -1.7756  1.2763
 6671TIP3   OH244207   6.385   5.488   2.265 -0.3905  0.6907 -0.1680
 6671TIP3    H144208   6.317   5.447   2.212  0.9168 -1.1860 -0.5005
 6671TIP3    H244209   6.427   5.415   2.310  0.9762  1.8597  0.5250
 6672TIP3   OH244210   3.381   1.442   0.966 -0.6297 -0.2847 -0.0286
 6672TIP3    H144211   3.348   1.404   0.884 -0.9631  1.4515 -0.7437
 6672TIP3    H244212   3.372   1.536   0.954 -1.0876  0.0106  2.1892
 6673TIP3   OH244213   1.884   5.972   1.728 -0.1993 -0.4514  0.0615
 6673TIP3    H144214   1.819   5.952   1.796  0.7322 -2.0525  0.5202
 6673TIP3    H244215   1.929   6.050   1.760 -0.0232 -0.9702  1.1318
 6674TIP3   OH244216   4.049   1.012   1.081  0.1746  0.3330  0.5115
 6674TIP3    H144217   4.054   0.938   1.141  1.1078  0.2128  0.2952
 6674TIP3    H244218   4.006   1.081   1.132 -2.8118 -0.9831  0.0295
 6675TIP3   OH244219   0.304   4.475   1.383 -0.1627  0.3525  0.3108
 6675TIP3    H144220   0.395   4.459   1.360  0.4007 -0.1813  2.6577
 6675TIP3    H244221   0.255   4.412   1.330  0.6387  1.6415 -2.0760
 6676TIP3   OH244222   1.536   3.848   0.771  0.4255  0.4164  0.6808
 6676TIP3    H144223   1.578   3.896   0.843 -0.8853  0.9363  1.1270
 6676TIP3    H244224   1.445   3.878   0.772  0.2146 -0.1272 -0.7388
 6677TIP3   OH244225   0.140   3.360   0.881 -0.3741  0.0997 -0.2541
 6677TIP3    H144226   0.156   3.288   0.820 -1.7215 -0.6850  0.2525
 6677TIP3    H244227   0.213   3.420   0.867  0.4662 -1.0599 -1.1410
 6678TIP3   OH244228   2.399   4.127   1.524 -0.4852  0.5167  0.0935
 6678TIP3    H144229   2.313   4.109   1.561 -0.1812  0.9052  1.0074
 6678TIP3    H244230   2.461   4.110   1.595  0.1633  0.6127 -0.4343
 6679TIP3   OH244231   0.758   1.867   2.239  0.4985  0.5952  0.0788
 6679TIP3    H144232   0.711   1.806   2.296 -1.6503  1.3588 -0.7616
 6679TIP3    H244233   0.729   1.844   2.150  0.4328  2.1668 -0.3275
 6680TIP3   OH244234   4.267   5.658   0.644 -0.3717  0.3655 -0.2091
 6680TIP3    H144235   4.339   5.657   0.581 -0.6713  1.1277 -0.5760
 6680TIP3    H244236   4.264   5.568   0.678  0.6706  0.2946 -0.2665
 6681TIP3   OH244237   0.780   0.280   2.247  0.1286 -0.6272  0.2945
 6681TIP3    H144238   0.689   0.305   2.233  0.4558  1.0942  0.9612
 6681TIP3    H244239   0.786   0.263   2.341  0.4703 -0.8010  0.2418
 6682TIP3   OH244240   5.285   3.038   3.506  0.0783 -0.3571 -1.3821
 6682TIP3    H144241   5.370   3.023   3.464  0.3595 -1.4996 -0.4548
 6682TIP3    H244242   5.230   2.965   3.476  0.6683 -1.9742  1.1499
 6683TIP3   OH244243   2.349   4.998   1.198  0.0176  0.5630 -0.0332
 6683TIP3    H144244   2.337   5.065   1.265  0.6421  0.2481  0.4006
 6683TIP3    H244245   2.405   5.039   1.132 -0.7839  0.9518 -0.4939
 6684TIP3   OH244246   5.364   0.677   1.673 -0.1884 -0.1416  0.0167
 6684TIP3    H144247   5.357   0.617   1.747  1.2520 -0.1442  0.1793
 6684TIP3    H244248   5.273   0.696   1.649 -0.6749 -1.2120  0.9042
 6685TIP3   OH244249   0.407   0.640   1.337  0.3855 -0.2698 -0.1978
 6685TIP3    H144250   0.352   0.562   1.347 -0.1614  0.3052  1.9900
 6685TIP3    H244251   0.450   0.629   1.252 -0.3724 -2.4857 -0.3661
 6686TIP3   OH244252   1.381   5.286   1.894 -0.4720  0.0814  0.1442
 6686TIP3    H144253   1.315   5.333   1.945 -1.2163 -1.0227  0.2240
 6686TIP3    H244254   1.371   5.194   1.920  1.1559 -0.1043  0.2215
 6687TIP3   OH244255   0.108   6.755   1.497  0.0764  0.4368  0.0296
 6687TIP3    H144256   0.158   6.818   1.549  0.3066 -0.5255  1.0043
 6687TIP3    H244257   0.104   6.794   1.410  3.1434  0.2445 -0.2973
 6688TIP3   OH244258   7.530   3.552   1.214 -0.1772  0.0128 -0.2740
 6688TIP3    H144259   7.495   3.580   1.299  1.0828 -1.3324  0.7488
 6688TIP3    H244260   7.453   3.526   1.163 -0.8227 -1.5597  1.4018
 6689TIP3   OH244261   5.036   0.955   2.106  0.2430  0.0835 -0.2558
 6689TIP3    H144262   5.101   1.013   2.066  0.8701  0.4705  1.2459
 6689TIP3    H244263   4.973   0.937   2.036  1.6610  0.1546 -1.5932
 6690TIP3   OH244264   1.762   5.723   0.492  0.2570  0.4098  0.0381
 6690TIP3    H144265   1.846   5.722   0.446 -0.8866  2.0941 -2.2951
 6690TIP3    H244266   1.714   5.649   0.454  0.4472 -0.2033  0.9615
 6691TIP3   OH244267   5.535   2.836   1.602 -0.2451 -0.2442 -0.6460
 6691TIP3    H144268   5.527   2.741   1.593  1.1666 -0.4658  0.2049
 6691TIP3    H244269   5.546   2.868   1.512 -2.6161 -0.6341 -1.1562
 6692TIP3   OH244270   4.015   4.897   1.828  0.1992  0.2923  0.0925
 6692TIP3    H144271   4.043   4.809   1.856 -0.7646  0.3176  1.2137
 6692TIP3    H244272   4.050   4.906   1.740  0.4684 -1.1539  0.0223
 6693TIP3   OH244273   7.285   0.623   2.895 -0.4362 -0.0177 -0.1974
 6693TIP3    H144274   7.269   0.542   2.942  0.2673  0.0477  0.1544
 6693TIP3    H244275   7.355   0.666   2.943 -2.1569  1.7753  0.8307
 6694TIP3   OH244276   7.390   4.266   1.667 -0.1173  0.1394  0.1458
 6694TIP3    H144277   7.476   4.254   1.708 -0.2603 -0.3001  0.3184
 6694TIP3    H244278   7.388   4.203   1.595 -0.3217  0.1019  0.1840
 6695TIP3   OH244279   4.296   5.274   2.647  0.3712 -0.3083 -0.2660
 6695TIP3    H144280   4.388   5.296   2.660 -0.1468  0.5750  2.5818
 6695TIP3    H244281   4.281   5.200   2.706 -0.9008  0.0739 -0.0812
 6696TIP3   OH244282   2.735   0.621   1.448 -0.3976 -0.4130 -0.6768
 6696TIP3    H144283   2.711   0.600   1.358  0.2545 -0.2418 -0.8926
 6696TIP3    H244284   2.668   0.577   1.501 -1.0264 -0.1677 -1.2514
 6697TIP3   OH244285   6.051   3.373   1.065 -0.5667 -0.0943 -0.3258
 6697TIP3    H144286   6.037   3.388   0.971 -2.0946 -0.3598 -0.1664
 6697TIP3    H244287   5.991   3.303   1.088  0.6278 -0.8420  0.6403
 6698TIP3   OH244288   5.579   2.619   0.440  0.0984  0.1175  0.2748
 6698TIP3    H144289   5.655   2.677   0.436  0.7718 -0.6684  1.3315
 6698TIP3    H244290   5.504   2.677   0.425  0.8723  0.9472 -0.4845
 6699TIP3   OH244291   0.952   2.345   1.891  0.0465  0.1796  0.6035
 6699TIP3    H144292   0.987   2.265   1.852 -1.6489 -0.2538 -0.1142
 6699TIP3    H244293   1.025   2.380   1.943  1.2089 -1.1601 -0.0477
 6700TIP3   OH244294   7.526   2.346   2.539 -0.3899 -0.4893 -0.9768
 6700TIP3    H144295   7.527   2.440   2.557  2.7638 -0.3454 -1.1785
 6700TIP3    H244296   7.438   2.328   2.506 -1.8902  1.8555  1.4163
 6701TIP3   OH244297   4.234   7.189   1.642  0.6337 -0.1545  0.0286
 6701TIP3    H144298   4.320   7.152   1.621  0.4829 -0.9492  0.7628
 6701TIP3    H244299   4.208   7.144   1.722  0.7482  2.0729  1.3897
 6702TIP3   OH244300   6.706   1.435   3.133  0.4348 -0.0630 -0.1443
 6702TIP3    H144301   6.696   1.460   3.224  0.8323 -0.2542 -0.0438
 6702TIP3    H244302   6.766   1.499   3.096 -0.3188  0.4657 -0.4726
 6703TIP3   OH244303   2.761   0.568   1.170 -0.5298 -0.2052  0.0892
 6703TIP3    H144304   2.733   0.656   1.148  1.3391  0.3950 -0.1099
 6703TIP3    H244305   2.768   0.523   1.086 -0.8617 -0.3415  0.1343
 6704TIP3   OH244306   1.915   0.970   2.145 -0.3299  0.4052 -0.4164
 6704TIP3    H144307   1.843   0.983   2.208 -0.1556  0.9886 -0.3339
 6704TIP3    H244308   1.893   1.027   2.071 -0.7197 -0.5518 -1.0506
 6705TIP3   OH244309   7.180   0.045   1.985 -0.1294 -0.1610  0.5693
 6705TIP3    H144310   7.218   0.046   1.898 -0.5077 -0.8947  0.3848
 6705TIP3    H244311   7.241   0.094   2.039 -0.5513  1.4399 -0.3604
 6706TIP3   OH244312   7.003   6.303   0.842 -0.3294  0.2040 -0.0584
 6706TIP3    H144313   7.048   6.356   0.776  1.4517  0.3895  1.2438
 6706TIP3    H244314   7.009   6.214   0.809  1.6729  0.1265  0.3750
 6707TIP3   OH244315   4.012   0.623   2.414 -0.1655  0.2588 -0.1483
 6707TIP3    H144316   3.918   0.609   2.407 -0.5081  2.1092  0.2809
 6707TIP3    H244317   4.024   0.668   2.498  0.9603  0.9574 -0.6545
 6708TIP3   OH244318   2.794   1.092   1.439  0.5727  0.0978  0.6113
 6708TIP3    H144319   2.781   1.024   1.505 -0.9809 -1.0143 -0.7464
 6708TIP3    H244320   2.709   1.100   1.396  1.1504  1.8273 -0.3032
 6709TIP3   OH244321   6.527   1.225   1.975  0.4289  0.2710  0.4266
 6709TIP3    H144322   6.467   1.287   2.018  1.7659  2.1797 -0.3131
 6709TIP3    H244323   6.554   1.166   2.045 -0.1290  1.1450  1.4195
 6710TIP3   OH244324   3.820   4.543   2.141  0.2108  0.4409  0.0669
 6710TIP3    H144325   3.747   4.582   2.092 -0.4779  0.3680  1.0124
 6710TIP3    H244326   3.791   4.543   2.232  1.2297  0.0219  0.4102
 6711TIP3   OH244327   4.466   4.832   0.678  0.0829 -0.2392  0.0266
 6711TIP3    H144328   4.549   4.845   0.724 -0.9896 -1.7196  2.5937
 6711TIP3    H244329   4.473   4.745   0.640 -0.1474 -0.1858 -0.1420
 6712TIP3   OH244330   2.313   3.621   2.825  0.3792  0.1443 -0.4743
 6712TIP3    H144331   2.286   3.697   2.774 -1.3890  0.6424  1.1136
 6712TIP3    H244332   2.234   3.568   2.833  1.7015 -2.2178 -2.0312
 6713TIP3   OH244333   2.846   2.891   1.332  0.0161  0.2245  0.0324
 6713TIP3    H144334   2.781   2.866   1.267  0.6003  0.2560 -0.5776
 6713TIP3    H244335   2.889   2.809   1.356  1.6802  0.5122 -1.6954
 6714TIP3   OH244336   5.328   4.110   2.154  0.6589 -0.2383  0.0725
 6714TIP3    H144337   5.296   4.085   2.067 -0.6198  0.4359  0.3259
 6714TIP3    H244338   5.310   4.033   2.208  0.7240 -0.3578 -0.0718
 6715TIP3   OH244339   3.075   2.543   0.860  0.1113 -0.3035  0.3918
 6715TIP3    H144340   3.017   2.579   0.927  0.9593  1.8622  0.0303
 6715TIP3    H244341   3.016   2.518   0.789 -0.4878  0.7187  0.5112
 6716TIP3   OH244342   3.682   2.318   1.885  0.5196 -0.1853 -0.0071
 6716TIP3    H144343   3.651   2.372   1.812  0.4141 -0.2350  0.0002
 6716TIP3    H244344   3.607   2.314   1.945  1.2128  1.4230  1.0271
 6717TIP3   OH244345   7.140   5.587   0.621  0.3009 -0.1109  0.6442
 6717TIP3    H144346   7.188   5.658   0.580  1.6218 -0.6168  1.2782
 6717TIP3    H244347   7.135   5.611   0.714 -2.9719  1.2028  0.2825
 6718TIP3   OH244348   1.160   2.503   2.272  0.1391 -0.2684 -0.1787
 6718TIP3    H144349   1.152   2.524   2.179 -0.8984 -1.7137 -0.4509
 6718TIP3    H244350   1.170   2.408   2.275 -0.3531 -0.3061  1.2114
 6719TIP3   OH244351   2.163   2.766   3.052 -0.2828  0.2675  0.2928
 6719TIP3    H144352   2.204   2.682   3.071 -0.5839  0.2724  1.0053
 6719TIP3    H244353   2.161   2.771   2.956  1.2236  0.2108  0.2455
 6720TIP3   OH244354   4.062   6.923   3.183  0.6156  0.4715 -0.0853
 6720TIP3    H144355   4.024   6.862   3.120 -0.1623  0.4476  0.3879
 6720TIP3    H244356   4.021   6.900   3.266  2.1122  0.0784  0.5693
 6721TIP3   OH244357   3.801   6.184   2.629 -0.1171  0.4411  0.0081
 6721TIP3    H144358   3.724   6.189   2.686  0.4457 -0.1815  0.8317
 6721TIP3    H244359   3.841   6.271   2.635  0.1412  0.2683  0.8484
 6722TIP3   OH244360   6.080   1.656   0.935  0.4733 -0.5294  0.0350
 6722TIP3    H144361   6.025   1.589   0.975 -0.1772  0.0172  0.0851
 6722TIP3    H244362   6.169   1.634   0.960 -0.0322  1.3338  4.2244
 6723TIP3   OH244363   1.474   0.778   0.790  0.5663 -0.1822 -0.0859
 6723TIP3    H144364   1.442   0.734   0.711 -0.7169  1.4804 -0.5601
 6723TIP3    H244365   1.569   0.783   0.778  0.4327 -0.3420 -1.3252
 6724TIP3   OH244366   1.323   6.945   2.607  0.4986 -0.0603 -0.0927
 6724TIP3    H144367   1.346   7.030   2.646 -0.5530  0.0526  0.2962
 6724TIP3    H244368   1.291   6.893   2.680  2.8283 -1.4664  0.0421
 6725TIP3   OH244369   2.178   4.670   2.152 -0.0887 -0.3404 -0.0567
 6725TIP3    H144370   2.254   4.639   2.201 -0.3418 -0.8998 -0.0060
 6725TIP3    H244371   2.186   4.628   2.066  0.4543  0.7869 -0.5726
 6726TIP3   OH244372   5.892   5.503   0.902  0.0397  0.4979 -0.0070
 6726TIP3    H144373   5.878   5.587   0.946 -0.6922  0.8940 -0.9514
 6726TIP3    H244374   5.987   5.496   0.890  0.2395  0.4291  1.5041
 6727TIP3   OH244375   6.391   1.338   2.796 -0.8556 -0.7433 -0.3778
 6727TIP3    H144376   6.347   1.422   2.807  0.7211  0.0623  0.2091
 6727TIP3    H244377   6.396   1.302   2.884  0.2394 -0.4764 -0.3089
 6728TIP3   OH244378   0.695   3.759   1.192 -0.1678 -0.0439  0.1731
 6728TIP3    H144379   0.615   3.748   1.244  0.2971  0.6261  1.0794
 6728TIP3    H244380   0.698   3.682   1.136 -0.1450 -1.3813  1.9036
 6729TIP3   OH244381   0.485   6.221   2.044 -0.3390 -0.1228  0.9621
 6729TIP3    H144382   0.451   6.214   1.955 -0.0568 -0.7688  0.8982
 6729TIP3    H244383   0.576   6.194   2.036  0.3493  2.0020  1.0483
 6730TIP3   OH244384   7.233   6.235   1.247  0.1742 -0.4755  0.6986
 6730TIP3    H144385   7.185   6.310   1.282  0.3565 -0.1320  0.2154
 6730TIP3    H244386   7.271   6.194   1.325 -2.9236 -2.2702  1.4551
 6731TIP3   OH244387   6.692   4.736   1.493  0.0308 -0.1842 -0.3905
 6731TIP3    H144388   6.649   4.651   1.499 -0.5449  0.0501 -1.0252
 6731TIP3    H244389   6.687   4.772   1.581 -2.4904  0.4936 -0.7298
 6732TIP3   OH244390   2.091   5.772   2.368 -0.1750  0.4375  0.2804
 6732TIP3    H144391   2.075   5.686   2.329  2.7475  0.1494 -0.5248
 6732TIP3    H244392   2.135   5.822   2.299  2.8209  0.8033  2.2738
 6733TIP3   OH244393   5.138   7.454   1.755 -0.2245  0.3165  0.1818
 6733TIP3    H144394   5.154   7.545   1.728 -0.9626  0.0405 -1.2926
 6733TIP3    H244395   5.182   7.446   1.840  1.3824  1.5521 -0.4747
 6734TIP3   OH244396   3.495   0.331   2.458 -0.0109 -0.3131  0.2633
 6734TIP3    H144397   3.431   0.398   2.482 -0.9243 -0.7239 -0.9724
 6734TIP3    H244398   3.541   0.367   2.383  1.8784  0.3614  1.6541
 6735TIP3   OH244399   1.995   5.802   0.360 -0.3971 -0.0441  0.2353
 6735TIP3    H144400   2.022   5.881   0.407 -2.2916  1.9095 -1.7317
 6735TIP3    H244401   2.052   5.800   0.283 -2.4907  1.3842 -1.4440
 6736TIP3   OH244402   4.988   2.189   1.153  0.0879 -0.2201 -0.7252
 6736TIP3    H144403   5.033   2.108   1.128  1.0988 -0.3149  1.1762
 6736TIP3    H244404   4.998   2.193   1.248 -0.8132  1.6366 -0.6685
 6737TIP3   OH244405   4.367   5.280   3.043 -0.1253 -0.3410 -0.3242
 6737TIP3    H144406   4.379   5.354   2.984  0.3003  0.7121  1.0313
 6737TIP3    H244407   4.429   5.296   3.114 -1.4381 -0.9392  1.0000
 6738TIP3   OH244408   2.888   3.967   0.835  0.3489 -0.1258  0.1723
 6738TIP3    H144409   2.941   4.022   0.776  0.4957 -1.7237 -1.2668
 6738TIP3    H244410   2.951   3.934   0.899  0.8627 -0.8489 -0.6674
 6739TIP3   OH244411   5.397   1.135   1.656  0.4202 -0.0650 -0.5656
 6739TIP3    H144412   5.400   1.076   1.581 -1.5337  0.8986 -1.4529
 6739TIP3    H244413   5.398   1.077   1.732 -1.1869 -1.2597 -1.4146
 6740TIP3   OH244414   4.450   5.364   1.729  0.2739  0.4594  0.0915
 6740TIP3    H144415   4.375   5.305   1.731  0.1925  0.5791  0.4886
 6740TIP3    H244416   4.506   5.335   1.801  1.1216 -0.2951 -0.8234
 6741TIP3   OH244417   6.595   0.291   0.758 -0.1567  0.1456 -0.4300
 6741TIP3    H144418   6.580   0.333   0.673  1.1346 -0.1114 -0.7979
 6741TIP3    H244419   6.639   0.209   0.737  0.6271  0.3070  0.5072
 6742TIP3   OH244420   2.375   1.988   0.912 -0.1399  0.4676  0.5287
 6742TIP3    H144421   2.407   1.904   0.880 -1.3118 -0.6189  2.0657
 6742TIP3    H244422   2.290   1.968   0.951  0.4928  1.9197  2.8946
 6743TIP3   OH244423   4.634   2.058   0.949 -0.7554 -0.8018  0.7461
 6743TIP3    H144424   4.651   2.138   1.000  0.5925 -0.9416  0.5540
 6743TIP3    H244425   4.698   1.995   0.982  1.8221 -0.2028 -2.6313
 6744TIP3   OH244426   6.558   2.792   1.505  0.2894  0.0414 -0.5446
 6744TIP3    H144427   6.650   2.799   1.479 -0.0385  0.6362 -1.6024
 6744TIP3    H244428   6.516   2.744   1.433 -0.1946 -0.3889  0.0170
 6745TIP3   OH244429   5.324   4.486   2.426  0.0127 -0.2623  0.1788
 6745TIP3    H144430   5.351   4.455   2.512 -0.4480 -0.3789  0.2819
 6745TIP3    H244431   5.345   4.415   2.366  1.9953  0.4868 -0.0996
 6746TIP3   OH244432   0.194   3.241   1.139  0.0852 -0.6448 -0.1006
 6746TIP3    H144433   0.285   3.241   1.110 -0.4966 -2.2748 -2.1386
 6746TIP3    H244434   0.143   3.236   1.058 -1.9622  2.4246  0.8255
 6747TIP3   OH244435   5.047   3.445   1.500 -0.0719 -0.1475  0.0816
 6747TIP3    H144436   4.998   3.377   1.454  0.0215 -2.8784  3.6052
 6747TIP3    H244437   4.979   3.494   1.547  0.1072  0.2146 -0.0363
 6748TIP3   OH244438   3.464   2.228   1.673 -0.2487 -0.3461 -0.3366
 6748TIP3    H144439   3.532   2.201   1.612 -1.2987 -2.4766 -0.6583
 6748TIP3    H244440   3.419   2.300   1.629  0.0236 -0.7925 -1.3655
 6749TIP3   OH244441   1.713   3.513   2.800 -0.3450  0.6056 -0.0230
 6749TIP3    H144442   1.722   3.607   2.821  0.1616  0.7132 -0.7058
 6749TIP3    H244443   1.620   3.495   2.815 -0.4155  1.1707  0.2945
 6750TIP3   OH244444   6.119   0.069   2.405 -0.7739 -0.0926  0.3601
 6750TIP3    H144445   6.199   0.024   2.379 -1.6420 -1.4575 -0.1045
 6750TIP3    H244446   6.093   0.118   2.327  0.2509  1.3739  0.9125
 6751TIP3   OH244447   0.717   5.742   1.676 -0.7593 -0.2399 -0.7065
 6751TIP3    H144448   0.675   5.818   1.634 -0.5440  0.8136  0.9100
 6751TIP3    H244449   0.646   5.679   1.686 -1.3767  0.4889 -0.3767
 6752TIP3   OH244450   3.872   1.094   0.887 -0.1106  0.4222  0.3751
 6752TIP3    H144451   3.926   1.084   0.808  1.8893  1.7123  1.4958
 6752TIP3    H244452   3.925   1.057   0.957 -1.4167  0.2210  1.2894
 6753TIP3   OH244453   1.226   1.592   3.048  0.3676 -0.0008 -0.1533
 6753TIP3    H144454   1.317   1.577   3.074  0.1214 -0.5785  0.4148
 6753TIP3    H244455   1.217   1.687   3.046  0.7055  0.0627  0.8270
 6754TIP3   OH244456   3.713   6.231   2.969 -0.4316  0.3181  0.3922
 6754TIP3    H144457   3.659   6.244   2.891 -2.2991  2.9992  2.0099
 6754TIP3    H244458   3.803   6.239   2.936 -1.0903 -0.1440 -1.6973
 6755TIP3   OH244459   3.033   7.079   0.547 -0.2684 -0.0962 -0.0510
 6755TIP3    H144460   3.061   7.152   0.602 -2.1787  1.5417 -1.1181
 6755TIP3    H244461   3.085   7.087   0.467 -0.1086 -0.2143  0.0418
 6756TIP3   OH244462   2.766   3.647   1.778 -0.0857 -0.7994  0.0539
 6756TIP3    H144463   2.686   3.606   1.747 -0.7600 -0.2224  0.9834
 6756TIP3    H244464   2.836   3.590   1.747 -0.9295 -1.9901  0.2809
 6757TIP3   OH244465   3.447   7.447   1.022  0.1727 -0.1929  0.0098
 6757TIP3    H144466   3.355   7.424   1.034  0.1088 -1.2581 -2.0912
 6757TIP3    H244467   3.494   7.399   1.090 -0.6628 -1.1857 -0.0957
 6758TIP3   OH244468   5.830   4.456   1.461  0.2769  0.0028 -0.1596
 6758TIP3    H144469   5.826   4.532   1.519  0.8084  0.3508 -0.5768
 6758TIP3    H244470   5.892   4.481   1.393 -0.4505 -0.3451 -0.9642
 6759TIP3   OH244471   6.711   5.369   0.552  0.2574 -0.6044 -0.2907
 6759TIP3    H144472   6.803   5.343   0.559  0.5067  0.3895  0.3283
 6759TIP3    H244473   6.663   5.292   0.583  0.9752 -0.4305  1.3725
 6760TIP3   OH244474   0.548   6.874   1.454  0.7009 -0.5348  0.3755
 6760TIP3    H144475   0.641   6.855   1.443  0.5807  0.0976 -2.3026
 6760TIP3    H244476   0.504   6.818   1.390 -0.5996  0.4344  0.3681
 6761TIP3   OH244477   3.595   5.129   1.646 -0.5205  0.3514  0.2586
 6761TIP3    H144478   3.501   5.139   1.633 -0.9413 -0.7099  2.1529
 6761TIP3    H244479   3.615   5.183   1.722  0.4703  0.7534 -0.2617
 6762TIP3   OH244480   6.154   6.177   0.531 -0.5201  0.2398  0.0679
 6762TIP3    H144481   6.180   6.088   0.505  0.1129  0.9676 -2.0621
 6762TIP3    H244482   6.072   6.193   0.484 -1.0322  0.5238  1.0436
 6763TIP3   OH244483   7.094   3.104   1.051  0.2695  0.8297  0.6451
 6763TIP3    H144484   7.021   3.069   1.001 -0.4462  1.6112  1.1048
 6763TIP3    H244485   7.145   3.027   1.078  0.5152  0.3784 -1.0065
 6764TIP3   OH244486   3.200   4.556   1.302  1.0829  0.2598  0.6473
 6764TIP3    H144487   3.189   4.516   1.216 -1.9490  0.9908  0.5759
 6764TIP3    H244488   3.277   4.612   1.294  2.4885 -1.7692 -0.7011
 6765TIP3   OH244489   3.107   2.220   2.910 -0.6264 -0.6585 -0.7036
 6765TIP3    H144490   3.027   2.182   2.945 -0.2754  0.9061  2.1610
 6765TIP3    H244491   3.164   2.145   2.892 -1.1871 -1.6609  1.4011
 6766TIP3   OH244492   7.203   1.132   2.116  0.1940  0.0878  0.1261
 6766TIP3    H144493   7.162   1.124   2.030 -1.1698  1.8489  0.5550
 6766TIP3    H244494   7.267   1.061   2.118 -0.6586 -0.8334 -1.8098
 6767TIP3   OH244495   0.243   3.802   3.225 -0.1349 -0.2942 -0.0602
 6767TIP3    H144496   0.151   3.778   3.213 -0.2139 -0.4068  0.7213
 6767TIP3    H244497   0.291   3.738   3.171 -0.4473 -1.0624  0.5457
 6768TIP3   OH244498   2.897   5.263   2.247  0.1994  0.4150  0.1253
 6768TIP3    H144499   2.866   5.173   2.258  0.5960  0.0008 -1.8527
 6768TIP3    H244500   2.819   5.316   2.254 -0.2005 -0.1720  0.2197
 6769TIP3   OH244501   2.406   0.863   0.449  0.9651 -0.5162 -0.4165
 6769TIP3    H144502   2.433   0.809   0.523  0.3364 -1.6212 -0.9750
 6769TIP3    H244503   2.371   0.801   0.385 -0.4716  0.6027 -0.7758
 6770TIP3   OH244504   6.485   4.728   1.995 -0.1108  0.0910  0.3634
 6770TIP3    H144505   6.507   4.647   2.041  1.1545 -0.7050 -1.5187
 6770TIP3    H244506   6.566   4.779   1.997  0.0924 -0.1400 -1.2976
 6771TIP3   OH244507   2.899   4.801   2.092  0.3639  0.0931 -0.0042
 6771TIP3    H144508   2.938   4.882   2.058 -0.8798  0.4445 -0.6274
 6771TIP3    H244509   2.870   4.754   2.014  0.1277 -0.4739  0.4205
 6772TIP3   OH244510   2.703   3.380   0.413  0.6277 -0.3420 -0.1227
 6772TIP3    H144511   2.737   3.469   0.422 -0.1708 -0.0469  0.0945
 6772TIP3    H244512   2.780   3.323   0.423  1.5915  0.3707 -2.8013
 6773TIP3   OH244513   2.553   2.579   0.998  0.4066 -0.1006  0.6578
 6773TIP3    H144514   2.580   2.505   1.052 -0.3812  0.3487  1.7274
 6773TIP3    H244515   2.495   2.541   0.932 -0.0920 -0.4351  1.2735
 6774TIP3   OH244516   6.503   5.839   2.655 -0.2904 -0.2610 -0.4718
 6774TIP3    H144517   6.413   5.806   2.661 -0.3632 -0.1282 -0.8755
 6774TIP3    H244518   6.500   5.924   2.698 -0.6124  0.2607 -1.5003
 6775TIP3   OH244519   6.691   2.257   2.262  0.1116  0.5078 -0.5967
 6775TIP3    H144520   6.623   2.203   2.303 -0.9637  0.8026 -1.9352
 6775TIP3    H244521   6.644   2.329   2.220  1.3002  1.0465 -1.0695
 6776TIP3   OH244522   2.154   1.743   2.874  0.3052  0.1942  0.0421
 6776TIP3    H144523   2.244   1.725   2.899 -0.1636  1.2211  2.7492
 6776TIP3    H244524   2.101   1.707   2.945 -1.2843  1.6347 -0.3422
 6777TIP3   OH244525   5.382   7.259   2.241 -0.5602 -0.3253  0.0268
 6777TIP3    H144526   5.434   7.178   2.235  1.7205  0.9819  0.7250
 6777TIP3    H244527   5.441   7.327   2.209 -1.3164  1.4507  2.1846
 6778TIP3   OH244528   2.331   3.906   1.241 -0.0338 -0.0400 -0.5476
 6778TIP3    H144529   2.375   3.913   1.156 -1.6702  2.6471 -1.3208
 6778TIP3    H244530   2.402   3.891   1.304  1.5443  0.4816 -2.1138
 6779TIP3   OH244531   4.739   0.818   1.886 -0.1486  0.0909 -0.0627
 6779TIP3    H144532   4.736   0.913   1.896 -1.8032  0.0335  0.2237
 6779TIP3    H244533   4.666   0.785   1.938  1.3333 -1.4799  1.1535
 6780TIP3   OH244534   6.591   5.247   2.349  0.3255  0.5700 -0.6390
 6780TIP3    H144535   6.651   5.304   2.300  0.9462  0.0698 -0.4775
 6780TIP3    H244536   6.644   5.214   2.422 -0.7873  1.8702  0.8062
 6781TIP3   OH244537   6.963   1.461   1.122 -0.3638  0.6212  0.5639
 6781TIP3    H144538   6.964   1.448   1.217  2.2665  0.4833  0.5845
 6781TIP3    H244539   6.872   1.486   1.102 -1.4865 -1.3480  2.7921
 6782TIP3   OH244540   7.454   6.687   1.310 -0.1036  0.3091 -0.6990
 6782TIP3    H144541   7.395   6.762   1.305 -0.1540  0.3315  0.0836
 6782TIP3    H244542   7.459   6.667   1.403 -1.0176 -1.3860 -0.9707
 6783TIP3   OH244543   6.377   5.343   2.963 -0.3954  0.0756  0.2437
 6783TIP3    H144544   6.412   5.387   3.039  1.2313 -2.5954  1.1887
 6783TIP3    H244545   6.295   5.303   2.994 -0.3531 -0.0004  0.2588
 6784TIP3   OH244546   0.166   4.704   3.265  0.0118 -0.5877 -0.3139
 6784TIP3    H144547   0.237   4.658   3.220 -1.0743 -1.4412 -1.2156
 6784TIP3    H244548   0.206   4.785   3.297  1.3744 -1.0386 -0.8099
 6785TIP3   OH244549   5.239   5.854   2.521 -0.0026  0.3487 -0.8949
 6785TIP3    H144550   5.254   5.849   2.615 -1.3975  0.8603 -0.6270
 6785TIP3    H244551   5.251   5.946   2.499 -0.6149  0.3984 -1.0385
 6786TIP3   OH244552   5.844   7.098   0.492  0.8276 -0.0918  0.1075
 6786TIP3    H144553   5.933   7.121   0.520  0.4929  1.7733 -0.2468
 6786TIP3    H244554   5.790   7.170   0.524 -0.0995  0.3645 -2.3078
 6787TIP3   OH244555   2.843   3.912   1.743 -0.1463 -0.1957  0.7016
 6787TIP3    H144556   2.836   3.817   1.749  1.0364 -0.2612  1.2615
 6787TIP3    H244557   2.891   3.928   1.661  1.0353 -0.1713  1.3745
 6788TIP3   OH244558   7.051   3.400   1.763 -0.1019  0.0953 -0.1028
 6788TIP3    H144559   7.127   3.435   1.810  0.5007  0.0185 -0.9898
 6788TIP3    H244560   7.060   3.305   1.772  1.0370 -0.0185 -1.8443
 6789TIP3   OH244561   5.415   0.698   1.330  0.2814 -0.0708 -0.5284
 6789TIP3    H144562   5.411   0.685   1.235 -2.1401 -1.7614 -0.2627
 6789TIP3    H244563   5.437   0.612   1.365 -0.0806  0.2458  0.5079
 6790TIP3   OH244564   6.830   0.856   2.190 -0.1848  0.4918  0.4785
 6790TIP3    H144565   6.793   0.833   2.104 -2.6332  0.3221  1.5067
 6790TIP3    H244566   6.854   0.771   2.229  0.4935  0.5390  0.1946
 6791TIP3   OH244567   0.675   3.455   3.556 -0.4693  0.1567  0.5294
 6791TIP3    H144568   0.679   3.364   3.526  0.6146 -0.0546  1.2748
 6791TIP3    H244569   0.672   3.449   3.651 -2.9330  0.8519  0.5653
 6792TIP3   OH244570   7.261   7.092   2.905  0.4285  0.0018  0.1275
 6792TIP3    H144571   7.193   7.160   2.898 -2.0364 -2.3969 -0.8648
 6792TIP3    H244572   7.337   7.138   2.941 -0.2355  3.8531 -2.7297
 6793TIP3   OH244573   5.228   5.530   2.904 -0.0832 -0.2872  0.1673
 6793TIP3    H144574   5.300   5.593   2.895 -1.0058  0.8435  0.4481
 6793TIP3    H244575   5.271   5.445   2.906  1.2988  0.3958  0.9865
 6794TIP3   OH244576   0.047   5.735   1.745  0.2000  0.1647 -0.1757
 6794TIP3    H144577   0.041   5.641   1.728  0.6913  0.2810 -1.0760
 6794TIP3    H244578   0.132   5.760   1.708 -0.2833  1.1060 -0.6866
 6795TIP3   OH244579   0.484   2.409   1.452  0.0188  0.1041  0.2361
 6795TIP3    H144580   0.409   2.351   1.443  0.1912 -0.0144 -0.4827
 6795TIP3    H244581   0.485   2.461   1.371  1.5341 -0.8909 -0.4272
 6796TIP3   OH244582   3.664   6.475   0.699 -0.0660  0.1154 -0.0322
 6796TIP3    H144583   3.757   6.486   0.676 -0.0752  0.3310  0.0336
 6796TIP3    H244584   3.630   6.564   0.705 -0.5153  0.0146 -1.0025
 6797TIP3   OH244585   3.960   4.381   2.955  0.0095  0.3038  0.3219
 6797TIP3    H144586   3.981   4.303   3.006  0.3691  0.2709  0.1234
 6797TIP3    H244587   3.938   4.348   2.868 -0.6927  0.3520  0.4709
 6798TIP3   OH244588   4.424   4.388   1.654 -0.0352  0.4051 -0.1877
 6798TIP3    H144589   4.493   4.383   1.719  0.1911 -0.8005 -0.4940
 6798TIP3    H244590   4.470   4.394   1.570 -0.3148  0.9024 -0.3097
 6799TIP3   OH244591   2.917   5.182   1.109  0.6919  0.3606 -0.0722
 6799TIP3    H144592   2.842   5.179   1.168 -0.2878  0.9274 -1.2519
 6799TIP3    H244593   2.922   5.273   1.081  0.4049 -0.1099 -1.7465
 6800TIP3   OH244594   1.666   4.259   1.441 -0.7659 -0.9925  0.2998
 6800TIP3    H144595   1.609   4.328   1.473 -1.2814 -1.3465  0.1624
 6800TIP3    H244596   1.636   4.180   1.486 -0.2783 -1.1561  0.3508
 6801TIP3   OH244597   1.455   1.408   1.957  0.2168  0.7077  0.2652
 6801TIP3    H144598   1.492   1.406   2.045 -0.2617  0.3129  0.4550
 6801TIP3    H244599   1.380   1.350   1.960  0.9686 -0.3776 -0.7601
 6802TIP3   OH244600   3.123   1.387   3.122  0.0357 -0.0330  0.7954
 6802TIP3    H144601   3.124   1.294   3.098 -0.3861  0.4984 -1.4223
 6802TIP3    H244602   3.069   1.390   3.201  1.7580 -1.9083  2.1606
 6803TIP3   OH244603   0.116   6.882   1.252  0.3254 -0.3247 -0.4024
 6803TIP3    H144604   0.181   6.951   1.237 -0.7924  1.0299  0.6846
 6803TIP3    H244605   0.146   6.809   1.198  1.1079  1.2932 -2.2704
 6804TIP3   OH244606   3.606   4.648   1.480  0.0212 -0.2404  0.0428
 6804TIP3    H144607   3.523   4.641   1.528  0.5748  2.3217  1.5983
 6804TIP3    H244608   3.614   4.742   1.460  1.9379 -0.6219 -1.2337
 6805TIP3   OH244609   2.160   1.800   3.279  0.7698  0.0243  0.4747
 6805TIP3    H144610   2.087   1.860   3.294 -0.2254 -1.0271 -0.0135
 6805TIP3    H244611   2.235   1.857   3.262  0.3912  1.1482  2.3265
 6806TIP3   OH244612   4.731   0.678   0.577  0.1505  0.4334 -0.8899
 6806TIP3    H144613   4.730   0.674   0.481  1.6515 -0.6440 -0.8938
 6806TIP3    H244614   4.818   0.646   0.601  0.1189  1.5287  0.8107
 6807TIP3   OH244615   3.479   3.199   3.115  0.1964 -0.3245  0.0668
 6807TIP3    H144616   3.434   3.267   3.165 -1.5584 -1.5516  0.2396
 6807TIP3    H244617   3.410   3.137   3.091  1.0455 -0.2044 -3.2456
 6808TIP3   OH244618   2.500   0.842   2.067  0.1390 -0.9363  0.2961
 6808TIP3    H144619   2.429   0.882   2.116  0.4111 -1.1047  0.8288
 6808TIP3    H244620   2.498   0.886   1.982 -0.9498 -1.3142  0.1098
 6809TIP3   OH244621   2.070   3.421   2.629  0.3245  0.3226  0.1316
 6809TIP3    H144622   2.059   3.460   2.715  2.2112 -1.8272  1.4813
 6809TIP3    H244623   2.105   3.333   2.647 -3.5453 -2.0985 -2.6084
 6810TIP3   OH244624   1.814   5.651   0.782 -0.3292 -0.3288 -0.0931
 6810TIP3    H144625   1.753   5.638   0.709 -0.5915 -0.4749  0.1497
 6810TIP3    H244626   1.878   5.581   0.773 -1.3653 -1.4479  0.8310
 6811TIP3   OH244627   0.774   6.959   1.708 -0.6183  0.0080  0.1182
 6811TIP3    H144628   0.696   7.007   1.681 -0.4351  0.9573  1.2375
 6811TIP3    H244629   0.799   6.909   1.630 -1.6421  0.6180 -0.6241
 6812TIP3   OH244630   2.103   4.634   2.602  0.9859  0.4488 -0.4262
 6812TIP3    H144631   2.155   4.600   2.675  1.9010  0.1887 -1.1817
 6812TIP3    H244632   2.118   4.573   2.531  0.1053  0.7068 -0.8507
 6813TIP3   OH244633   7.491   2.612   2.610 -0.2440  0.0005  0.2373
 6813TIP3    H144634   7.545   2.673   2.560 -0.6795  1.2916  1.2642
 6813TIP3    H244635   7.402   2.629   2.579 -0.3906  0.0313  0.6672
 6814TIP3   OH244636   4.440   1.746   2.233  0.2498 -0.5671 -1.0867
 6814TIP3    H144637   4.351   1.773   2.209  1.2213  2.0497 -2.0695
 6814TIP3    H244638   4.475   1.706   2.154 -0.0775 -1.8373 -0.6216
 6815TIP3   OH244639   5.450   1.527   2.311  0.3106  0.3064  0.2654
 6815TIP3    H144640   5.472   1.615   2.341  2.1830  0.5500 -1.6200
 6815TIP3    H244641   5.383   1.541   2.244 -0.5315  0.1206  1.0377
 6816TIP3   OH244642   5.418   3.854   0.831 -0.5791  0.5461 -0.5226
 6816TIP3    H144643   5.494   3.893   0.789  0.5911 -0.4818  0.5153
 6816TIP3    H244644   5.410   3.900   0.915 -0.5533  0.0657 -0.2509
 6817TIP3   OH244645   7.479   3.495   0.864 -0.1276  0.4115 -0.0517
 6817TIP3    H144646   7.414   3.457   0.922  0.4690  1.2089  1.1759
 6817TIP3    H244647   7.559   3.446   0.883  0.0363  0.5680 -0.3275
 6818TIP3   OH244648   4.146   2.515   1.441 -0.1875  0.1770  0.0322
 6818TIP3    H144649   4.102   2.593   1.406 -2.2291 -1.9841 -2.8023
 6818TIP3    H244650   4.235   2.544   1.461 -1.0109  3.3190 -0.2902
 6819TIP3   OH244651   4.741   1.769   0.555  0.7960  0.1562 -0.0672
 6819TIP3    H144652   4.702   1.856   0.548 -2.0553 -1.1269 -1.4080
 6819TIP3    H244653   4.831   1.786   0.584  0.7528  3.6155 -1.4991
 6820TIP3   OH244654   4.680   2.443   1.622  0.3037 -0.2669 -0.1414
 6820TIP3    H144655   4.653   2.365   1.671 -1.6611 -0.1065 -0.8880
 6820TIP3    H244656   4.689   2.511   1.689  0.3704 -0.7284  0.3259
 6821TIP3   OH244657   2.884   2.111   3.005 -0.2729 -0.0313 -0.1253
 6821TIP3    H144658   2.870   2.164   3.084  1.7047  0.6769 -0.1857
 6821TIP3    H244659   2.839   2.029   3.022 -1.3678  0.7782  0.9954
 6822TIP3   OH244660   1.821   7.242   1.079 -0.3440  0.4133  0.2082
 6822TIP3    H144661   1.782   7.158   1.103 -2.0999  1.0664 -0.1619
 6822TIP3    H244662   1.767   7.274   1.006  1.1255  1.2473 -0.5678
 6823TIP3   OH244663   0.583   3.154   0.555  0.5467 -0.1447 -0.0940
 6823TIP3    H144664   0.603   3.087   0.490  2.2978  0.0784  0.1487
 6823TIP3    H244665   0.669   3.183   0.586 -0.1654  1.8249  0.1939
 6824TIP3   OH244666   5.657   0.407   8.553  0.7277  0.5708  0.0754
 6824TIP3    H144667   5.652   0.467   8.628 -0.3899  1.2457 -0.5134
 6824TIP3    H244668   5.746   0.418   8.520  0.6093  1.7506  0.1083
 6825TIP3   OH244669   5.035   5.117   2.423 -0.3499  0.2706  0.2552
 6825TIP3    H144670   4.989   5.094   2.504 -1.6128 -1.2984 -0.8555
 6825TIP3    H244671   5.034   5.213   2.422 -2.2502  0.3009  1.0414
 6826TIP3   OH244672   0.988   2.160   2.976 -0.2226  0.2757  0.4402
 6826TIP3    H144673   1.075   2.136   3.007 -1.7117 -0.7927  4.4732
 6826TIP3    H244674   0.960   2.229   3.037 -2.9765 -0.9991  0.7480
 6827TIP3   OH244675   7.373   5.982   3.027 -0.1126 -0.1050 -0.2093
 6827TIP3    H144676   7.396   5.894   2.999 -0.7236  0.0539 -1.2863
 6827TIP3    H244677   7.438   6.039   2.985 -0.2121  0.0259 -0.1876
 6828TIP3   OH244678   2.818   6.473   0.616 -0.2362  0.2790  0.7755
 6828TIP3    H144679   2.867   6.545   0.654  0.1147  0.7869 -0.5760
 6828TIP3    H244680   2.885   6.415   0.579 -0.5581 -0.2654  1.0282
 6829TIP3   OH244681   7.471   4.104   0.962 -0.0777  0.3630  0.8078
 6829TIP3    H144682   7.488   4.139   0.874  0.0881  1.5016  1.2815
 6829TIP3    H244683   7.446   4.013   0.947 -0.8027  0.7538 -0.4796
 6830TIP3   OH244684   5.353   6.877   1.873  0.2319 -0.2199 -0.3533
 6830TIP3    H144685   5.405   6.842   1.800 -0.0852 -2.3038  0.3503
 6830TIP3    H244686   5.412   6.938   1.917  1.1483 -0.4925 -1.1592
 6831TIP3   OH244687   1.988   6.216   1.797  0.5486 -0.1664  0.0913
 6831TIP3    H144688   2.009   6.286   1.735 -1.8012  0.8292  0.3075
 6831TIP3    H244689   2.019   6.247   1.882  1.5147 -0.4165 -0.1599
 6832TIP3   OH244690   2.722   6.290   0.851 -0.1386  0.3422 -0.0964
 6832TIP3    H144691   2.658   6.221   0.839  0.9141 -1.0047  1.5600
 6832TIP3    H244692   2.722   6.338   0.768  0.1256 -2.5365 -1.8754
 6833TIP3   OH244693   5.462   0.609   3.429  0.3876  0.0165 -0.2351
 6833TIP3    H144694   5.499   0.549   3.493  0.7935  0.1132 -0.3742
 6833TIP3    H244695   5.372   0.579   3.416  0.7997 -0.9928 -0.8202
 6834TIP3   OH244696   3.463   0.978   1.499  0.0062  0.1302  0.0238
 6834TIP3    H144697   3.530   0.911   1.486  0.7135  1.0853 -1.5674
 6834TIP3    H244698   3.387   0.930   1.531  1.2525 -1.0612  1.3295
 6835TIP3   OH244699   1.276   1.664   1.963 -0.0425  0.4670 -0.6490
 6835TIP3    H144700   1.223   1.598   2.008  0.5944 -0.1948 -0.8639
 6835TIP3    H244701   1.363   1.657   2.002  2.1155 -3.6277 -5.0838
 6836TIP3   OH244702   1.534   2.467   2.636 -0.1118 -0.3052  0.2125
 6836TIP3    H144703   1.536   2.436   2.726 -0.1369 -1.7981 -0.2621
 6836TIP3    H244704   1.588   2.404   2.588  1.1231  1.3097 -0.5871
 6837TIP3   OH244705   6.654   0.214   0.318  0.4007 -0.7731  0.7278
 6837TIP3    H144706   6.669   0.247   0.229  1.6766 -2.6693  0.1791
 6837TIP3    H244707   6.560   0.227   0.332  0.3362  0.3865 -0.5303
 6838TIP3   OH244708   4.741   3.036   0.865 -0.5882  0.5089  0.4860
 6838TIP3    H144709   4.745   2.992   0.780 -2.9627 -0.9063  0.9920
 6838TIP3    H244710   4.829   3.029   0.901  0.0220 -0.4686 -1.1021
 6839TIP3   OH244711   7.349   5.133   1.136  0.0567  0.4591 -0.4118
 6839TIP3    H144712   7.290   5.060   1.118  0.7120  0.1231 -1.3094
 6839TIP3    H244713   7.313   5.206   1.086 -0.3612  0.6480  0.1496
 6840TIP3   OH244714   6.865   2.109   2.954  0.2450  0.0194  0.8275
 6840TIP3    H144715   6.923   2.079   3.024  1.0397 -0.5014 -0.0369
 6840TIP3    H244716   6.854   2.033   2.897  0.7725  0.8114 -0.3799
 6841TIP3   OH244717   2.686   6.105   1.495 -0.1382  0.3038  0.2017
 6841TIP3    H144718   2.595   6.082   1.512  0.3584 -1.5418  0.5412
 6841TIP3    H244719   2.683   6.197   1.467 -1.9546  0.6868  1.4764
 6842TIP3   OH244720   0.702   4.877   2.391  0.3299 -0.5108  0.1139
 6842TIP3    H144721   0.683   4.785   2.373  3.0016 -1.4966  1.7901
 6842TIP3    H244722   0.696   4.885   2.486  0.0306  1.0978 -0.0148
 6843TIP3   OH244723   2.217   3.128   2.359  0.2201  0.4873  0.6587
 6843TIP3    H144724   2.219   3.098   2.268  2.0708  1.2836  0.3942
 6843TIP3    H244725   2.136   3.178   2.366 -0.7206 -0.8679 -0.0939
 6844TIP3   OH244726   6.893   6.553   0.907  0.5065  0.0678 -0.2589
 6844TIP3    H144727   6.922   6.467   0.877  0.0774 -0.3410  0.4727
 6844TIP3    H244728   6.961   6.582   0.969  0.1061 -0.2410  0.3356
 6845TIP3   OH244729   6.568   5.512   0.349 -1.0991 -0.4627  0.2246
 6845TIP3    H144730   6.573   5.480   0.259 -2.2825  1.9035 -0.7636
 6845TIP3    H244731   6.626   5.453   0.398  0.4365 -1.1932 -2.2551
 6846TIP3   OH244732   3.429   1.612   1.603 -0.3358  0.0176 -0.2907
 6846TIP3    H144733   3.383   1.615   1.519 -1.3397  2.4952  0.2579
 6846TIP3    H244734   3.387   1.540   1.651 -0.7619 -0.4614 -1.3567
 6847TIP3   OH244735   5.051   2.263   2.315 -0.2138  0.5885  0.4808
 6847TIP3    H144736   5.033   2.312   2.395  0.8940  1.2333  0.3610
 6847TIP3    H244737   5.112   2.319   2.266 -1.6055  0.6655 -1.2777
 6848TIP3   OH244738   3.646   4.365   1.420 -0.4670  0.5688 -0.3319
 6848TIP3    H144739   3.604   4.431   1.365 -1.6332  0.7618  0.7417
 6848TIP3    H244740   3.586   4.354   1.494 -2.0848 -4.0194 -1.9022
 6849TIP3   OH244741   2.900   0.042   1.187  0.1771 -0.7689 -0.0580
 6849TIP3    H144742   2.858   0.128   1.188 -0.1310 -0.9204  0.3874
 6849TIP3    H244743   2.915   0.024   1.094  1.4599  0.3473 -0.0920
 6850TIP3   OH244744   3.196   1.809   1.566  0.5288  0.3337 -0.2990
 6850TIP3    H144745   3.216   1.753   1.491  0.2651  3.0907 -2.6278
 6850TIP3    H244746   3.276   1.860   1.580  0.2132  0.6049  0.5885
 6851TIP3   OH244747   2.343   2.849   0.847  0.4217  0.4058 -0.1871
 6851TIP3    H144748   2.388   2.797   0.914 -0.4823 -0.0708  0.0654
 6851TIP3    H244749   2.349   2.794   0.768 -1.8004 -0.8102  0.4207
 6852TIP3   OH244750   1.184   7.279   2.347 -0.2072  0.0004  0.4353
 6852TIP3    H144751   1.140   7.359   2.319  2.9967  1.4958 -0.7987
 6852TIP3    H244752   1.174   7.278   2.443 -0.1449  2.0030  0.4978
 6853TIP3   OH244753   2.379   6.441   0.764 -0.0700 -0.4518 -1.1846
 6853TIP3    H144754   2.317   6.514   0.763  1.6109  1.1033  0.3891
 6853TIP3    H244755   2.437   6.458   0.689  1.3774  0.9018  0.1616
 6854TIP3   OH244756   3.009   0.623   1.483 -0.3697 -0.0015  0.4620
 6854TIP3    H144757   3.000   0.643   1.577 -1.2963 -3.0514  1.1390
 6854TIP3    H244758   2.919   0.616   1.452 -0.0969  2.2564 -1.0639
 6855TIP3   OH244759   0.609   4.488   2.637 -0.1994 -0.2114 -0.7348
 6855TIP3    H144760   0.582   4.526   2.553 -0.3851  1.0010 -0.1471
 6855TIP3    H244761   0.553   4.531   2.701  1.5904  0.6876  0.2781
 6856TIP3   OH244762   5.400   2.303   2.173  0.0370  0.0937 -0.1199
 6856TIP3    H144763   5.354   2.386   2.158  0.0192  0.0970 -0.0470
 6856TIP3    H244764   5.463   2.297   2.101 -0.8023 -0.4178 -0.8349
 6857TIP3   OH244765   7.019   1.378   1.846 -0.0828 -0.3134 -0.5311
 6857TIP3    H144766   7.089   1.408   1.905 -1.3031  1.2696  0.1751
 6857TIP3    H244767   6.999   1.455   1.793 -0.1797 -1.2377 -1.8617
 6858TIP3   OH244768   5.039   5.707   2.790  0.2231 -0.5603 -0.4344
 6858TIP3    H144769   5.089   5.788   2.782  0.2889 -0.6482 -0.9285
 6858TIP3    H244770   5.076   5.663   2.867  1.2184 -0.8454 -1.0715
 6859TIP3   OH244771   5.943   7.090   2.389 -0.7523 -0.2345 -0.0029
 6859TIP3    H144772   6.024   7.124   2.350 -1.8581  0.7167 -1.5658
 6859TIP3    H244773   5.949   6.995   2.376 -0.3889 -0.0727 -1.1394
 6860TIP3   OH244774   4.008   6.870   0.663  1.0998 -0.0302 -0.1442
 6860TIP3    H144775   4.062   6.795   0.688 -1.2896 -1.8527 -0.0743
 6860TIP3    H244776   3.977   6.850   0.574  2.0771  1.9272 -0.9891
 6861TIP3   OH244777   2.746   1.448   2.218  0.2184 -0.2611 -0.5548
 6861TIP3    H144778   2.759   1.353   2.210 -1.2241 -0.4147 -1.3065
 6861TIP3    H244779   2.669   1.457   2.274  1.2250  0.5264  0.7616
 6862TIP3   OH244780   1.360   4.255   1.628  0.3600 -0.3155 -0.2966
 6862TIP3    H144781   1.395   4.216   1.708 -0.9688 -0.5466  0.1994
 6862TIP3    H244782   1.358   4.183   1.565  0.7721 -0.2951 -0.3367
 6863TIP3   OH244783   4.381   3.773   2.492 -0.3043 -0.0104 -0.0318
 6863TIP3    H144784   4.417   3.776   2.580  0.9510 -0.6719 -0.5034
 6863TIP3    H244785   4.441   3.717   2.443 -1.4993 -0.4411 -1.0741
 6864TIP3   OH244786   4.729   2.597   1.866  0.0556 -0.1267  0.2123
 6864TIP3    H144787   4.813   2.643   1.858  0.0764 -0.4042 -1.5505
 6864TIP3    H244788   4.748   2.522   1.923  1.0243 -0.2015 -0.1933
 6865TIP3   OH244789   5.949   4.966   0.417 -0.0398  0.0952  0.3886
 6865TIP3    H144790   6.001   5.039   0.450  1.4542  0.0356 -1.6304
 6865TIP3    H244791   5.904   5.001   0.340  0.6493 -1.0634 -0.5697
 6866TIP3   OH244792   7.374   2.881   2.203  0.4325 -0.2319  0.2043
 6866TIP3    H144793   7.442   2.894   2.269 -0.1480  3.6430  0.2396
 6866TIP3    H244794   7.415   2.906   2.120 -0.3901  0.3131 -0.0542
 6867TIP3   OH244795   4.454   1.534   1.240 -0.7784 -0.4141  0.3048
 6867TIP3    H144796   4.435   1.566   1.152  0.1072  0.2961  0.3640
 6867TIP3    H244797   4.378   1.560   1.292 -0.9443 -0.1338 -0.0751
 6868TIP3   OH244798   6.132   3.811   0.969 -0.1917 -0.0222 -0.3787
 6868TIP3    H144799   6.085   3.805   0.886 -1.3316 -0.8056  0.3075
 6868TIP3    H244800   6.125   3.904   0.993  1.1804  0.4788 -1.7051
 6869TIP3   OH244801   5.594   0.301   2.242 -0.2832  0.3353 -0.2127
 6869TIP3    H144802   5.539   0.264   2.312 -0.8242 -0.5987 -1.1108
 6869TIP3    H244803   5.589   0.396   2.256  0.4797  0.1402  1.6521
 6870TIP3   OH244804   0.002   0.755   2.259 -0.2838 -0.0031 -0.6410
 6870TIP3    H144805   0.032   0.709   2.337  1.1388  0.0600 -1.1085
 6870TIP3    H244806   0.051   0.837   2.259 -0.8915  0.3734 -1.1561
 6871TIP3   OH244807   1.794   6.419   1.890  0.1351  0.9051 -0.0031
 6871TIP3    H144808   1.831   6.331   1.903 -0.4613  0.7810  0.9298
 6871TIP3    H244809   1.770   6.448   1.977 -1.3414  1.2686 -0.5127
 6872TIP3   OH244810   6.378   6.624   0.925  0.2066 -0.6245 -0.1783
 6872TIP3    H144811   6.454   6.567   0.922  1.9146  1.5588 -0.6766
 6872TIP3    H244812   6.365   6.642   1.018  0.6591 -0.5461 -0.1302
 6873TIP3   OH244813   0.205   5.352   0.742 -0.1055  0.0760  0.4430
 6873TIP3    H144814   0.177   5.270   0.700  1.0882 -0.9074  1.4861
 6873TIP3    H244815   0.293   5.367   0.708  0.3674 -0.0341  1.5891
 6874TIP3   OH244816   7.562   7.050   2.068 -0.2704  0.3218  0.2272
 6874TIP3    H144817   7.586   6.972   2.118  2.1075  1.7967  1.5868
 6874TIP3    H244818   7.614   7.120   2.108 -0.9072  2.2482 -2.1304
 6875TIP3   OH244819   3.507   2.879   3.106 -0.1778  0.5826 -0.1474
 6875TIP3    H144820   3.517   2.880   3.201 -0.4085 -0.4652 -0.0993
 6875TIP3    H244821   3.422   2.921   3.091 -0.4964  0.0625  0.1667
 6876TIP3   OH244822   0.602   0.988   2.345  0.1686 -0.9853 -0.2891
 6876TIP3    H144823   0.569   1.053   2.283 -2.2330 -0.3697  1.4846
 6876TIP3    H244824   0.547   0.911   2.330 -0.4686 -0.8117  1.0540
 6877TIP3   OH244825   2.899   0.418   1.746 -0.0565  0.2337  0.0154
 6877TIP3    H144826   2.941   0.500   1.770 -0.8915  0.6354  0.1330
 6877TIP3    H244827   2.971   0.356   1.734  0.4896  0.3319  2.3362
 6878TIP3   OH244828   5.755   3.809   1.126  0.3429 -0.6304  0.6023
 6878TIP3    H144829   5.709   3.733   1.091 -1.4893  0.3235  0.8177
 6878TIP3    H244830   5.848   3.789   1.115 -0.1221 -2.4795 -0.1861
 6879TIP3   OH244831   4.951   6.858   1.978 -0.3223  0.1826 -0.5871
 6879TIP3    H144832   4.895   6.864   2.055 -0.8152  0.2270 -0.9425
 6879TIP3    H244833   5.010   6.785   1.997 -1.7638 -1.1457 -0.9892
 6880TIP3   OH244834   6.833   6.563   0.392  0.0317  0.2019  0.1989
 6880TIP3    H144835   6.825   6.574   0.297 -0.8753  1.3878  0.4002
 6880TIP3    H244836   6.826   6.651   0.428  1.4225 -0.1047  1.3263
 6881TIP3   OH244837   1.115   5.482   1.727  0.3856 -0.5803 -0.1660
 6881TIP3    H144838   1.134   5.569   1.692 -1.6263  0.0749  0.2409
 6881TIP3    H244839   1.088   5.430   1.651  1.4107 -0.8183 -0.3809
 6882TIP3   OH244840   5.336   6.738   3.505 -0.2811 -0.8047 -0.3100
 6882TIP3    H144841   5.242   6.724   3.501 -0.3571 -0.5439  0.4807
 6882TIP3    H244842   5.368   6.674   3.569  0.1197 -1.0812 -0.7800
 6883TIP3   OH244843   0.258   3.982   1.675 -0.4994 -0.0210 -0.0765
 6883TIP3    H144844   0.345   3.973   1.636 -0.0146  0.9016  0.7297
 6883TIP3    H244845   0.246   3.902   1.726 -0.1667 -0.2052 -0.2833
 6884TIP3   OH244846   1.409   5.506   0.492  0.1321 -0.1887 -0.2253
 6884TIP3    H144847   1.410   5.459   0.576 -0.2458 -0.3010 -0.2831
 6884TIP3    H244848   1.384   5.596   0.515 -1.9765 -0.6799 -0.4414
 6885TIP3   OH244849   2.434   1.774   2.879 -0.4856 -0.4216  0.1709
 6885TIP3    H144850   2.469   1.687   2.863  1.0382 -0.1963  1.9407
 6885TIP3    H244851   2.486   1.832   2.825 -0.0827 -0.4010  0.5761
 6886TIP3   OH244852   4.795   6.309   1.704  0.0231 -0.1463  0.1533
 6886TIP3    H144853   4.750   6.392   1.718 -3.2436 -1.7631  0.1885
 6886TIP3    H244854   4.857   6.327   1.633 -1.7574  1.9666 -1.0037
 6887TIP3   OH244855   0.913   2.092   2.191  0.0957 -0.5457  0.1508
 6887TIP3    H144856   0.992   2.042   2.169  0.0053 -1.1293  1.1140
 6887TIP3    H244857   0.851   2.027   2.224 -0.9064 -0.1351 -0.8560
 6888TIP3   OH244858   7.456   6.593   0.386 -0.4089 -0.0869 -0.5704
 6888TIP3    H144859   7.410   6.531   0.441 -1.1669  1.2976  0.4129
 6888TIP3    H244860   7.390   6.658   0.362  0.6365  1.0563 -0.4864
 6889TIP3   OH244861   3.385   3.210   2.355  0.2465 -0.0072  0.5531
 6889TIP3    H144862   3.418   3.266   2.285 -1.1338  1.9148  1.3593
 6889TIP3    H244863   3.351   3.132   2.310 -1.2228  1.4681 -1.0232
 6890TIP3   OH244864   5.767   0.841   0.533 -0.1527  0.2378 -0.2400
 6890TIP3    H144865   5.710   0.825   0.609  0.2722  1.2067  0.3027
 6890TIP3    H244866   5.764   0.936   0.521  0.8619  0.2334 -0.5825
 6891TIP3   OH244867   6.173   3.242   1.373 -0.2127 -0.0419 -0.1512
 6891TIP3    H144868   6.149   3.293   1.450  0.0232  0.3860 -0.3586
 6891TIP3    H244869   6.093   3.237   1.322 -0.6505 -1.2263  0.6183
 6892TIP3   OH244870   5.724   6.815   0.890  0.3561 -0.2200  0.1597
 6892TIP3    H144871   5.664   6.754   0.933  0.0111 -0.9106 -1.2532
 6892TIP3    H244872   5.790   6.834   0.956  0.7447 -2.5024  0.5018
 6893TIP3   OH244873   2.985   6.691   0.715 -0.3575  0.3353 -0.6669
 6893TIP3    H144874   3.047   6.750   0.757 -0.2066 -0.6515  0.5554
 6893TIP3    H244875   2.927   6.748   0.665 -0.7079  1.5994  1.1012
 6894TIP3   OH244876   0.485   6.232   0.924 -0.7271  0.2133  0.3123
 6894TIP3    H144877   0.518   6.175   0.855 -2.0705 -0.9967  0.6327
 6894TIP3    H244878   0.534   6.207   1.002 -2.1810 -1.4757  0.7512
 6895TIP3   OH244879   6.499   6.522   1.885  0.1326 -0.2219  0.5094
 6895TIP3    H144880   6.476   6.511   1.977 -0.2106 -0.2796  0.4179
 6895TIP3    H244881   6.436   6.587   1.852  0.9492  0.6292  0.5816
 6896TIP3   OH244882   3.726   6.799   1.514 -0.0358  0.7169 -0.1489
 6896TIP3    H144883   3.652   6.805   1.573 -0.4366 -0.4249 -0.5083
 6896TIP3    H244884   3.749   6.706   1.512 -0.1899  0.6656 -1.9400
 6897TIP3   OH244885   3.293   6.390   1.659 -0.3172 -0.3994 -0.9145
 6897TIP3    H144886   3.331   6.307   1.631 -0.1854 -0.5204 -0.3924
 6897TIP3    H244887   3.205   6.391   1.620 -0.2392 -0.6823 -1.0981
 6898TIP3   OH244888   3.819   5.799   2.855 -0.2402 -0.1720  0.1643
 6898TIP3    H144889   3.738   5.843   2.830 -0.1392  0.2513  0.5751
 6898TIP3    H244890   3.794   5.707   2.865 -0.5156 -0.1605 -0.3959
 6899TIP3   OH244891   0.099   1.804   1.483 -0.1035 -0.1422 -0.2162
 6899TIP3    H144892   0.087   1.884   1.431 -2.0166  1.7856  2.8663
 6899TIP3    H244893   0.018   1.755   1.471  0.8211 -1.4082 -1.6116
 6900TIP3   OH244894   5.329   7.474   1.986  0.2720 -0.1323 -0.3701
 6900TIP3    H144895   5.420   7.445   1.983  0.5843  0.7263  0.4740
 6900TIP3    H244896   5.333   7.567   2.008 -0.7848  0.1130 -1.1069
 6901TIP3   OH244897   3.054   2.382   1.835 -0.3147  0.0186  0.0918
 6901TIP3    H144898   3.039   2.344   1.749  0.2914 -1.8169  0.7443
 6901TIP3    H244899   3.148   2.401   1.838 -0.2912 -0.1313  0.4178
 6902TIP3   OH244900   1.037   3.979   0.431  0.7055  0.5435 -0.6250
 6902TIP3    H144901   0.962   4.035   0.409 -0.3791  1.2289  3.7542
 6902TIP3    H244902   1.112   4.039   0.432  0.4265  0.8972 -0.6184
 6903TIP3   OH244903   3.768   2.258   2.476 -0.3181  0.2832 -0.4346
 6903TIP3    H144904   3.780   2.346   2.512 -0.5568  0.4067 -0.6454
 6903TIP3    H244905   3.849   2.240   2.428 -0.1746  0.2932 -0.1959
 6904TIP3   OH244906   5.265   0.238   0.980 -0.6512 -0.3257 -0.1878
 6904TIP3    H144907   5.177   0.275   0.991 -1.2009 -1.0261 -1.8689
 6904TIP3    H244908   5.249   0.146   0.958  0.5839 -0.8596  1.0443
 6905TIP3   OH244909   1.414   3.071   0.588  0.1163 -0.2696 -0.5532
 6905TIP3    H144910   1.375   3.041   0.670  0.8053  0.3512  0.0141
 6905TIP3    H244911   1.345   3.122   0.546  0.4263  1.2717  0.6861
 6906TIP3   OH244912   6.004   5.283   1.471  0.3587  0.7159  0.5228
 6906TIP3    H144913   6.069   5.217   1.494 -0.7309 -0.2161  1.0280
 6906TIP3    H244914   5.981   5.324   1.554 -0.6358  0.1308  0.5527
 6907TIP3   OH244915   1.332   1.936   1.394 -0.0401  0.3782  0.0129
 6907TIP3    H144916   1.388   1.955   1.318 -0.7852  0.2365 -0.5896
 6907TIP3    H244917   1.243   1.952   1.362 -0.3482  0.5800  0.9483
 6908TIP3   OH244918   7.271   7.492   1.024 -0.1066 -0.0354  0.5443
 6908TIP3    H144919   7.232   7.457   1.104 -0.5915 -2.5367 -0.6917
 6908TIP3    H244920   7.204   7.479   0.957  0.6085  1.2061 -0.4505
 6909TIP3   OH244921   1.592   5.311   2.904  0.3054  0.1753 -0.2059
 6909TIP3    H144922   1.561   5.282   2.989 -0.4981 -1.4754 -1.0151
 6909TIP3    H244923   1.519   5.293   2.844  1.8260 -1.4321 -1.7264
 6910TIP3   OH244924   5.020   6.196   2.268  0.1918 -0.4293 -0.1889
 6910TIP3    H144925   4.935   6.238   2.253 -0.5748 -1.8656 -0.1168
 6910TIP3    H244926   5.053   6.177   2.180 -0.4582 -1.5144 -0.2248
 6911TIP3   OH244927   0.457   5.383   0.682  0.0085 -0.1702 -0.3983
 6911TIP3    H144928   0.526   5.407   0.620  2.6822 -2.9348  1.2423
 6911TIP3    H244929   0.473   5.438   0.759 -0.7773  0.4024 -0.6272
 6912TIP3   OH244930   6.289   3.289   0.516  0.7400 -0.3235 -0.4242
 6912TIP3    H144931   6.258   3.368   0.559 -1.2286 -1.0724 -0.3762
 6912TIP3    H244932   6.212   3.232   0.511  1.5265 -1.3311 -2.5085
 6913TIP3   OH244933   4.203   2.934   1.545  0.1148  0.2966 -0.8529
 6913TIP3    H144934   4.161   3.008   1.500 -3.0547  0.0427  1.3416
 6913TIP3    H244935   4.179   2.857   1.494 -2.4531  0.1397  0.4507
 6914TIP3   OH244936   3.669   4.792   0.693 -0.3943 -0.8110 -0.0876
 6914TIP3    H144937   3.593   4.760   0.741 -0.6463 -0.1393 -0.0344
 6914TIP3    H244938   3.713   4.712   0.662 -1.3318 -1.2013 -0.4663
 6915TIP3   OH244939   6.301   3.147   1.133 -0.7777 -0.0351 -0.2379
 6915TIP3    H144940   6.381   3.099   1.156  0.2145  0.6933 -1.9320
 6915TIP3    H244941   6.272   3.186   1.215  1.0507  0.2985  0.3030
 6916TIP3   OH244942   2.073   4.117   1.024  0.5673 -0.0217  0.0242
 6916TIP3    H144943   2.086   4.096   1.116 -0.0948 -0.4029  0.0377
 6916TIP3    H244944   2.158   4.151   0.994  1.5954 -2.3522  0.1029
 6917TIP3   OH244945   6.886   1.529   2.836 -0.6458 -0.0247 -0.0832
 6917TIP3    H144946   6.875   1.450   2.888  2.6126 -1.0786 -0.7752
 6917TIP3    H244947   6.797   1.562   2.824 -1.8833 -1.9994  2.5708
 6918TIP3   OH244948   1.741   4.972   2.008  0.0998  0.1940  0.8501
 6918TIP3    H144949   1.691   4.917   1.947  0.5321 -1.2335  1.7334
 6918TIP3    H244950   1.821   4.993   1.960 -1.2499  2.5361 -0.5939
 6919TIP3   OH244951   2.326   0.518   2.382  0.0668  0.2427  0.0655
 6919TIP3    H144952   2.282   0.434   2.378 -0.6203  0.6055 -0.2193
 6919TIP3    H244953   2.410   0.504   2.338  0.5967 -0.6627  1.3330
 6920TIP3   OH244954   0.556   4.643   0.413 -0.6523  0.4592 -0.1120
 6920TIP3    H144955   0.625   4.605   0.359 -1.2949  0.5027 -0.9812
 6920TIP3    H244956   0.512   4.567   0.452 -2.3484  0.1965 -2.3553
 6921TIP3   OH244957   4.681   5.599   1.880 -0.2937 -0.4120  0.0214
 6921TIP3    H144958   4.636   5.515   1.893  0.8431 -0.8093  1.7648
 6921TIP3    H244959   4.767   5.575   1.846  0.7856 -0.1749  2.3884
 6922TIP3   OH244960   3.630   4.547   2.352 -0.2590 -0.0117 -0.3029
 6922TIP3    H144961   3.624   4.451   2.346  3.1651 -0.3803 -0.0343
 6922TIP3    H244962   3.540   4.577   2.341 -1.3412 -3.1874 -1.5520
 6923TIP3   OH244963   1.557   0.252   1.797  0.4612 -0.4999 -0.2428
 6923TIP3    H144964   1.593   0.339   1.812 -0.9319 -0.1065  1.1219
 6923TIP3    H244965   1.558   0.241   1.702  0.0655  1.2637 -0.4802
 6924TIP3   OH244966   6.415   5.000   1.826  0.1143  0.1847 -0.6622
 6924TIP3    H144967   6.411   5.084   1.782  0.3451  0.1417 -0.7658
 6924TIP3    H244968   6.467   5.016   1.904  0.3671  0.0808 -0.8098
 6925TIP3   OH244969   4.393   6.209   1.908  0.6487  0.3790  0.4579
 6925TIP3    H144970   4.459   6.141   1.923 -0.2311 -0.4199  0.7817
 6925TIP3    H244971   4.319   6.184   1.963  0.0689  1.2646  0.1080
 6926TIP3   OH244972   6.636   1.181   1.160  0.4558 -0.2055 -0.1517
 6926TIP3    H144973   6.675   1.117   1.219  0.8033 -0.4656 -0.6495
 6926TIP3    H244974   6.587   1.240   1.217  1.7484  0.2556  0.5213
 6927TIP3   OH244975   4.719   5.377   1.131  0.2912 -0.2031  0.8993
 6927TIP3    H144976   4.656   5.403   1.064  1.2092  2.2462  0.8473
 6927TIP3    H244977   4.743   5.287   1.109 -1.0250 -0.1926 -0.7702
 6928TIP3   OH244978   3.354   1.071   0.368  0.0977  0.2676  0.0162
 6928TIP3    H144979   3.381   1.013   0.440  0.8289  0.9784  0.3325
 6928TIP3    H244980   3.435   1.089   0.321  0.1824  2.1824  0.7791
 6929TIP3   OH244981   0.145   1.344   2.240 -0.4889  0.0253 -0.1750
 6929TIP3    H144982   0.080   1.407   2.209 -1.8240 -0.4127  1.5931
 6929TIP3    H244983   0.094   1.273   2.279  0.9931 -1.7347 -1.2461
 6930TIP3   OH244984   7.033   0.517   0.949 -0.1280 -0.7246 -0.3428
 6930TIP3    H144985   7.115   0.484   0.986  0.3331 -0.7446 -1.3577
 6930TIP3    H244986   6.969   0.503   1.018  0.6316 -1.1098  0.3086
 6931TIP3   OH244987   4.255   4.739   2.353  0.0297  0.4782  0.3609
 6931TIP3    H144988   4.283   4.709   2.267  1.3382  1.1896  0.5294
 6931TIP3    H244989   4.203   4.817   2.336 -0.3233  0.2086  0.1794
 6932TIP3   OH244990   2.129   6.678   1.460  0.2002  0.2247 -0.8394
 6932TIP3    H144991   2.169   6.722   1.386 -0.2730  0.5160 -0.9299
 6932TIP3    H244992   2.154   6.587   1.450  0.6673  0.3664 -1.0013
 6933TIP3   OH244993   6.882   4.450   3.426  0.0960  0.9888 -0.1245
 6933TIP3    H144994   6.902   4.538   3.459 -0.5276  0.4971  1.6633
 6933TIP3    H244995   6.961   4.399   3.445  0.3315  1.0624 -0.8629
 6934TIP3   OH244996   4.059   4.755   0.624  0.3752  0.7417 -0.0566
 6934TIP3    H144997   4.136   4.720   0.580  0.7042  1.2898  0.0769
 6934TIP3    H244998   3.994   4.685   0.619  1.0505  0.0854  0.2805
 6935TIP3   OH244999   2.222   3.348   0.666  0.2061 -0.1552  0.1453
 6935TIP3    H145000   2.210   3.256   0.688  0.6368  0.0106  1.1550
 6935TIP3    H245001   2.300   3.350   0.610  2.0394 -0.1730  2.4985
 6936TIP3   OH245002   2.299   2.275   1.653 -0.0494  0.3858 -0.0018
 6936TIP3    H145003   2.278   2.363   1.682 -0.1944  0.2917  0.1807
 6936TIP3    H245004   2.283   2.276   1.559 -2.1995 -0.0458  0.3016
 6937TIP3   OH245005   6.896   3.229   0.776  0.2999  0.0580  0.1667
 6937TIP3    H145006   6.863   3.319   0.777 -1.8839 -0.6310 -1.6730
 6937TIP3    H245007   6.948   3.224   0.695 -0.0527 -0.4503 -0.0344
 6938TIP3   OH245008   7.088   3.267   0.575  0.0569 -0.0054  0.0834
 6938TIP3    H145009   7.128   3.347   0.611  1.1441 -0.6480  0.3302
 6938TIP3    H245010   7.066   3.290   0.485  1.4821  0.2194 -0.2355
 6939TIP3   OH245011   0.759   3.355   0.891  0.3187 -0.1861 -0.2794
 6939TIP3    H145012   0.735   3.305   0.969  4.2490 -2.0146  0.0086
 6939TIP3    H245013   0.724   3.304   0.818  0.2758 -0.7894  0.1579
 6940TIP3   OH245014   5.626   4.726   2.723 -0.2931 -0.5940  0.3226
 6940TIP3    H145015   5.677   4.803   2.698 -0.7924 -0.3810 -0.0293
 6940TIP3    H245016   5.601   4.743   2.814 -1.3807  0.1951 -0.1063
 6941TIP3   OH245017   1.137   1.227   0.723  0.4394  0.2646  0.2825
 6941TIP3    H145018   1.134   1.132   0.709  1.0917  0.2052  0.5344
 6941TIP3    H245019   1.195   1.260   0.655 -0.3143  0.5673 -0.2195
 6942TIP3   OH245020   5.940   5.353   2.356 -0.0711  0.3566 -0.3436
 6942TIP3    H145021   5.887   5.273   2.346 -0.7903  0.4677  2.0019
 6942TIP3    H245022   5.927   5.400   2.274 -1.4279 -0.9271 -0.9150
 6943TIP3   OH245023   0.015   6.963   1.799  0.4653  0.2338  0.4329
 6943TIP3    H145024  -0.026   6.877   1.805 -1.9861  1.0748 -1.8381
 6943TIP3    H245025   0.008   6.999   1.887 -0.0619 -1.2335  1.0219
 6944TIP3   OH245026   7.467   4.747   2.456  0.0825 -0.5029 -0.0572
 6944TIP3    H145027   7.554   4.730   2.493  0.0335 -2.1771 -0.6344
 6944TIP3    H245028   7.423   4.801   2.522  1.0134 -0.9329  0.9469
 6945TIP3   OH245029   0.031   3.550   1.699 -0.2103  0.4412  0.3896
 6945TIP3    H145030   0.044   3.486   1.769  0.3375  0.5321  0.3696
 6945TIP3    H245031  -0.057   3.585   1.715 -0.0444  0.5412  1.0888
 6946TIP3   OH245032   0.374   3.424   1.870 -0.2123 -0.0283  0.1456
 6946TIP3    H145033   0.377   3.478   1.949  0.0670  1.9665 -1.1319
 6946TIP3    H245034   0.446   3.362   1.880 -0.8803 -0.5557  1.9263
 6947TIP3   OH245035   1.952   6.557   2.330 -0.3707 -0.3033  0.5684
 6947TIP3    H145036   1.857   6.555   2.344 -0.6220 -0.3199 -0.9271
 6947TIP3    H245037   1.962   6.592   2.241  1.0431  0.0096  0.8260
 6948TIP3   OH245038   4.912   0.357   2.528  0.3799 -0.1451  0.1571
 6948TIP3    H145039   4.870   0.440   2.505 -0.4766 -0.6804 -0.2179
 6948TIP3    H245040   5.006   0.375   2.520  0.2316  0.9640  0.6852
 6949TIP3   OH245041   2.849   2.674   0.981  0.0325  0.3430  0.3304
 6949TIP3    H145042   2.877   2.765   0.969  0.7341  0.4629  2.4166
 6949TIP3    H245043   2.758   2.673   0.952  0.8051  0.9819 -2.4598
 6950TIP3   OH245044   0.919   5.762   0.782  0.1343  0.2787 -0.3097
 6950TIP3    H145045   0.985   5.710   0.826 -0.4914 -0.3906 -0.1413
 6950TIP3    H245046   0.928   5.741   0.689 -0.3810 -0.4608 -0.2039
 6951TIP3   OH245047   6.611   1.366   1.387 -0.4407 -0.3135  0.5878
 6951TIP3    H145048   6.668   1.431   1.346  0.0319 -1.3178 -0.3964
 6951TIP3    H245049   6.587   1.405   1.471  0.6347  0.6956  0.4509
 6952TIP3   OH245050   4.866   2.675   0.857 -0.2196  0.1099  0.5118
 6952TIP3    H145051   4.865   2.589   0.899 -0.1999 -0.1304  0.0328
 6952TIP3    H245052   4.777   2.687   0.825 -0.0635 -0.0231  0.0124
 6953TIP3   OH245053   3.249   3.346   1.431  0.0935 -0.9093  0.2209
 6953TIP3    H145054   3.303   3.401   1.375 -1.9154  0.4557 -0.4940
 6953TIP3    H245055   3.257   3.384   1.518  0.0753 -0.5711  0.0742
 6954TIP3   OH245056   1.257   4.728   3.176  0.1347  0.2862  0.1901
 6954TIP3    H145057   1.204   4.679   3.113  0.0397 -2.2703  2.0935
 6954TIP3    H245058   1.195   4.760   3.241  0.6390 -1.5420  1.6814
 6955TIP3   OH245059   6.267   1.916   2.426 -0.5001 -0.8300 -0.1801
 6955TIP3    H145060   6.250   1.953   2.339  0.9377  2.1608  0.6955
 6955TIP3    H245061   6.198   1.952   2.481  1.0207  0.8119  0.7315
 6956TIP3   OH245062   3.736   0.942   1.176  0.2591 -0.2428 -0.1836
 6956TIP3    H145063   3.781   1.026   1.185  1.0286 -0.3962 -2.0503
 6956TIP3    H245064   3.725   0.910   1.266  1.9346  0.8192  0.4407
 6957TIP3   OH245065   0.531   1.376   0.709  0.2280  0.4306 -1.0029
 6957TIP3    H145066   0.453   1.429   0.722 -0.4272 -0.9030  0.7849
 6957TIP3    H245067   0.499   1.289   0.687  1.2428  0.1467 -1.4589
 6958TIP3   OH245068   2.175   1.123   1.458  0.0285  0.0578  0.2563
 6958TIP3    H145069   2.136   1.170   1.531 -1.3939 -1.3176  0.4327
 6958TIP3    H245070   2.181   1.188   1.388  0.8801  1.2486  1.3853
 6959TIP3   OH245071   5.998   1.363   1.607  0.4990 -0.4363  0.2270
 6959TIP3    H145072   5.980   1.407   1.691  2.5115  0.0074  0.4688
 6959TIP3    H245073   5.952   1.417   1.542  0.1591  0.0778  0.8761
 6960TIP3   OH245074   4.216   6.527   2.326 -0.0061 -0.0674 -0.1951
 6960TIP3    H145075   4.178   6.608   2.358  1.2730 -0.4918  2.7388
 6960TIP3    H245076   4.310   6.535   2.345  0.3586 -1.7241 -1.0513
 6961TIP3   OH245077   3.735   1.978   1.794 -0.0014 -0.5268  0.6115
 6961TIP3    H145078   3.727   2.054   1.736 -1.2088  0.4935  2.0366
 6961TIP3    H245079   3.707   1.904   1.740 -1.3531  0.4224 -0.0669
 6962TIP3   OH245080   2.163   2.726   2.779  0.1939  0.7907 -0.0585
 6962TIP3    H145081   2.132   2.637   2.763  1.3003  0.2577  0.5927
 6962TIP3    H245082   2.122   2.779   2.710 -0.1871 -0.2861 -0.6819
 6963TIP3   OH245083   2.424   4.099   2.621  0.5417 -0.6579  0.0979
 6963TIP3    H145084   2.419   4.066   2.710 -0.7183  2.2096  1.2107
 6963TIP3    H245085   2.410   4.023   2.565 -0.5613 -2.2053  2.3789
 6964TIP3   OH245086   5.119   7.472   2.143 -0.0932 -0.2412  0.1892
 6964TIP3    H145087   5.189   7.429   2.094  0.7194  1.3985 -0.1534
 6964TIP3    H245088   5.044   7.414   2.133  1.0477 -1.7645  0.0937
 6965TIP3   OH245089   5.841   6.124   2.072 -0.8428 -0.4979  0.0586
 6965TIP3    H145090   5.847   6.095   1.981  0.8732  1.9541 -0.7286
 6965TIP3    H245091   5.903   6.068   2.119  0.3038 -0.0423 -0.8533
 6966TIP3   OH245092   4.911   3.645   3.072  0.2925 -0.0988  0.3707
 6966TIP3    H145093   4.936   3.730   3.035 -1.8730  1.5413  2.3500
 6966TIP3    H245094   4.908   3.585   2.997 -0.3811  2.1423 -1.5024
 6967TIP3   OH245095   0.388   4.863   2.444 -0.2640  0.1216  0.4360
 6967TIP3    H145096   0.454   4.888   2.509 -0.4517  1.4035  0.1571
 6967TIP3    H245097   0.309   4.848   2.495 -0.0272 -0.3753  0.6613
 6968TIP3   OH245098   2.966   2.347   0.431  0.0511  0.4192 -0.2474
 6968TIP3    H145099   2.929   2.342   0.343  0.3655 -1.0747 -0.3240
 6968TIP3    H245100   3.057   2.320   0.420  0.1961  0.5909  0.4843
 6969TIP3   OH245101   5.778   0.012   1.972  0.3073  0.1710 -0.4273
 6969TIP3    H145102   5.854   0.058   2.006  1.1743 -0.3901 -1.5506
 6969TIP3    H245103   5.813  -0.052   1.910 -1.1063  0.4061 -1.5466
 6970TIP3   OH245104   2.810   0.038   2.076  0.5675  0.5171  0.6716
 6970TIP3    H145105   2.870   0.042   2.001  0.4095 -0.2802  0.4951
 6970TIP3    H245106   2.726   0.066   2.040  0.6294  0.7527  0.7063
 6971TIP3   OH245107   6.837   5.976   1.052 -0.1220 -0.5534 -0.4116
 6971TIP3    H145108   6.872   5.895   1.014  0.3169 -1.0703  1.0321
 6971TIP3    H245109   6.749   5.951   1.083 -0.0932 -0.4025 -0.2065
 6972TIP3   OH245110   1.130   4.032   1.404  0.2173 -0.2778 -0.0509
 6972TIP3    H145111   1.066   4.059   1.339  0.0751  1.6582  0.8412
 6972TIP3    H245112   1.085   4.044   1.488  1.5200  0.5403  0.5581
 6973TIP3   OH245113   2.884   0.869   0.429 -0.3785 -0.3214  0.4599
 6973TIP3    H145114   2.931   0.786   0.441  0.0727  0.0732  1.5820
 6973TIP3    H245115   2.953   0.933   0.416 -0.7558 -0.2162 -1.1347
 6974TIP3   OH245116   4.606   4.680   2.777 -0.5644 -0.7558  0.0354
 6974TIP3    H145117   4.617   4.770   2.808  2.5571 -0.5047 -1.3804
 6974TIP3    H245118   4.524   4.681   2.728 -0.7045  1.2704  0.2389
 6975TIP3   OH245119   5.652   3.007   0.543 -0.4913 -0.1088 -0.3499
 6975TIP3    H145120   5.678   3.085   0.494 -0.0507  1.2113  1.8572
 6975TIP3    H245121   5.561   3.024   0.569 -0.4962 -0.4905 -0.1124
 6976TIP3   OH245122   2.570   7.138   1.216 -0.4434  0.3817 -0.0449
 6976TIP3    H145123   2.599   7.048   1.231 -3.7351 -0.5449  1.8455
 6976TIP3    H245124   2.647   7.191   1.237  0.8872 -1.8841  1.3267
 6977TIP3   OH245125   3.421   4.640   2.766 -0.2167 -0.0856  0.1489
 6977TIP3    H145126   3.492   4.577   2.755 -1.8386 -2.2598  1.3640
 6977TIP3    H245127   3.451   4.697   2.837  1.5289  1.0173 -1.3659
 6978TIP3   OH245128   3.609   5.080   1.316 -0.2471  0.2331  0.0019
 6978TIP3    H145129   3.609   5.128   1.399 -1.7412  1.2066 -0.5404
 6978TIP3    H245130   3.527   5.031   1.317 -1.1092  1.5602 -1.6180
 6979TIP3   OH245131   3.681   5.874   2.504  0.1427 -0.2779  0.4376
 6979TIP3    H145132   3.662   5.920   2.586 -0.3211 -1.4518  1.0049
 6979TIP3    H245133   3.746   5.929   2.460 -0.1921  0.7708  1.2173
 6980TIP3   OH245134   6.891   2.215   2.043  0.8469 -0.0377  0.9686
 6980TIP3    H145135   6.840   2.234   2.121 -0.0770  0.4383  0.2619
 6980TIP3    H245136   6.873   2.288   1.984 -1.6103 -2.2579 -1.2398
 6981TIP3   OH245137   0.742   2.886   1.869 -0.1727 -0.8640  0.0753
 6981TIP3    H145138   0.693   2.859   1.946  0.8156  0.3425  1.1829
 6981TIP3    H245139   0.746   2.982   1.875 -0.3170 -0.7124 -1.6355
 6982TIP3   OH245140   7.353   4.039   2.134 -0.3825 -0.2807 -0.3309
 6982TIP3    H145141   7.367   4.134   2.129 -0.8738 -0.2379 -0.8910
 6982TIP3    H245142   7.407   4.012   2.209  0.2447  0.3427 -0.5438
 6983TIP3   OH245143   0.531   7.048   2.859 -0.3790 -0.5410  0.7597
 6983TIP3    H145144   0.584   7.124   2.884 -0.3040 -0.5974  0.7712
 6983TIP3    H245145   0.471   7.082   2.792  3.1419 -1.5259 -3.4056
 6984TIP3   OH245146   3.570   0.155   1.079  0.2359  0.3926  0.1129
 6984TIP3    H145147   3.619   0.094   1.135 -0.4544  0.1151  0.4187
 6984TIP3    H245148   3.559   0.108   0.997  1.1009  0.7346 -0.2145
 6985TIP3   OH245149   3.187   2.853   0.713  0.1933 -0.0440  0.0324
 6985TIP3    H145150   3.195   2.766   0.673  1.6257  0.2838 -0.4182
 6985TIP3    H245151   3.120   2.841   0.781 -0.3904 -1.2328 -0.7182
 6986TIP3   OH245152   2.366   2.535   2.873  0.4023 -1.2924  0.4754
 6986TIP3    H145153   2.296   2.486   2.917 -1.0453  0.5887  0.3870
 6986TIP3    H245154   2.337   2.544   2.783  0.8386 -0.6212  0.3934
 6987TIP3   OH245155   3.834   2.087   2.685 -0.0995  0.1325 -0.0645
 6987TIP3    H145156   3.783   2.011   2.656 -1.1705 -0.8703  3.8530
 6987TIP3    H245157   3.792   2.162   2.642 -1.5525 -1.1475 -0.9864
 6988TIP3   OH245158   7.106   6.726   1.497  0.0527 -0.0378 -0.4910
 6988TIP3    H145159   7.197   6.728   1.525  0.0676  0.2576 -0.5548
 6988TIP3    H245160   7.057   6.756   1.573  0.1373  1.3163 -0.9331
 6989TIP3   OH245161   5.838   7.156   3.389 -0.0967  0.3312 -0.3582
 6989TIP3    H145162   5.759   7.187   3.433 -0.6545  1.4639 -2.0620
 6989TIP3    H245163   5.838   7.062   3.402 -0.7231  0.5122  1.2178
 6990TIP3   OH245164   4.824   0.846   2.829 -0.4017 -0.2281  0.4127
 6990TIP3    H145165   4.787   0.866   2.742 -2.5380 -0.5245  1.1975
 6990TIP3    H245166   4.752   0.806   2.877  0.9594 -0.7499  2.1162
 6991TIP3   OH245167   1.074   2.130   1.785 -0.1501  0.0073  0.3053
 6991TIP3    H145168   1.163   2.109   1.756  0.4563 -0.7716  2.5885
 6991TIP3    H245169   1.036   2.045   1.809 -1.6421  0.2961 -0.8662
 6992TIP3   OH245170   6.608   4.422   0.567 -0.2001  0.2633  0.3188
 6992TIP3    H145171   6.568   4.450   0.649 -1.8445 -1.0887  0.0272
 6992TIP3    H245172   6.555   4.463   0.499  1.0870  1.2894 -0.1216
 6993TIP3   OH245173   0.577   0.021   2.001  0.5159  0.1069  0.3275
 6993TIP3    H145174   0.528  -0.025   2.070  1.1670 -2.7032 -0.9422
 6993TIP3    H245175   0.516   0.024   1.927  0.6747  0.8556  0.2231
 6994TIP3   OH245176   7.387   3.230   2.074  0.3347 -0.0428 -0.3117
 6994TIP3    H145177   7.444   3.307   2.063 -0.7790  0.9692  0.8016
 6994TIP3    H245178   7.300   3.266   2.087 -0.3969 -1.5501 -0.8260
 6995TIP3   OH245179   6.421   4.480   0.763 -0.0771 -0.1927 -0.7407
 6995TIP3    H145180   6.456   4.561   0.801 -0.4257  0.2096 -1.2562
 6995TIP3    H245181   6.352   4.452   0.824  0.4998 -0.4735 -0.2123
 6996TIP3   OH245182   0.090   3.356   0.503 -0.0771 -0.2501 -0.0051
 6996TIP3    H145183  -0.004   3.345   0.520  0.1607  0.1364  1.6669
 6996TIP3    H245184   0.123   3.267   0.495 -0.5772 -0.3905 -0.6091
 6997TIP3   OH245185   3.075   2.740   2.781 -0.1859 -0.0546 -0.3615
 6997TIP3    H145186   3.154   2.793   2.770  0.6725 -1.0569  0.7935
 6997TIP3    H245187   3.046   2.757   2.870  0.4354 -1.9100  0.2442
 6998TIP3   OH245188   7.222   1.417   2.052  0.5504  0.0702  0.1886
 6998TIP3    H145189   7.243   1.470   2.129  0.5377  0.3121  0.0274
 6998TIP3    H245190   7.218   1.327   2.085  0.1288  0.2176  0.5536
 6999TIP3   OH245191   1.345   0.617   0.628 -0.5589 -0.1190  0.1631
 6999TIP3    H145192   1.430   0.606   0.585  0.4726  2.6309  1.2617
 6999TIP3    H245193   1.287   0.649   0.559 -0.1940 -0.2163 -0.1922
 7000TIP3   OH245194   3.332   1.387   0.390  0.0294  0.1465  0.1927
 7000TIP3    H145195   3.419   1.404   0.427 -0.8948  0.6284  2.2732
 7000TIP3    H245196   3.329   1.292   0.378  0.9495  0.1594 -0.2214
 7001TIP3   OH245197   1.498   2.808   3.579 -0.1920  0.1617  0.2008
 7001TIP3    H145198   1.520   2.798   3.486  0.3580  1.9116  0.1159
 7001TIP3    H245199   1.567   2.760   3.625  0.1315  0.1685 -0.2711
 7002TIP3   OH245200   0.718   0.884   1.308 -0.2130 -0.5753  0.0240
 7002TIP3    H145201   0.655   0.895   1.237  0.3941  0.1818 -0.4157
 7002TIP3    H245202   0.779   0.818   1.276  1.1735  1.1220 -1.0027
 7003TIP3   OH245203   2.707   5.440   2.117  0.2707  0.1937 -0.1679
 7003TIP3    H145204   2.635   5.499   2.095  0.1041  0.6687  1.4774
 7003TIP3    H245205   2.784   5.496   2.121  0.4592 -0.0449 -0.4763
 7004TIP3   OH245206   0.278   7.457   0.613  0.0596 -0.1205  0.3400
 7004TIP3    H145207   0.222   7.533   0.600 -1.7082 -1.5815 -1.1824
 7004TIP3    H245208   0.367   7.490   0.600 -0.7591  1.4207 -1.9579
 7005TIP3   OH245209   1.936   0.926   2.797  0.1163  0.1568 -0.1287
 7005TIP3    H145210   1.854   0.976   2.801  2.1407  3.8265  0.2573
 7005TIP3    H245211   1.931   0.879   2.714 -1.6536  1.7998 -1.0467
 7006TIP3   OH245212   3.141   1.672   1.815  0.5265  0.2730  0.1024
 7006TIP3    H145213   3.179   1.695   1.731 -2.0749  1.7030 -0.7840
 7006TIP3    H245214   3.113   1.581   1.805  1.2173  0.0868 -0.1664
 7007TIP3   OH245215   3.692   5.266   1.963  0.0012  0.1574  0.6365
 7007TIP3    H145216   3.730   5.342   1.919  2.3174 -0.4237  1.5013
 7007TIP3    H245217   3.628   5.303   2.024 -0.8234  1.1830 -0.7817
 7008TIP3   OH245218   6.909   1.208   2.953 -0.5207  0.7216  0.8154
 7008TIP3    H145219   6.853   1.258   2.893 -0.0137  1.5646  1.0208
 7008TIP3    H245220   6.916   1.122   2.914 -1.6925  0.7048  0.6160
 7009TIP3   OH245221   5.944   0.003   0.689 -0.1544 -0.3063 -0.2270
 7009TIP3    H145222   6.022  -0.035   0.648 -0.1489  0.0419 -0.5407
 7009TIP3    H245223   5.894  -0.073   0.720  1.2248 -0.5002  1.7021
 7010TIP3   OH245224   4.776   3.354   2.822 -0.2782 -0.0401 -0.1353
 7010TIP3    H145225   4.713   3.420   2.851 -2.0191 -1.1314 -1.2795
 7010TIP3    H245226   4.751   3.274   2.868  0.3981 -0.4641 -0.4760
 7011TIP3   OH245227   6.433   0.490   1.305  0.2623 -0.4838  0.1700
 7011TIP3    H145228   6.412   0.453   1.219  0.1172 -3.2416  1.3007
 7011TIP3    H245229   6.528   0.482   1.312  0.3260  0.1514  0.1225
 7012TIP3   OH245230   6.338   1.790   1.236  0.3075  0.0182  0.0377
 7012TIP3    H145231   6.357   1.697   1.252  0.8756  0.2352  0.7259
 7012TIP3    H245232   6.385   1.810   1.155 -0.4188 -0.4655 -0.5152
 7013TIP3   OH245233   5.132   1.608   2.410  0.4034 -0.3434 -0.2427
 7013TIP3    H145234   5.178   1.526   2.423  0.0632 -1.1447 -3.3563
 7013TIP3    H245235   5.039   1.585   2.420  0.3511 -0.1277 -0.2261
 7014TIP3   OH245236   2.144   5.360   1.445 -0.1290 -0.0112 -0.1915
 7014TIP3    H145237   2.191   5.443   1.454 -0.9507  0.2895  1.8817
 7014TIP3    H245238   2.064   5.372   1.497 -0.5384 -1.9152 -0.3082
 7015TIP3   OH245239   3.911   2.196   1.961  0.1142 -0.3457 -0.1745
 7015TIP3    H145240   3.826   2.239   1.960 -1.4227 -2.7907  3.6063
 7015TIP3    H245241   3.953   2.226   2.042  1.6647 -1.2374 -0.6043
 7016TIP3   OH245242   5.117   6.604   2.117 -0.1656 -0.3601 -0.2528
 7016TIP3    H145243   5.143   6.611   2.025 -0.1129  1.9121 -0.1154
 7016TIP3    H245244   5.032   6.560   2.115 -1.1107  1.4005 -1.5986
 7017TIP3   OH245245   6.425   7.154   1.752 -0.0123  0.4511 -0.1744
 7017TIP3    H145246   6.411   7.239   1.711 -0.5145  1.2817  1.6545
 7017TIP3    H245247   6.428   7.093   1.678 -3.1629  1.5496 -1.4137
 7018TIP3   OH245248   1.815   4.247   1.045 -0.2064  0.1429  0.4254
 7018TIP3    H145249   1.801   4.195   1.124 -1.4371  0.8197  0.6677
 7018TIP3    H245250   1.899   4.216   1.011 -0.6210 -1.5922  0.8780
 7019TIP3   OH245251   0.057   0.784   2.849 -0.1058 -0.6177  0.1588
 7019TIP3    H145252   0.020   0.781   2.937  1.0630  0.0836  0.6978
 7019TIP3    H245253   0.106   0.703   2.840  0.3793 -0.3631  0.4466
 7020TIP3   OH245254   5.645   6.328   1.720 -0.0465 -0.0049 -0.0791
 7020TIP3    H145255   5.737   6.355   1.710 -0.3743  0.7838 -1.0403
 7020TIP3    H245256   5.647   6.234   1.700  0.4704  0.1173 -0.6648
 7021TIP3   OH245257   3.761   1.553   1.895 -0.2569  0.1754  0.2780
 7021TIP3    H145258   3.733   1.493   1.964  0.2543 -0.1998  0.1637
 7021TIP3    H245259   3.851   1.526   1.875 -0.4159  0.2502 -0.5617
 7022TIP3   OH245260   6.946   3.147   2.303 -0.4524  0.6014  0.2034
 7022TIP3    H145261   6.872   3.117   2.250  0.2081 -0.5376 -0.1011
 7022TIP3    H245262   6.918   3.131   2.394 -1.0512  1.3062  0.1516
 7023TIP3   OH245263   4.355   3.136   1.703  0.4990 -1.4033 -0.4140
 7023TIP3    H145264   4.341   3.220   1.747 -2.4656 -1.5039 -0.9311
 7023TIP3    H245265   4.361   3.158   1.610  0.4749 -1.7077 -0.4883
 7024TIP3   OH245266   0.369   0.950   3.307  0.4190 -0.5552 -0.7931
 7024TIP3    H145267   0.416   1.033   3.315 -0.4594 -0.0379 -0.8026
 7024TIP3    H245268   0.308   0.949   3.381 -0.3062 -0.6948 -1.3776
 7025TIP3   OH245269   1.859   1.278   0.875 -0.1719  0.0345 -0.0509
 7025TIP3    H145270   1.837   1.345   0.811 -0.9902 -1.2779 -1.2068
 7025TIP3    H245271   1.818   1.308   0.956 -0.4038  0.9929 -0.5137
 7026TIP3   OH245272   5.033   6.374   0.851 -0.1510  0.4897  0.5150
 7026TIP3    H145273   5.119   6.369   0.808  0.3999  0.4166  1.5834
 7026TIP3    H245274   5.049   6.341   0.939 -1.4332 -0.1446  0.5291
 7027TIP3   OH245275   3.648   6.374   1.429 -0.4078 -0.0187  0.1707
 7027TIP3    H145276   3.590   6.441   1.465  1.8859  1.5765  1.1288
 7027TIP3    H245277   3.708   6.422   1.372  0.1882 -1.5478 -0.5434
 7028TIP3   OH245278   5.402   6.944   3.147 -0.4672  0.2206  0.0777
 7028TIP3    H145279   5.417   6.957   3.241 -3.2539  0.6689  0.5637
 7028TIP3    H245280   5.312   6.976   3.133 -1.2684 -2.5904 -2.1430
 7029TIP3   OH245281   7.294   0.838   1.080 -0.4242  0.0193 -0.0295
 7029TIP3    H145282   7.379   0.880   1.092  0.2772 -0.5107 -2.5192
 7029TIP3    H245283   7.244   0.901   1.028 -1.2373 -0.0699  0.6258
 7030TIP3   OH245284   6.243   3.380   2.174 -0.2127 -0.2228 -0.4501
 7030TIP3    H145285   6.181   3.354   2.242 -0.4450 -0.1885 -0.6508
 7030TIP3    H245286   6.217   3.469   2.150  0.4789  0.1481  0.1211
 7031TIP3   OH245287   6.919   7.277   1.425  0.0865 -0.1907  0.2342
 7031TIP3    H145288   6.851   7.339   1.451  0.3807  0.3913 -0.3652
 7031TIP3    H245289   6.932   7.222   1.502 -0.9073 -0.1776  0.4337
 7032TIP3   OH245290   4.124   1.793   2.699  0.2338  0.5316  0.4946
 7032TIP3    H145291   4.148   1.703   2.680 -2.5967  0.0539 -1.4045
 7032TIP3    H245292   4.069   1.787   2.778  0.2404  0.6273  0.5071
 7033TIP3   OH245293   0.155   3.709   0.920 -0.3567 -0.3001 -0.1744
 7033TIP3    H145294   0.244   3.676   0.910  0.3639  1.7494 -1.1528
 7033TIP3    H245295   0.152   3.746   1.008  0.2317  0.8534 -0.6213
 7034TIP3   OH245296   1.327   0.575   1.770  1.0280 -0.2373 -0.4484
 7034TIP3    H145297   1.309   0.487   1.735  1.4381 -0.9424  1.0098
 7034TIP3    H245298   1.415   0.595   1.739  0.9694 -0.3774 -0.7139
 7035TIP3   OH245299   0.884   5.654   1.139 -0.1387 -0.7542 -0.0330
 7035TIP3    H145300   0.836   5.597   1.079 -0.6797 -0.7724  0.4070
 7035TIP3    H245301   0.956   5.690   1.087 -1.0340 -0.1755 -0.8977
 7036TIP3   OH245302   5.369   3.763   1.809  0.0883  0.1650 -0.4539
 7036TIP3    H145303   5.313   3.695   1.771  0.8631  0.3692 -2.0881
 7036TIP3    H245304   5.427   3.789   1.736  2.1438  0.1196  1.0717
 7037TIP3   OH245305   3.291   1.660   1.372 -0.1508  0.2558  0.0341
 7037TIP3    H145306   3.337   1.699   1.297 -0.6299  0.6327 -0.0700
 7037TIP3    H245307   3.295   1.565   1.355  0.7189  0.2667  0.1115
 7038TIP3   OH245308   1.918   7.123   8.307 -0.2836  0.6245  0.0319
 7038TIP3    H145309   1.910   7.032   8.278  0.4680 -0.0333  1.7593
 7038TIP3    H245310   1.865   7.173   8.245  0.0268 -0.8731 -1.4885
 7039TIP3   OH245311   1.357   1.488   2.461  0.2386  0.4421  0.3501
 7039TIP3    H145312   1.410   1.555   2.418  1.4668 -0.2370  0.7625
 7039TIP3    H245313   1.364   1.507   2.555  2.2618 -1.3702  0.6461
 7040TIP3   OH245314   5.933   6.825   2.414  0.5266  0.6430  0.0146
 7040TIP3    H145315   5.847   6.841   2.453  0.5507  0.2582  0.2237
 7040TIP3    H245316   5.978   6.769   2.477  1.4557  1.9617  0.5881
 7041TIP3   OH245317   6.191   3.489   1.530  0.4613  0.1527 -0.1875
 7041TIP3    H145318   6.237   3.537   1.461  1.5419  1.4313  1.3349
 7041TIP3    H245319   6.244   3.503   1.608 -1.5020  0.0347  1.2433
 7042TIP3   OH245320   5.159   4.718   0.782 -0.0594 -0.1436 -1.0008
 7042TIP3    H145321   5.106   4.690   0.708 -1.8759  0.2148  0.1096
 7042TIP3    H245322   5.112   4.793   0.819 -0.6291 -1.8352  1.9955
 7043TIP3   OH245323   5.175   2.287   0.508 -0.6402 -0.4774  0.2000
 7043TIP3    H145324   5.269   2.289   0.529 -0.7194 -0.6588  0.5961
 7043TIP3    H245325   5.143   2.209   0.554 -1.4722  1.0026  2.2906
 7044TIP3   OH245326   2.090   0.698   0.500  0.3884  0.4038 -0.0724
 7044TIP3    H145327   2.127   0.752   0.570  2.0324 -1.0113  0.2244
 7044TIP3    H245328   2.045   0.627   0.546 -0.1751  0.5053 -0.4577
 7045TIP3   OH245329   7.143   4.141   2.823  0.1916  0.5902  0.4937
 7045TIP3    H145330   7.108   4.079   2.887 -3.3348  1.0928 -0.7375
 7045TIP3    H245331   7.195   4.087   2.763  0.6253 -0.4373  1.7643
 7046TIP3   OH245332   1.350   5.933   2.493 -0.0117 -0.2738 -0.0379
 7046TIP3    H145333   1.369   5.849   2.536 -0.6978 -1.5461 -2.0844
 7046TIP3    H245334   1.397   5.997   2.545  2.1946 -2.1599  0.4632
 7047TIP3   OH245335   4.509   6.577   1.983  0.1577  0.3603  0.3245
 7047TIP3    H145336   4.498   6.554   1.890 -1.4900 -1.2520  0.8493
 7047TIP3    H245337   4.593   6.539   2.007  1.7599  2.8185 -1.0213
 7048TIP3   OH245338   2.773   5.658   1.036 -0.1005  0.6840  0.0349
 7048TIP3    H145339   2.687   5.620   1.050 -0.4152  0.4054 -2.3701
 7048TIP3    H245340   2.758   5.738   0.987  0.9480  1.2397  0.5645
 7049TIP3   OH245341   2.039   6.037   1.382  0.1657  0.7190 -0.6100
 7049TIP3    H145342   2.077   6.108   1.330 -1.2316  1.0434 -1.2409
 7049TIP3    H245343   1.965   6.006   1.330 -0.8146  0.5238  0.8265
 7050TIP3   OH245344   3.184   2.370   2.296  0.5549  0.2684  0.2605
 7050TIP3    H145345   3.141   2.418   2.225  1.6665 -0.2792 -0.8324
 7050TIP3    H245346   3.232   2.300   2.251  1.2486 -0.1221  1.5675
 7051TIP3   OH245347   0.925   0.825   1.754  0.3835 -0.9539 -0.3857
 7051TIP3    H145348   0.920   0.893   1.687 -0.3007 -0.6322 -0.0133
 7051TIP3    H245349   0.844   0.776   1.744 -1.0246  0.7371  1.9344
 7052TIP3   OH245350   0.860   0.070   0.840  0.0339 -0.5681 -0.6046
 7052TIP3    H145351   0.883  -0.004   0.784 -1.1977  0.5191 -2.6738
 7052TIP3    H245352   0.778   0.103   0.803 -0.1229  1.0403  1.0555
 7053TIP3   OH245353   0.651   3.854   3.240 -1.0198 -0.0392  0.2573
 7053TIP3    H145354   0.656   3.759   3.232 -2.2245 -0.1750  0.8418
 7053TIP3    H245355   0.729   3.878   3.290  0.2729 -0.4833 -1.4579
 7054TIP3   OH245356   7.555   3.435   2.752 -0.2440 -0.4626  0.5030
 7054TIP3    H145357   7.540   3.431   2.658 -0.1571  0.6564  0.4199
 7054TIP3    H245358   7.533   3.525   2.776 -1.3688 -1.0358  1.7504
 7055TIP3   OH245359   2.353   7.455   0.453  0.0626 -0.5110 -0.4987
 7055TIP3    H145360   2.438   7.461   0.497 -0.8360 -0.3151  1.3059
 7055TIP3    H245361   2.327   7.364   0.464  0.1102 -0.6099 -1.1951
 7056TIP3   OH245362   2.532   1.439   1.398 -0.0136  0.1298 -0.2538
 7056TIP3    H145363   2.555   1.497   1.326 -2.0489 -0.1079 -1.1605
 7056TIP3    H245364   2.606   1.445   1.458  2.2581 -0.4539 -2.8131
 7057TIP3   OH245365   0.366   3.525   2.123  0.0906 -0.0149  0.2668
 7057TIP3    H145366   0.420   3.549   2.198 -0.7247  2.3817  0.1729
 7057TIP3    H245367   0.276   3.524   2.158 -0.0426 -1.9425 -0.0268
 7058TIP3   OH245368   2.290   3.198   2.633 -0.2670  0.1851 -0.0861
 7058TIP3    H145369   2.345   3.276   2.629 -1.0539  0.9260  2.0292
 7058TIP3    H245370   2.269   3.179   2.542  2.2488  0.7252 -0.8677
 7059TIP3   OH245371   7.283   1.216   1.595  0.0228 -0.1188 -0.2628
 7059TIP3    H145372   7.244   1.142   1.550 -0.9217 -0.2379  0.7155
 7059TIP3    H245373   7.359   1.180   1.641 -0.0090 -0.3270 -0.3762
 7060TIP3   OH245374   1.533   7.021   1.237  0.1032 -0.5124  0.0839
 7060TIP3    H145375   1.519   7.015   1.331 -0.0797 -2.0131 -0.0121
 7060TIP3    H245376   1.504   6.936   1.203 -0.9529  0.4003 -1.4669
 7061TIP3   OH245377   6.171   5.763   2.451  0.1999 -0.1600 -0.0309
 7061TIP3    H145378   6.214   5.774   2.366 -0.2038  1.1004 -0.0948
 7061TIP3    H245379   6.081   5.792   2.436  0.0888 -0.0502  0.8073
 7062TIP3   OH245380   3.350   0.931   1.015  0.3965  0.0037 -0.0614
 7062TIP3    H145381   3.429   0.985   1.011 -0.0638  0.7010  0.0964
 7062TIP3    H245382   3.284   0.988   1.054  0.4779 -1.3988  2.2833
 7063TIP3   OH245383   6.767   1.654   1.546 -0.0385  0.7228  0.4496
 7063TIP3    H145384   6.706   1.594   1.590 -0.2101 -0.5000 -1.3160
 7063TIP3    H245385   6.719   1.682   1.468  0.2514  2.8014  0.9768
 7064TIP3   OH245386   5.330   0.854   2.856  0.3230 -0.4209 -0.7600
 7064TIP3    H145387   5.383   0.922   2.898  0.6199 -1.4906  0.6791
 7064TIP3    H245388   5.251   0.900   2.827  0.7797  0.6508 -0.3673
 7065TIP3   OH245389   2.243   2.157   2.957 -0.3680  0.1975 -0.3568
 7065TIP3    H145390   2.229   2.250   2.942 -1.7401  0.2097  0.8363
 7065TIP3    H245391   2.273   2.151   3.047 -3.1024 -0.6828  0.5843
 7066TIP3   OH245392   4.235   6.214   2.419  0.1178 -0.3132 -0.1432
 7066TIP3    H145393   4.167   6.195   2.484  0.0244 -0.5536 -0.3114
 7066TIP3    H245394   4.301   6.145   2.432  0.4756  0.0840  0.2156
 7067TIP3   OH245395   5.758   6.915   1.403 -0.5048 -0.3918 -0.0890
 7067TIP3    H145396   5.816   6.985   1.434  1.9808 -1.8931 -1.0557
 7067TIP3    H245397   5.670   6.948   1.421  0.5592  2.5041  0.4559
 7068TIP3   OH245398   0.723   4.508   1.616  0.3952  0.2578 -0.3958
 7068TIP3    H145399   0.819   4.507   1.614  0.5604  0.7547  2.5210
 7068TIP3    H245400   0.702   4.590   1.660 -1.1739 -1.2779  1.9465
 7069TIP3   OH245401   6.465   2.103   2.323  0.2683 -0.7112  0.3120
 7069TIP3    H145402   6.381   2.140   2.295  0.7136  0.2146  0.1759
 7069TIP3    H245403   6.442   2.045   2.397 -0.5407 -0.8618 -0.0449
 7070TIP3   OH245404   2.212   1.761   1.605 -0.0149  0.2511  0.1774
 7070TIP3    H145405   2.269   1.715   1.544  0.5366 -0.1945  1.0159
 7070TIP3    H245406   2.190   1.696   1.672 -1.7235  0.3399 -0.2669
 7071TIP3   OH245407   5.539   4.092   1.970 -0.1149 -0.1511 -0.3135
 7071TIP3    H145408   5.546   4.119   1.879  0.6368  0.8189  0.0161
 7071TIP3    H245409   5.445   4.084   1.986 -0.3695  1.8927 -0.5503
 7072TIP3   OH245410   7.449   2.784   2.890 -0.9128  0.8192  0.0539
 7072TIP3    H145411   7.455   2.842   2.966  0.9453  0.1268  0.4955
 7072TIP3    H245412   7.478   2.839   2.817 -3.1406  1.6224 -0.2855
 7073TIP3   OH245413   1.290   6.131   2.295  0.4250 -0.0479  0.5625
 7073TIP3    H145414   1.298   6.073   2.371  1.2753 -1.0467 -0.2573
 7073TIP3    H245415   1.377   6.130   2.255 -0.2551 -0.3294 -0.9807
 7074TIP3   OH245416   2.772   1.342   1.141 -0.0501 -0.1226 -0.2058
 7074TIP3    H145417   2.712   1.280   1.101 -0.6136  0.9590 -1.0795
 7074TIP3    H245418   2.719   1.419   1.160  1.0163  0.8599 -1.0064
 7075TIP3   OH245419   1.077   3.340   2.234  0.4947 -0.4077 -0.1805
 7075TIP3    H145420   1.047   3.249   2.235 -0.7700 -0.0056  0.2084
 7075TIP3    H245421   1.123   3.350   2.151 -1.6573 -0.7037 -1.4831
 7076TIP3   OH245422   4.250   7.343   3.219  0.2788  1.2609 -0.3578
 7076TIP3    H145423   4.191   7.291   3.164 -2.0255  2.1272  1.1664
 7076TIP3    H245424   4.276   7.283   3.289 -0.5377  1.5043  0.1537
 7077TIP3   OH245425   4.941   7.472   1.028 -0.6716  1.1737 -0.0462
 7077TIP3    H145426   4.955   7.555   1.074  0.1986  1.3791 -0.6655
 7077TIP3    H245427   4.847   7.468   1.013 -0.7058  2.0880 -0.0871
 7078TIP3   OH245428   4.232   0.096   2.580  0.3020 -0.3150 -0.0984
 7078TIP3    H145429   4.224   0.121   2.672  1.0303  0.6422 -0.2782
 7078TIP3    H245430   4.143   0.072   2.554 -0.0834  0.3060  0.6057
 7079TIP3   OH245431   6.290   4.869   1.007  0.6154  0.1623  0.7300
 7079TIP3    H145432   6.300   4.941   1.068 -2.7320  0.4645  1.1514
 7079TIP3    H245433   6.195   4.864   0.992  1.1027 -0.9111 -3.2255
 7080TIP3   OH245434   1.362   3.594   1.816 -0.0546 -0.0818  0.4418
 7080TIP3    H145435   1.421   3.530   1.777  0.4630  0.6183  0.0420
 7080TIP3    H245436   1.381   3.591   1.910 -0.4135 -0.8809  0.4972
 7081TIP3   OH245437   3.372   3.409   1.679 -0.2732 -0.0647  0.1578
 7081TIP3    H145438   3.393   3.481   1.738 -1.9312  0.6125 -0.0125
 7081TIP3    H245439   3.348   3.336   1.736 -0.1072  0.0166  0.3308
 7082TIP3   OH245440   4.282   4.206   2.011 -0.2497  0.3389  0.6148
 7082TIP3    H145441   4.219   4.134   2.000  0.1412 -0.7477  4.3455
 7082TIP3    H245442   4.235   4.272   2.062  1.3238 -0.2700  3.0281
 7083TIP3   OH245443   3.371   0.589   1.739 -0.1977 -0.0708  0.1419
 7083TIP3    H145444   3.411   0.630   1.662  0.5715 -0.3887  0.3718
 7083TIP3    H245445   3.369   0.496   1.718 -1.0695 -0.0424  0.0250
 7084TIP3   OH245446   4.409   3.505   0.514  0.2917  0.4776 -0.1768
 7084TIP3    H145447   4.445   3.572   0.455  0.1255  0.8538  0.1385
 7084TIP3    H245448   4.483   3.476   0.566  0.4626  0.0599 -0.6431
 7085TIP3   OH245449   2.239   2.072   1.163 -0.8301 -0.5819 -0.5172
 7085TIP3    H145450   2.334   2.064   1.176 -0.7461  2.6164  2.1270
 7085TIP3    H245451   2.202   1.998   1.211  0.2666 -0.7867  0.0596
 7086TIP3   OH245452   7.223   6.749   0.499  0.5576  0.7160 -0.0946
 7086TIP3    H145453   7.242   6.842   0.490  0.1741  0.7728 -0.3176
 7086TIP3    H245454   7.162   6.744   0.573  2.0152  0.4584  1.1393
 7087TIP3   OH245455   2.057   6.365   1.564 -0.4636 -0.7438  0.2019
 7087TIP3    H145456   1.977   6.390   1.517 -0.5824 -2.4256 -0.5861
 7087TIP3    H245457   2.126   6.372   1.499 -0.7121 -3.6405 -0.5159
 7088TIP3   OH245458   6.773   6.062   1.408  0.0989 -0.1896  0.3397
 7088TIP3    H145459   6.861   6.031   1.390  0.1131 -0.2796  0.5633
 7088TIP3    H245460   6.745   6.103   1.326  0.1938 -0.5251  0.1361
 7089TIP3   OH245461   2.314   3.392   1.195  0.0906  0.0744 -0.0620
 7089TIP3    H145462   2.291   3.384   1.103 -2.5701 -1.2245  0.6364
 7089TIP3    H245463   2.317   3.486   1.211 -3.6852  0.4261 -0.6046
 7090TIP3   OH245464   3.927   5.035   2.737 -0.2217 -0.0454 -0.0003
 7090TIP3    H145465   3.862   5.073   2.796 -0.2203 -0.1798  0.0872
 7090TIP3    H245466   4.007   5.030   2.790 -0.3303 -0.5579  0.1171
 7091TIP3   OH245467   5.418   2.401   0.583 -0.0922  0.1093 -0.3917
 7091TIP3    H145468   5.424   2.454   0.503  2.2501  0.1301 -0.2542
 7091TIP3    H245469   5.453   2.458   0.652  0.2063 -0.7824  0.2027
 7092TIP3   OH245470   5.886   0.138   1.255  0.0394 -0.1932  0.2357
 7092TIP3    H145471   5.951   0.120   1.186  0.0384 -0.0756  0.2044
 7092TIP3    H245472   5.806   0.161   1.207  0.6660  2.2870  0.2415
 7093TIP3   OH245473   4.592   4.515   1.426  0.1332 -0.2649 -0.8126
 7093TIP3    H145474   4.548   4.596   1.451 -0.6786 -0.6514 -0.9657
 7093TIP3    H245475   4.678   4.544   1.393 -0.4902  0.6214 -1.7466
 7094TIP3   OH245476   2.593   4.978   1.903 -0.1020 -0.1655 -0.3048
 7094TIP3    H145477   2.559   5.067   1.894 -0.3202 -0.1869  0.2579
 7094TIP3    H245478   2.677   4.980   1.858 -0.6352  0.0141 -1.3111
 7095TIP3   OH245479   2.625   0.590   2.048  0.4397 -0.2015  0.5408
 7095TIP3    H145480   2.561   0.522   2.031  1.1675 -0.7668  0.0149
 7095TIP3    H245481   2.579   0.672   2.027  0.3932 -0.6849 -1.4797
 7096TIP3   OH245482   4.610   4.135   0.808 -0.0857 -0.8039 -0.5956
 7096TIP3    H145483   4.670   4.068   0.842  0.8681  0.2621 -0.1113
 7096TIP3    H245484   4.549   4.087   0.753  1.5896 -1.8809 -1.6177
 7097TIP3   OH245485   6.737   6.109   2.851 -0.3362  0.3821 -0.3443
 7097TIP3    H145486   6.695   6.064   2.925 -1.8884  1.1817 -0.6840
 7097TIP3    H245487   6.821   6.138   2.884  0.0491 -1.3850  0.3515
 7098TIP3   OH245488   2.938   1.047   1.710 -0.0551  0.7134  0.3302
 7098TIP3    H145489   2.902   0.970   1.666  0.2740  0.7753 -0.0589
 7098TIP3    H245490   2.988   1.092   1.642  1.1808  0.3558  0.9587
 7099TIP3   OH245491   6.895   4.197   2.583  0.3593  0.3634 -0.1813
 7099TIP3    H145492   6.974   4.224   2.631  0.5883  0.5981 -0.6880
 7099TIP3    H245493   6.927   4.142   2.512 -0.0618 -0.7689  0.4896
 7100TIP3   OH245494   2.428   7.234   2.898  0.1949  0.3852 -0.1974
 7100TIP3    H145495   2.353   7.249   2.955 -0.2990  0.8684 -0.9502
 7100TIP3    H245496   2.452   7.321   2.867  0.1776  0.0913 -1.0646
 7101TIP3   OH245497   0.219   0.649   2.518 -0.6553  0.7314  0.0676
 7101TIP3    H145498   0.260   0.622   2.601 -0.1729 -0.6499 -0.5841
 7101TIP3    H245499   0.211   0.744   2.525  1.0530  0.8508  0.9472
 7102TIP3   OH245500   0.563   5.535   0.449  0.0911  0.4452 -0.0201
 7102TIP3    H145501   0.471   5.539   0.422 -0.6531 -1.0472  1.9618
 7102TIP3    H245502   0.580   5.621   0.488  0.0439  1.2703 -1.7541
 7103TIP3   OH245503   4.090   5.513   0.917 -0.2681 -0.3519 -0.4152
 7103TIP3    H145504   4.116   5.514   0.825 -0.1673  1.2240 -0.4001
 7103TIP3    H245505   4.163   5.554   0.963 -1.1452  0.7041  0.0930
 7104TIP3   OH245506   0.823   1.026   2.056  0.7567 -0.1784 -0.2210
 7104TIP3    H145507   0.859   0.937   2.056 -0.2879 -0.6410  1.2085
 7104TIP3    H245508   0.891   1.080   2.094  0.8563 -0.6309  0.2517
 7105TIP3   OH245509   3.059   5.512   2.636 -0.1409 -0.2936 -0.2665
 7105TIP3    H145510   3.024   5.462   2.562  0.3251 -2.9495  1.2020
 7105TIP3    H245511   3.141   5.468   2.658 -0.1764  0.5377  1.7161
 7106TIP3   OH245512   6.219   7.080   1.322 -0.0084 -0.1243 -0.3592
 7106TIP3    H145513   6.297   7.112   1.276 -0.5512 -0.1444 -1.3182
 7106TIP3    H245514   6.211   6.989   1.294  0.0833 -0.3765  0.3923
 7107TIP3   OH245515   4.847   3.823   2.762 -0.3999 -0.4981  0.4560
 7107TIP3    H145516   4.777   3.886   2.750 -0.9896 -1.1359  0.4911
 7107TIP3    H245517   4.870   3.830   2.855 -1.5283 -1.4075  0.8294
 7108TIP3   OH245518   6.857   2.730   2.642 -0.1345  0.1020  0.2195
 7108TIP3    H145519   6.914   2.654   2.630 -2.1150 -1.1658 -1.8202
 7108TIP3    H245520   6.779   2.696   2.685 -1.0077  0.9882 -0.6149
 7109TIP3   OH245521   0.576   3.217   1.887 -0.4731  0.0694  0.7182
 7109TIP3    H145522   0.519   3.140   1.884  1.4144 -1.5408 -4.2380
 7109TIP3    H245523   0.665   3.180   1.897  0.2481  2.1693  3.5199
 7110TIP3   OH245524   6.010   1.583   1.993  0.8192 -0.0367  0.5793
 7110TIP3    H145525   6.072   1.509   1.999  0.7257 -0.1592  0.0376
 7110TIP3    H245526   6.061   1.659   2.021  1.7935  0.1917 -1.6123
 7111TIP3   OH245527   3.565   2.907   1.305 -0.1160 -0.0114  0.3543
 7111TIP3    H145528   3.543   2.989   1.348 -0.0258  0.6220 -0.7702
 7111TIP3    H245529   3.602   2.933   1.220  0.8591 -1.1810  0.3924
 7112TIP3   OH245530   3.335   2.439   1.550 -0.3300  0.0783 -0.1485
 7112TIP3    H145531   3.297   2.518   1.586  0.9197  0.4473  0.4283
 7112TIP3    H245532   3.280   2.417   1.475 -1.0908  1.1002  0.0967
 7113TIP3   OH245533   4.662   7.135   0.724 -0.0724  0.0691  0.6572
 7113TIP3    H145534   4.745   7.127   0.677  0.0297 -0.9307  0.9760
 7113TIP3    H245535   4.629   7.045   0.729 -1.0288  0.4155  0.7962
 7114TIP3   OH245536   5.419   2.146   1.252 -0.1130 -0.1435  0.2707
 7114TIP3    H145537   5.450   2.056   1.251 -0.8572 -0.4175  0.9587
 7114TIP3    H245538   5.405   2.167   1.160 -0.3012 -0.8597  0.1295
 7115TIP3   OH245539   4.191   2.590   2.266  0.4998 -0.6875 -0.0379
 7115TIP3    H145540   4.240   2.574   2.346 -1.1649  0.6036  1.3265
 7115TIP3    H245541   4.105   2.621   2.296 -0.3480 -0.6062 -2.3184
 7116TIP3   OH245542   6.441   3.073   1.545 -0.3037 -0.3523 -0.2937
 7116TIP3    H145543   6.490   2.991   1.553 -1.9807 -1.3553  0.2381
 7116TIP3    H245544   6.351   3.049   1.568 -0.9399  1.5351 -0.6719
 7117TIP3   OH245545   5.858   5.986   1.213 -0.5591  0.3573 -0.5549
 7117TIP3    H145546   5.948   5.955   1.200 -0.9121 -1.1706  0.2909
 7117TIP3    H245547   5.812   5.910   1.251 -1.8377  1.5513  0.4135
 7118TIP3   OH245548   0.804   2.089   0.941 -0.4230 -0.4751 -0.3305
 7118TIP3    H145549   0.729   2.068   0.885  0.0199  0.0695 -1.1367
 7118TIP3    H245550   0.838   2.172   0.907 -1.5498  1.1444  2.1881
 7119TIP3   OH245551   3.223   4.315   1.918 -0.9430 -0.3291 -0.1609
 7119TIP3    H145552   3.317   4.332   1.927 -1.1405  1.8874 -1.6321
 7119TIP3    H245553   3.219   4.226   1.883  0.4375 -1.4836  2.3084
 7120TIP3   OH245554   0.974   0.532   2.352  0.7482  0.1761  0.3687
 7120TIP3    H145555   1.015   0.518   2.267 -4.3021  3.2173 -3.1534
 7120TIP3    H245556   0.935   0.448   2.374  1.2725 -0.4267 -0.9043
 7121TIP3   OH245557   4.334   4.054   2.561  0.2279 -0.1257 -0.2650
 7121TIP3    H145558   4.337   4.045   2.657 -0.8051  0.4977 -0.1611
 7121TIP3    H245559   4.313   3.966   2.530 -2.5001  0.2455  0.2942
 7122TIP3   OH245560   4.181   6.111   0.484  0.0814  0.4645 -0.0099
 7122TIP3    H145561   4.101   6.147   0.445 -0.6703 -0.7203  0.3602
 7122TIP3    H245562   4.152   6.029   0.524  1.1939  0.7791  1.4949
 7123TIP3   OH245563   2.968   1.874   1.667 -0.5186  0.2211  0.1966
 7123TIP3    H145564   2.966   1.839   1.756  1.1317  0.2765  0.2742
 7123TIP3    H245565   3.057   1.857   1.636 -0.3928  2.1729 -0.6324
 7124TIP3   OH245566   3.653   1.062   0.407 -0.2357 -0.1900  0.0752
 7124TIP3    H145567   3.723   1.001   0.429 -0.4288 -0.4897 -0.1271
 7124TIP3    H245568   3.694   1.149   0.411  0.2843 -0.3966 -0.5547
 7125TIP3   OH245569   6.424   5.436   1.488 -0.4721  0.3496  0.5162
 7125TIP3    H145570   6.453   5.446   1.579 -0.2643 -0.5676  0.5599
 7125TIP3    H245571   6.502   5.406   1.441 -0.7302  0.2392  0.1557
 7126TIP3   OH245572   3.957   5.600   2.094  0.0579  0.0549 -0.1463
 7126TIP3    H145573   3.876   5.554   2.074  0.4843  0.1328 -2.3651
 7126TIP3    H245574   3.934   5.693   2.089  0.1732  0.0759 -0.3063
 7127TIP3   OH245575   4.686   5.374   0.549 -0.3851  0.2439 -0.4028
 7127TIP3    H145576   4.699   5.451   0.495 -1.4583  0.8666  0.1833
 7127TIP3    H245577   4.595   5.348   0.532 -1.0351  0.9503  1.6784
 7128TIP3   OH245578   6.358   6.800   1.177  0.3277 -0.3470  0.4331
 7128TIP3    H145579   6.440   6.841   1.149 -0.3503  0.7414 -0.0417
 7128TIP3    H245580   6.385   6.715   1.213  1.7309  0.2683  0.9316
 7129TIP3   OH245581   1.660   3.081   0.511  0.1932 -0.0998  0.3667
 7129TIP3    H145582   1.569   3.064   0.534 -0.4783  1.1865 -1.1462
 7129TIP3    H245583   1.661   3.172   0.480  1.9774 -0.1048  0.2894
 7130TIP3   OH245584   3.969   2.149   3.028 -0.2010  0.1912 -0.5528
 7130TIP3    H145585   3.901   2.085   3.052  0.0552  0.6024  1.4873
 7130TIP3    H245586   4.021   2.105   2.960 -1.6924 -0.6440 -1.1960
 7131TIP3   OH245587   2.659   3.136   3.150  0.4335  0.5409 -0.6624
 7131TIP3    H145588   2.728   3.164   3.210  0.3000 -1.1018  0.3222
 7131TIP3    H245589   2.694   3.059   3.107 -0.6575 -0.1385 -0.3755
 7132TIP3   OH245590   4.588   2.152   0.670 -0.4398 -0.1467  0.2773
 7132TIP3    H145591   4.580   2.105   0.753  0.1652 -2.3008 -0.7999
 7132TIP3    H245592   4.677   2.187   0.671  0.3864 -2.1089 -0.3491
 7133TIP3   OH245593   1.077   6.514   1.110  0.9815 -0.6465  0.5494
 7133TIP3    H145594   0.989   6.501   1.146  0.6523 -2.0153 -0.6677
 7133TIP3    H245595   1.069   6.594   1.057  0.2418 -1.2015 -0.2051
 7134TIP3   OH245596   7.277   0.526   2.442  0.2724  0.0830  0.7329
 7134TIP3    H145597   7.365   0.489   2.446  0.8216  0.5787 -2.8789
 7134TIP3    H245598   7.290   0.619   2.421 -1.0803  0.2564  0.5041
 7135TIP3   OH245599   7.241   5.389   2.044  0.3423 -0.3281  0.0351
 7135TIP3    H145600   7.335   5.403   2.039  0.2939  0.0053  0.0879
 7135TIP3    H245601   7.230   5.296   2.021  0.5489 -0.0133 -1.4335
 7136TIP3   OH245602   7.463   0.182   1.941 -0.2584 -0.4996 -0.6350
 7136TIP3    H145603   7.423   0.198   1.856 -1.0392 -2.7866 -0.7560
 7136TIP3    H245604   7.543   0.134   1.922  0.3323  0.2720 -0.1425
 7137TIP3   OH245605   4.775   4.195   2.760 -0.0160  0.5247  0.2489
 7137TIP3    H145606   4.732   4.110   2.746  1.5221 -0.0769 -1.2591
 7137TIP3    H245607   4.852   4.174   2.813  1.1422  0.6913 -1.2940
 7138TIP3   OH245608   7.234   5.928   2.260  0.3394 -0.1433 -0.4219
 7138TIP3    H145609   7.187   5.879   2.192  1.3582  0.3080 -1.4866
 7138TIP3    H245610   7.215   6.020   2.240 -0.1845 -0.0363  0.5378
 7139TIP3   OH245611   4.763   5.608   0.375 -0.3055  0.4928 -0.4103
 7139TIP3    H145612   4.824   5.675   0.405 -0.7723  0.6650  0.1717
 7139TIP3    H245613   4.783   5.597   0.282  0.5214  0.6359 -0.2552
 7140TIP3   OH245614   6.385   2.304   0.901 -0.5815 -0.3144 -0.7307
 7140TIP3    H145615   6.376   2.346   0.987  3.9462  1.6132 -0.9255
 7140TIP3    H245616   6.365   2.373   0.838 -1.4033 -0.9890 -1.2323
 7141TIP3   OH245617   6.141   1.668   2.554 -0.3248  0.1234 -0.2529
 7141TIP3    H145618   6.190   1.740   2.515 -1.5230  1.8245  1.2665
 7141TIP3    H245619   6.193   1.642   2.630  0.5327 -1.2667 -1.2457
 7142TIP3   OH245620   0.232   0.099   1.550  0.3677  1.0730  0.2683
 7142TIP3    H145621   0.320   0.059   1.545 -1.3505 -3.1687 -0.8852
 7142TIP3    H245622   0.207   0.089   1.642 -0.3590 -1.8261 -0.1193
 7143TIP3   OH245623   5.565   1.476   1.966 -0.2002 -0.3069  0.2661
 7143TIP3    H145624   5.641   1.528   1.990  0.8923 -1.9400  0.4970
 7143TIP3    H245625   5.558   1.410   2.034 -2.8191  0.7238  1.1142
 7144TIP3   OH245626   6.948   0.050   1.221 -0.1319  0.5076 -0.0157
 7144TIP3    H145627   7.027   0.083   1.265 -0.7325  0.0568  1.4644
 7144TIP3    H245628   6.901   0.128   1.194 -0.2467  0.8320  1.0825
 7145TIP3   OH245629   4.807   1.103   1.579 -0.4782  0.4486 -0.8709
 7145TIP3    H145630   4.869   1.171   1.606 -0.4757 -0.1666  0.7655
 7145TIP3    H245631   4.720   1.142   1.593 -0.5640 -0.5519  2.3252
 7146TIP3   OH245632   1.365   2.212   2.523 -0.3501 -0.2484  0.2387
 7146TIP3    H145633   1.445   2.257   2.493 -1.1435  0.5591 -0.7426
 7146TIP3    H245634   1.334   2.165   2.446 -1.7174  0.7957  0.1111
 7147TIP3   OH245635   0.765   2.877   0.437  0.4281 -0.7782 -0.6051
 7147TIP3    H145636   0.782   2.783   0.428  0.4110 -0.8920  0.4262
 7147TIP3    H245637   0.688   2.883   0.493  1.6803 -0.1473  1.1668
 7148TIP3   OH245638   0.746   4.209   1.481 -0.4182 -0.2552 -0.0532
 7148TIP3    H145639   0.653   4.223   1.497 -0.3415  0.1104  0.1067
 7148TIP3    H245640   0.780   4.297   1.464 -0.1899 -0.4456 -0.5752
 7149TIP3   OH245641   1.222   6.362   1.421  0.5418  0.1508 -0.1264
 7149TIP3    H145642   1.290   6.325   1.478  0.7940 -0.3347 -0.7301
 7149TIP3    H245643   1.239   6.323   1.336 -1.6661 -1.5335  0.1172
 7150TIP3   OH245644   5.674   0.341   0.459  0.1691 -0.1292 -0.2724
 7150TIP3    H145645   5.694   0.418   0.406  1.9694 -0.4004 -0.0713
 7150TIP3    H245646   5.755   0.290   0.458 -0.2731 -0.9394  1.3993
 7151TIP3   OH245647   6.062   0.577   2.257 -0.1774 -0.1459 -0.0007
 7151TIP3    H145648   5.976   0.564   2.217 -0.8031  0.8157  0.9598
 7151TIP3    H245649   6.053   0.660   2.305  1.6371  0.5356 -0.7943
 7152TIP3   OH245650   6.376   2.355   1.178 -0.1670  0.5566 -0.4608
 7152TIP3    H145651   6.406   2.441   1.205 -1.0831  0.1283  2.1256
 7152TIP3    H245652   6.449   2.296   1.200 -0.3417  0.4017 -0.2896
 7153TIP3   OH245653   2.826   7.247   2.042 -0.3924 -0.2124 -0.3501
 7153TIP3    H145654   2.881   7.299   2.101 -0.5917 -0.9543  0.5102
 7153TIP3    H245655   2.752   7.304   2.020 -2.3427 -1.1339  3.1698
 7154TIP3   OH245656   4.792   0.600   2.469  0.1406 -0.1685  0.1072
 7154TIP3    H145657   4.793   0.673   2.406  0.8118  0.2751  0.6196
 7154TIP3    H245658   4.706   0.606   2.511  0.9477  1.6849  1.6703
 7155TIP3   OH245659   0.213   2.028   0.936 -0.5866  0.0262 -0.2000
 7155TIP3    H145660   0.200   1.943   0.978  0.4870 -0.2022 -0.3052
 7155TIP3    H245661   0.224   2.007   0.843  2.0218 -0.0019  0.0411
 7156TIP3   OH245662   3.489   5.051   2.291 -0.0955  0.0345 -0.3955
 7156TIP3    H145663   3.524   5.028   2.205 -0.2754  1.5113 -0.8870
 7156TIP3    H245664   3.410   5.102   2.272 -0.9952 -0.9159  0.6721
 7157TIP3   OH245665   7.007   1.068   2.331  0.0636  0.0978 -0.1229
 7157TIP3    H145666   6.938   1.024   2.282  0.9092 -1.9122  0.3847
 7157TIP3    H245667   7.053   1.120   2.266 -0.8282  0.0744 -0.8030
 7158TIP3   OH245668   3.397   6.452   0.739 -0.6007 -0.6481 -0.4740
 7158TIP3    H145669   3.331   6.497   0.686 -1.1987  0.3530  1.0428
 7158TIP3    H245670   3.475   6.449   0.684 -1.4421 -0.3925 -1.6991
 7159TIP3   OH245671   4.045   6.301   2.003  0.2516 -0.0042 -0.8338
 7159TIP3    H145672   4.107   6.363   1.966  1.7649 -1.7908 -1.4898
 7159TIP3    H245673   3.978   6.355   2.044  2.4002  2.0590  0.2007
 7160TIP3   OH245674   3.905   6.764   2.279 -0.0755 -0.4949 -0.1471
 7160TIP3    H145675   3.945   6.851   2.290  0.2330 -0.7018  0.4432
 7160TIP3    H245676   3.926   6.739   2.190  0.3754 -0.2237 -0.1202
 7161TIP3   OH245677   4.844   5.107   1.347 -0.2811  0.0305 -0.4735
 7161TIP3    H145678   4.918   5.046   1.348  0.4426  0.9082 -0.0184
 7161TIP3    H245679   4.838   5.136   1.257  1.0260  1.2615 -0.1869
 7162TIP3   OH245680   3.809   7.479   1.182  0.0220  0.1528  0.4324
 7162TIP3    H145681   3.856   7.410   1.228 -0.5176  0.2563  1.1529
 7162TIP3    H245682   3.813   7.454   1.090  0.7296 -0.2869  0.5773
 7163TIP3   OH245683   5.100   1.396   3.083 -0.1405  0.0328 -1.0841
 7163TIP3    H145684   5.185   1.424   3.048 -0.9571  0.2934 -2.9918
 7163TIP3    H245685   5.093   1.304   3.059  0.0382 -0.2741  0.0055
 7164TIP3   OH245686   2.998   7.112   1.377 -0.1191 -0.7923  0.3934
 7164TIP3    H145687   2.921   7.118   1.433  0.2780 -1.2902  1.0034
 7164TIP3    H245688   3.072   7.102   1.437  0.5269  0.4027 -0.1467
 7165TIP3   OH245689   1.033   6.260   0.935  0.1642  0.4981 -0.0058
 7165TIP3    H145690   1.038   6.165   0.921  1.9066  0.4101  0.8339
 7165TIP3    H245691   0.953   6.287   0.890 -0.8635 -1.4990  0.4815
 7166TIP3   OH245692   0.049   4.707   2.214 -0.2395 -0.0746 -0.2196
 7166TIP3    H145693   0.045   4.629   2.159  1.2659 -1.1499  1.0944
 7166TIP3    H245694  -0.016   4.691   2.283 -0.5136  0.2308 -0.4024
 7167TIP3   OH245695   4.258   4.401   3.244  0.1126 -0.5985 -0.4616
 7167TIP3    H145696   4.237   4.313   3.275  0.3108 -0.5081 -0.0731
 7167TIP3    H245697   4.353   4.406   3.248  0.1391 -0.5780 -1.0583
 7168TIP3   OH245698   1.683   1.961   1.599 -0.5917  0.3005  0.1486
 7168TIP3    H145699   1.736   2.001   1.530  1.6819 -0.5776  1.2792
 7168TIP3    H245700   1.706   2.009   1.678 -0.2373 -1.1300  0.9528
 7169TIP3   OH245701   1.871   6.902   1.794  0.2166 -0.0202 -0.0577
 7169TIP3    H145702   1.786   6.945   1.793  0.1414 -0.1678 -1.0566
 7169TIP3    H245703   1.910   6.927   1.878 -0.1033  1.4415 -0.3133
 7170TIP3   OH245704   5.891   6.261   0.424  0.2804  0.6720 -0.3947
 7170TIP3    H145705   5.919   6.352   0.417 -0.5879  1.1484  1.5661
 7170TIP3    H245706   5.796   6.265   0.423  0.2301 -0.1515  0.1247
 7171TIP3   OH245707   0.415   4.546   0.943 -0.2821  0.6453 -0.4349
 7171TIP3    H145708   0.447   4.458   0.965 -0.5767 -0.1220 -2.7464
 7171TIP3    H245709   0.346   4.564   1.006  0.4094 -0.3888  0.6473
 7172TIP3   OH245710   3.669   1.425   2.109 -0.5274 -0.5622 -0.6091
 7172TIP3    H145711   3.677   1.468   2.194 -1.3009 -0.7250 -0.4456
 7172TIP3    H245712   3.618   1.346   2.127 -0.6987 -0.5962 -1.2282
 7173TIP3   OH245713   5.386   6.308   0.667  0.0560  0.0703  0.3535
 7173TIP3    H145714   5.380   6.386   0.723 -0.2023 -0.5743  1.2614
 7173TIP3    H245715   5.377   6.235   0.728  4.5185 -0.8736  0.2490
 7174TIP3   OH245716   1.283   2.577   1.292 -0.1097 -0.3028  0.0768
 7174TIP3    H145717   1.270   2.672   1.291 -0.6474 -0.3530  1.0503
 7174TIP3    H245718   1.376   2.566   1.311 -0.2981  0.0467  1.3503
 7175TIP3   OH245719   0.174   4.295   1.182  0.4323 -0.1136  0.0990
 7175TIP3    H145720   0.207   4.280   1.094  0.0505  1.2929 -0.3198
 7175TIP3    H245721   0.132   4.213   1.206  1.5532 -0.9063 -0.5571
 7176TIP3   OH245722   5.796   6.218   0.915 -0.1382 -0.0315 -0.0147
 7176TIP3    H145723   5.750   6.180   0.840 -0.7013  0.0248  0.2986
 7176TIP3    H245724   5.884   6.237   0.882 -0.3097 -0.2241 -0.5942
 7177TIP3   OH245725   1.408   5.405   2.280 -0.7731 -0.2726 -0.4037
 7177TIP3    H145726   1.479   5.359   2.325 -1.5070  0.9777  2.2143
 7177TIP3    H245727   1.452   5.456   2.212  0.5476 -1.3181 -0.3859
 7178TIP3   OH245728   5.002   7.017   2.271  0.4025 -0.2564 -0.1501
 7178TIP3    H145729   5.063   7.022   2.197 -0.1169 -0.8891 -0.6235
 7178TIP3    H245730   5.001   6.924   2.295  2.0462  0.1716  1.9190
 7179TIP3   OH245731   4.612   3.117   1.874  0.6794 -0.2073 -0.4507
 7179TIP3    H145732   4.533   3.108   1.820  0.9585  0.1327 -0.9255
 7179TIP3    H245733   4.652   3.031   1.873  0.4651 -0.3084 -0.4419
 7180TIP3   OH245734   0.635   0.180   0.758  0.3904 -0.0298 -0.4325
 7180TIP3    H145735   0.578   0.113   0.720  0.9215 -0.5540 -0.3068
 7180TIP3    H245736   0.648   0.244   0.687  0.5800 -0.5004 -0.8242
 7181TIP3   OH245737   0.167   0.072   1.286 -0.3426 -0.4627 -0.1076
 7181TIP3    H145738   0.114  -0.006   1.267 -2.5729  0.7280  0.7844
 7181TIP3    H245739   0.172   0.075   1.381 -2.2613  1.6156  0.0146
 7182TIP3   OH245740   4.288   6.777   2.915 -0.4953  0.5637  0.0902
 7182TIP3    H145741   4.334   6.756   2.996  1.9060  3.5175 -0.3199
 7182TIP3    H245742   4.198   6.795   2.942 -0.0500  0.2833  1.8784
 7183TIP3   OH245743   3.829   6.699   3.155 -0.2103 -0.3493  0.2472
 7183TIP3    H145744   3.869   6.621   3.115  3.3762  0.5642  1.6243
 7183TIP3    H245745   3.769   6.731   3.088  0.7173 -2.4259 -1.7557
 7184TIP3   OH245746   1.369   3.816   0.372  0.4590 -0.4616  0.3812
 7184TIP3    H145747   1.341   3.907   0.367 -0.1088 -0.6965 -1.2186
 7184TIP3    H245748   1.297   3.766   0.332  0.1484 -1.7800  2.3917
 7185TIP3   OH245749   4.421   2.855   1.687  0.1180  0.2339  0.1445
 7185TIP3    H145750   4.490   2.912   1.654  0.5408 -0.7579 -0.7476
 7185TIP3    H245751   4.342   2.885   1.643  0.3793  0.0149 -0.4941
 7186TIP3   OH245752   6.284   6.719   2.709 -0.0651 -0.5478  0.1233
 7186TIP3    H145753   6.295   6.675   2.793  2.9509 -0.6060 -0.2012
 7186TIP3    H245754   6.345   6.793   2.713 -0.5308 -0.0261 -1.6713
 7187TIP3   OH245755   3.541   2.911   1.665 -1.0398  0.0726  0.2056
 7187TIP3    H145756   3.550   2.824   1.625 -1.4842  0.0330  0.1959
 7187TIP3    H245757   3.542   2.972   1.591 -0.2345  0.1165  0.2416
 7188TIP3   OH245758   7.402   6.271   2.069 -0.6310 -0.4044  0.1401
 7188TIP3    H145759   7.355   6.194   2.036 -0.0630 -1.3643  1.4607
 7188TIP3    H245760   7.418   6.251   2.161  0.8893  0.6178  0.1278
 7189TIP3   OH245761   6.984   1.419   2.440 -0.1269  0.8277  0.3425
 7189TIP3    H145762   7.013   1.483   2.505 -0.3309 -0.3025  1.5970
 7189TIP3    H245763   7.021   1.336   2.470 -0.9240  0.1335 -0.5328
 7190TIP3   OH245764   5.950   1.421   1.044 -0.6135  0.1440  0.3799
 7190TIP3    H145765   5.949   1.372   0.962 -0.8750  2.1494 -0.8721
 7190TIP3    H245766   5.859   1.419   1.074 -0.4216 -1.0448  0.9407
 7191TIP3   OH245767   3.262   2.574   2.478 -0.8194  0.1354 -0.0479
 7191TIP3    H145768   3.191   2.638   2.467 -0.3049  0.5152 -1.2434
 7191TIP3    H245769   3.238   2.501   2.420 -0.6774 -0.1307  0.2262
 7192TIP3   OH245770   6.718   7.303   2.566 -0.3534 -0.3890  0.7471
 7192TIP3    H145771   6.748   7.349   2.487  2.2592  0.4864  2.1184
 7192TIP3    H245772   6.723   7.370   2.635 -2.8067 -1.0601  1.6936
 7193TIP3   OH245773   3.377   5.997   0.562  0.1555 -1.1600  0.6340
 7193TIP3    H145774   3.376   5.902   0.549  0.4907 -1.1124  0.2091
 7193TIP3    H245775   3.460   6.025   0.522 -0.1563 -0.6377  0.3526
 7194TIP3   OH245776   3.272   3.015   2.182 -0.1810  0.3786  0.0857
 7194TIP3    H145777   3.299   2.931   2.217  0.0867 -0.0746 -1.1674
 7194TIP3    H245778   3.277   3.005   2.087  1.5005  2.3044 -0.1213
 7195TIP3   OH245779   6.402   3.744   1.496 -0.5175 -0.3950 -0.3615
 7195TIP3    H145780   6.374   3.746   1.404  1.2374 -0.9923 -0.9375
 7195TIP3    H245781   6.471   3.810   1.501 -0.8763 -0.0816  0.6558
 7196TIP3   OH245782   2.240   4.971   0.755 -0.0957  0.9459  0.0316
 7196TIP3    H145783   2.205   4.899   0.808 -0.0348  1.1671  0.3753
 7196TIP3    H245784   2.326   4.941   0.726 -0.5292  0.4276 -0.7555
 7197TIP3   OH245785   7.068   2.854   3.479 -0.1767 -0.2894  0.4948
 7197TIP3    H145786   7.097   2.938   3.443  1.4265 -1.4324 -1.1082
 7197TIP3    H245787   7.148   2.817   3.517 -0.8513 -1.1068  1.1279
 7198TIP3   OH245788   3.362   5.795   1.244 -0.3879 -0.0100  0.0345
 7198TIP3    H145789   3.456   5.806   1.229 -0.3657 -0.1535  0.0658
 7198TIP3    H245790   3.357   5.733   1.317 -0.5301 -1.7899 -1.3977
 7199TIP3   OH245791   7.112   3.255   2.133 -0.3875 -0.3366 -0.0527
 7199TIP3    H145792   7.070   3.192   2.192 -0.4115 -0.4442 -0.1853
 7199TIP3    H245793   7.056   3.257   2.056  0.4247 -1.2935 -0.6865
 7200TIP3   OH245794   7.486   1.297   1.074 -0.2086 -0.5559 -0.5100
 7200TIP3    H145795   7.465   1.311   1.166  0.5367 -0.9476 -0.2699
 7200TIP3    H245796   7.553   1.363   1.054 -0.4089 -0.4344 -0.7881
 7201TIP3   OH245797   3.337   7.356   2.098 -0.1605  0.0283  0.3084
 7201TIP3    H145798   3.389   7.279   2.118 -0.4090 -0.2599 -0.1256
 7201TIP3    H245799   3.311   7.391   2.183  1.0021  0.3709  0.5399
 7202TIP3   OH245800   4.771   1.217   1.039  0.5655  0.1417  0.5719
 7202TIP3    H145801   4.834   1.282   1.071 -0.4275  0.2905  2.3523
 7202TIP3    H245802   4.743   1.170   1.118  0.3236 -1.6291 -0.5195
 7203TIP3   OH245803   5.765   0.983   0.818 -0.1823  0.1726  0.0140
 7203TIP3    H145804   5.811   0.954   0.897 -0.3651  0.4826  0.2394
 7203TIP3    H245805   5.707   0.910   0.795  0.2116 -0.1012 -0.1025
 7204TIP3   OH245806   0.363   5.029   0.807  0.5258  0.7877 -0.1929
 7204TIP3    H145807   0.350   5.005   0.898  0.2115 -1.0983 -0.6831
 7204TIP3    H245808   0.379   4.946   0.762 -0.5428  1.5053 -2.0424
 7205TIP3   OH245809   7.340   2.339   2.074  0.1950 -0.8372  0.4913
 7205TIP3    H145810   7.365   2.423   2.112  1.0168 -1.8223  2.2910
 7205TIP3    H245811   7.288   2.361   1.997 -2.1908  1.3858  2.5161
 7206TIP3   OH245812   3.998   5.673   0.376 -0.0242  0.7867  0.1737
 7206TIP3    H145813   4.009   5.583   0.407  1.3560  0.3092 -1.5370
 7206TIP3    H245814   3.906   5.679   0.352  0.0541 -0.4541 -0.5072
 7207TIP3   OH245815   7.428   3.581   1.452  0.4367  0.5884 -0.1021
 7207TIP3    H145816   7.435   3.626   1.536  1.4930  2.3373 -1.0555
 7207TIP3    H245817   7.383   3.499   1.472 -1.1711  1.8402  1.8291
 7208TIP3   OH245818   6.601   2.734   2.065 -0.1303 -0.1918 -0.0574
 7208TIP3    H145819   6.646   2.716   2.148  0.6222 -1.7873 -0.7636
 7208TIP3    H245820   6.671   2.763   2.007 -0.6086  0.6301 -0.2263
 7209TIP3   OH245821   3.411   3.365   0.583 -0.7571  0.2335  0.3416
 7209TIP3    H145822   3.503   3.366   0.610 -0.3317  1.4867 -1.0604
 7209TIP3    H245823   3.373   3.442   0.625 -0.9035  0.3238  0.0421
 7210TIP3   OH245824   1.985   5.237   2.077 -0.0942  0.5134 -0.3659
 7210TIP3    H145825   2.069   5.197   2.100  0.0592  0.7271 -0.5522
 7210TIP3    H245826   1.952   5.183   2.006  0.1604  0.7782 -0.6854
 7211TIP3   OH245827   5.701   6.527   2.522 -0.0384 -0.2412  0.1344
 7211TIP3    H145828   5.691   6.600   2.584 -0.6266  0.4993 -0.8094
 7211TIP3    H245829   5.613   6.512   2.488  0.1095 -1.3005  0.1984
 7212TIP3   OH245830   2.570   3.502   1.686 -0.3415  0.1813  0.3049
 7212TIP3    H145831   2.574   3.409   1.662 -1.3173  0.5273 -1.3378
 7212TIP3    H245832   2.487   3.510   1.733 -1.1601  0.5141 -1.1273
 7213TIP3   OH245833   5.392   2.412   2.435 -0.2360  0.3906  0.0660
 7213TIP3    H145834   5.394   2.371   2.349  0.0087  1.8106 -0.6195
 7213TIP3    H245835   5.465   2.473   2.434 -0.6588  0.9274  1.0345
 7214TIP3   OH245836   0.163   3.099   0.473 -0.3048  0.0701  0.9120
 7214TIP3    H145837   0.192   3.058   0.391  0.4273 -0.3170  1.3523
 7214TIP3    H245838   0.151   3.026   0.533  1.6485  0.4828  1.9123
 7215TIP3   OH245839   2.830   3.715   2.044 -1.0187 -0.6942 -0.1857
 7215TIP3    H145840   2.820   3.644   2.107  0.4205 -1.0362 -0.3013
 7215TIP3    H245841   2.811   3.675   1.959  0.1290 -1.0606 -0.2896
 7216TIP3   OH245842   4.979   5.255   1.964 -0.5536 -0.2588 -0.4600
 7216TIP3    H145843   4.935   5.208   1.893  1.2996 -1.7814 -0.6790
 7216TIP3    H245844   5.069   5.225   1.960  0.3070  1.9888  0.5999
 7217TIP3   OH245845   0.924   2.677   1.459  0.6024 -0.3137  0.1338
 7217TIP3    H145846   0.867   2.615   1.414  0.4786  0.6901 -1.1687
 7217TIP3    H245847   0.903   2.666   1.552 -0.6330 -1.0210 -0.2034
 7218TIP3   OH245848   0.157   4.787   1.269 -0.3554  0.3229  0.1138
 7218TIP3    H145849   0.140   4.724   1.199  0.1908 -0.8716  1.0109
 7218TIP3    H245850   0.251   4.781   1.284 -0.6065 -0.2997  1.6836
 7219TIP3   OH245851   5.513   7.153   1.026  0.7138 -0.1114  0.0677
 7219TIP3    H145852   5.483   7.073   0.983  0.7014 -0.0846  0.0259
 7219TIP3    H245853   5.606   7.138   1.042  0.3861 -0.7643  1.4880
 7220TIP3   OH245854   5.477   6.108   1.364  0.6585  0.1946  0.0285
 7220TIP3    H145855   5.517   6.033   1.408  0.2270 -0.2376 -0.2835
 7220TIP3    H245856   5.469   6.079   1.273 -1.3748 -0.1944  0.2850
 7221TIP3   OH245857   7.065   0.808   2.423 -0.3134  0.4117 -0.0619
 7221TIP3    H145858   7.049   0.898   2.394 -0.3708  0.2411 -0.5743
 7221TIP3    H245859   7.160   0.797   2.418 -0.4809 -0.5519 -3.1374
 7222TIP3   OH245860   5.303   5.727   1.387  0.2427 -0.1155  0.1719
 7222TIP3    H145861   5.270   5.640   1.363 -0.1289  0.2682 -0.7511
 7222TIP3    H245862   5.227   5.784   1.379  0.3119  0.1828  1.4809
 7223TIP3   OH245863   4.063   5.374   1.649 -0.5300 -0.2976  0.1218
 7223TIP3    H145864   4.109   5.311   1.703 -1.0310 -1.8997 -1.2200
 7223TIP3    H245865   4.051   5.451   1.705 -0.9332 -1.8152  2.2030
 7224TIP3   OH245866   1.369   2.667   3.249  0.4969 -0.1938 -0.5652
 7224TIP3    H145867   1.305   2.680   3.318 -0.0513 -0.4783 -1.0145
 7224TIP3    H245868   1.448   2.712   3.280  0.9709 -2.1113  1.2174
 7225TIP3   OH245869   4.753   7.553   2.349 -0.0274 -0.3163 -0.8225
 7225TIP3    H145870   4.680   7.584   2.404 -0.4776 -1.3139 -0.8317
 7225TIP3    H245871   4.831   7.569   2.402 -0.2281  0.8735 -0.8542
 7226TIP3   OH245872   0.730   1.725   0.759 -0.1006  0.4638 -0.7251
 7226TIP3    H145873   0.808   1.733   0.814 -0.6937  1.4383 -0.0047
 7226TIP3    H245874   0.708   1.815   0.735 -0.7551  0.1647 -1.2723
 7227TIP3   OH245875   1.906   4.094   0.745  0.3010  0.0983  0.1724
 7227TIP3    H145876   1.974   4.159   0.727  2.2029 -1.8468 -0.0270
 7227TIP3    H245877   1.918   4.070   0.836  0.8289 -1.2679 -0.2354
 7228TIP3   OH245878   6.402   0.719   1.494  0.6603 -0.3764 -0.3565
 7228TIP3    H145879   6.492   0.748   1.505  1.6250 -3.3018  0.3423
 7228TIP3    H245880   6.399   0.680   1.406 -0.2905  0.7672 -0.8607
 7229TIP3   OH245881   7.091   1.958   2.165  0.1458 -0.7256  0.4084
 7229TIP3    H145882   7.155   1.933   2.098 -0.3010 -0.4494 -0.1394
 7229TIP3    H245883   7.014   1.985   2.114 -0.0388 -0.0725  1.0223
 7230TIP3   OH245884   3.730   1.706   1.307 -0.8273  0.1743 -0.1542
 7230TIP3    H145885   3.771   1.726   1.222  1.8404  1.7062  1.3765
 7230TIP3    H245886   3.763   1.618   1.329 -0.1692  0.4622  0.0311
 7231TIP3   OH245887   4.461   6.665   2.349 -0.4964 -0.0597  0.3067
 7231TIP3    H145888   4.492   6.726   2.417  0.1494 -0.2600  0.2011
 7231TIP3    H245889   4.532   6.602   2.341 -0.3195  0.2829 -0.9526
 7232TIP3   OH245890   4.854   1.668   0.898  0.5451 -0.0634 -0.2803
 7232TIP3    H145891   4.945   1.644   0.919  0.4589  1.1822  1.8703
 7232TIP3    H245892   4.804   1.635   0.972 -0.3917  1.4032 -0.2302
 7233TIP3   OH245893   3.952   4.690   2.383 -0.1887  0.2860 -0.5029
 7233TIP3    H145894   4.017   4.621   2.398 -1.9263 -1.7116 -1.6755
 7233TIP3    H245895   3.988   4.740   2.310 -0.0679 -1.0137 -1.3785
 7234TIP3   OH245896   2.327   6.506   2.305 -0.3546  0.0556 -0.0984
 7234TIP3    H145897   2.347   6.574   2.240  0.5693  0.3374  0.4678
 7234TIP3    H245898   2.326   6.553   2.389 -1.0942 -0.3872  0.1501
 7235TIP3   OH245899   2.633   5.226   1.572 -0.0987 -0.3889  0.5890
 7235TIP3    H145900   2.605   5.265   1.654  2.2530  0.8137  0.9143
 7235TIP3    H245901   2.621   5.132   1.584 -2.0815 -0.0860  1.3292
 7236TIP3   OH245902   0.883   3.436   2.917  0.0311 -0.0900  0.5600
 7236TIP3    H145903   0.861   3.521   2.878  0.6190  1.1021  2.6605
 7236TIP3    H245904   0.803   3.408   2.961  0.2654  0.1231  1.1290
 7237TIP3   OH245905   7.391   7.169   1.173 -0.0610  0.1795 -0.2954
 7237TIP3    H145906   7.398   7.151   1.079 -1.5696  0.8380 -0.5640
 7237TIP3    H245907   7.321   7.234   1.179 -0.4776 -0.3895  1.3426
 7238TIP3   OH245908   1.504   6.396   1.197  0.1758 -0.1537 -0.0556
 7238TIP3    H145909   1.479   6.327   1.258 -0.6744 -0.7118 -1.0089
 7238TIP3    H245910   1.524   6.471   1.253  0.8605 -1.0789  0.9849
 7239TIP3   OH245911   3.223   7.020   2.726  0.1832  0.2299 -0.4134
 7239TIP3    H145912   3.302   7.041   2.677  1.4348 -2.2806  0.3602
 7239TIP3    H245913   3.253   7.008   2.816 -1.2029 -0.0949  0.0294
 7240TIP3   OH245914   3.921   5.935   2.379 -0.1931  0.0661 -0.7089
 7240TIP3    H145915   3.925   5.841   2.394 -2.2456  0.0808  0.2127
 7240TIP3    H245916   3.908   5.943   2.284  0.4047 -0.5282 -0.8552
 7241TIP3   OH245917   2.131   3.813   0.902  0.1386 -0.1234  0.0083
 7241TIP3    H145918   2.141   3.907   0.914  0.0293 -0.0971 -0.1062
 7241TIP3    H245919   2.219   3.783   0.877 -0.0674  0.1235 -1.0900
 7242TIP3   OH245920   0.618   5.280   3.086  0.5188 -0.2448 -0.2985
 7242TIP3    H145921   0.607   5.305   3.178 -0.9063  0.6504 -0.6738
 7242TIP3    H245922   0.619   5.185   3.086 -0.6457 -0.2714  0.5517
 7243TIP3   OH245923   4.993   7.253   1.426  0.2749  0.1176 -0.1646
 7243TIP3    H145924   4.904   7.263   1.392 -0.1257  1.8302  1.2637
 7243TIP3    H245925   4.988   7.286   1.516  2.8277  2.5330 -0.7761
 7244TIP3   OH245926   3.738   3.453   2.115  0.2251 -0.1001 -0.3211
 7244TIP3    H145927   3.734   3.360   2.134  2.6956 -0.2286 -0.1643
 7244TIP3    H245928   3.820   3.483   2.154 -0.8596  2.3308  0.3421
 7245TIP3   OH245929   7.509   4.586   1.470  0.1007  0.0603  0.0162
 7245TIP3    H145930   7.593   4.579   1.515  0.0782 -0.7613 -0.0528
 7245TIP3    H245931   7.520   4.660   1.410  0.8255 -0.1302 -0.0949
 7246TIP3   OH245932   7.087   1.431   0.500 -0.9177  0.5104  0.1546
 7246TIP3    H145933   7.157   1.366   0.503  0.3670  1.8568  0.6229
 7246TIP3    H245934   7.026   1.397   0.435  0.5401 -0.3707 -0.8241
 7247TIP3   OH245935   6.717   0.822   0.933  0.2631  0.4082 -0.4426
 7247TIP3    H145936   6.677   0.788   1.013  0.7045 -0.4494 -0.5690
 7247TIP3    H245937   6.725   0.916   0.948  1.3112  0.1314  0.9713
 7248TIP3   OH245938   0.630   1.552   1.849 -0.1798 -0.3034  0.1012
 7248TIP3    H145939   0.703   1.557   1.911  0.4945  0.0607 -0.6865
 7248TIP3    H245940   0.673   1.536   1.764 -1.0505 -0.4676 -0.3159
 7249TIP3   OH245941   7.469   5.150   1.376  0.3988 -0.0616 -0.1449
 7249TIP3    H145942   7.563   5.164   1.362  0.2951  0.4715 -0.3373
 7249TIP3    H245943   7.429   5.164   1.290  0.1154 -0.0020 -0.0052
 7250TIP3   OH245944   2.981   3.636   2.442 -0.9878  0.4105  0.3639
 7250TIP3    H145945   3.019   3.550   2.463  0.2492  0.9353  0.3920
 7250TIP3    H245946   2.941   3.624   2.356  1.5447  0.4455 -0.9191
 7251TIP3   OH245947   6.980   6.251   2.167 -0.0630  0.0296  0.1629
 7251TIP3    H145948   6.954   6.258   2.259  0.8818  0.3917  0.4147
 7251TIP3    H245949   7.041   6.324   2.154  1.2184 -1.0811 -0.2600
 7252TIP3   OH245950   6.364   0.270   0.354 -0.4010  0.0952 -0.0661
 7252TIP3    H145951   6.369   0.293   0.446  0.9077  2.2484 -0.6227
 7252TIP3    H245952   6.301   0.332   0.317  0.2885  0.3204 -0.8987
 7253TIP3   OH245953   6.323   1.236   2.249 -0.2461  0.3210 -0.2270
 7253TIP3    H145954   6.335   1.141   2.260  1.0774  0.5122  0.2035
 7253TIP3    H245955   6.270   1.245   2.171 -0.5048 -0.7879 -0.1955
 7254TIP3   OH245956   0.541   2.599   2.261  0.0426  0.0459 -0.1375
 7254TIP3    H145957   0.546   2.639   2.347  1.8830  0.0869 -0.2309
 7254TIP3    H245958   0.600   2.523   2.266  0.9073  0.5823 -1.6051
 7255TIP3   OH245959   5.822   3.914   2.017  0.2551 -0.7441  0.0876
 7255TIP3    H145960   5.812   3.964   2.098  1.2333 -1.2370  0.5418
 7255TIP3    H245961   5.915   3.925   1.994 -0.1202 -0.1878 -1.2623
 7256TIP3   OH245962   5.545   1.850   1.347 -0.0016 -0.1244 -0.1988
 7256TIP3    H145963   5.613   1.783   1.358  0.9786  0.8611 -0.0248
 7256TIP3    H245964   5.531   1.855   1.253  0.8409  0.2830 -0.3173
 7257TIP3   OH245965   3.592   2.995   2.147  0.1437 -0.1608 -0.0514
 7257TIP3    H145966   3.665   3.020   2.090 -0.7117  2.4471 -0.1555
 7257TIP3    H245967   3.631   2.990   2.235  0.7860 -0.6972 -0.3577
 7258TIP3   OH245968   4.019   5.891   1.045 -0.2727 -0.1304  0.2022
 7258TIP3    H145969   3.946   5.946   1.018 -0.1909 -0.2368 -0.2459
 7258TIP3    H245970   4.095   5.927   1.000  0.1030  0.4570  1.2689
 7259TIP3   OH245971   6.068   6.772   1.853 -0.5002  0.2412 -0.0919
 7259TIP3    H145972   5.987   6.763   1.802 -0.8447 -1.3881  0.7046
 7259TIP3    H245973   6.042   6.824   1.929 -0.5475  0.5570 -0.3167
 7260TIP3   OH245974   2.862   6.035   2.786  0.8557  0.0800  0.3712
 7260TIP3    H145975   2.950   6.033   2.749  1.2196  0.8405  1.1505
 7260TIP3    H245976   2.839   5.943   2.799  1.7612 -0.1210  0.6674
 7261TIP3   OH245977   5.107   1.952   1.041 -0.1834  0.2955  0.2606
 7261TIP3    H145978   5.116   1.877   1.100 -1.3268  0.1382  0.2565
 7261TIP3    H245979   5.145   1.922   0.959 -1.6135 -0.6978 -0.0780
 7262TIP3   OH245980   3.539   1.006   2.456 -0.0504 -0.1527  0.1860
 7262TIP3    H145981   3.534   0.978   2.547 -2.0911  0.7903  0.4150
 7262TIP3    H245982   3.598   0.942   2.414  0.9209 -0.6040  2.1258
 7263TIP3   OH245983   5.801   0.510   2.486 -0.0855 -0.3833  0.3211
 7263TIP3    H145984   5.796   0.519   2.390 -0.8691 -0.6986  0.3319
 7263TIP3    H245985   5.818   0.417   2.500 -2.0225 -0.7443  0.5399
 7264TIP3   OH245986   4.227   4.917   1.039 -0.7922 -0.1415  0.1547
 7264TIP3    H145987   4.277   4.836   1.028 -0.8938 -0.4974  1.9346
 7264TIP3    H245988   4.164   4.917   0.967 -0.2230 -1.2137 -0.3606
 7265TIP3   OH245989   3.816   4.630   9.296  0.2932 -0.3392  0.1611
 7265TIP3    H145990   3.760   4.708   9.302 -0.6562 -0.9303 -0.7098
 7265TIP3    H245991   3.883   4.644   9.362  0.0034  1.1114  0.1890
 7266TIP3   OH245992   5.261   3.479   1.351  0.1121  0.0418  0.1112
 7266TIP3    H145993   5.330   3.499   1.414  0.5843 -3.2913  0.8521
 7266TIP3    H245994   5.187   3.450   1.405 -1.0409  1.1942 -0.7729
 7267TIP3   OH245995   4.380   5.291   2.166 -0.1091 -0.1331 -0.4933
 7267TIP3    H145996   4.354   5.217   2.111  1.5189 -0.0777 -1.3881
 7267TIP3    H245997   4.310   5.355   2.155 -0.5435 -0.7384 -1.3137
 7268TIP3   OH245998   5.988   4.571   2.140  0.5557 -0.0096  0.5791
 7268TIP3    H145999   6.002   4.593   2.232  0.1856 -1.0316  0.8947
 7268TIP3    H246000   5.939   4.645   2.104  0.0121  0.0334  1.3984
 7269TIP3   OH246001   5.200   2.843   1.124  0.4180  0.0626  0.2130
 7269TIP3    H146002   5.192   2.902   1.199  1.4247  0.4673  0.0249
 7269TIP3    H246003   5.239   2.897   1.055  1.0811 -0.7380 -0.0581
 7270TIP3   OH246004   5.119   6.464   1.716  0.7091 -0.0037 -0.7024
 7270TIP3    H146005   5.091   6.412   1.641 -0.8036 -1.6473  0.9039
 7270TIP3    H246006   5.039   6.477   1.768  1.8478  0.3030  1.0661
 7271TIP3   OH246007   3.030   2.732   2.374  0.0053 -0.5635  0.0274
 7271TIP3    H146008   2.955   2.733   2.434  0.8317 -3.9453  1.3050
 7271TIP3    H246009   3.085   2.805   2.403 -1.1719 -0.1162  1.2605
 7272TIP3   OH246010   3.341   5.408   1.201  0.2541  0.1663  0.3529
 7272TIP3    H146011   3.425   5.452   1.187 -0.4749  1.4458 -0.2479
 7272TIP3    H246012   3.345   5.330   1.147  1.7877 -0.8473  1.8315
 7273TIP3   OH246013   0.894   4.656   2.320  0.0379  0.0681  0.5936
 7273TIP3    H146014   0.908   4.748   2.298  0.2788  0.0674  0.7492
 7273TIP3    H246015   0.950   4.607   2.259 -0.5835 -0.0079  0.0663
 7274TIP3   OH246016   6.108   2.516   2.174  0.1014 -0.3558 -0.6648
 7274TIP3    H146017   6.039   2.578   2.197  0.5037 -0.0057 -0.3857
 7274TIP3    H246018   6.180   2.571   2.143  1.8355 -0.3159  2.8877
 7275TIP3   OH246019   0.337   3.562   2.547  0.1596 -0.8627 -0.2513
 7275TIP3    H146020   0.260   3.578   2.492  0.6620 -2.2157 -1.3819
 7275TIP3    H246021   0.316   3.481   2.594  0.3617 -0.5294  0.4260
 7276TIP3   OH246022   6.839   4.337   2.022 -0.0745  0.1554  0.6320
 7276TIP3    H146023   6.921   4.366   1.983  0.4654 -2.9209 -0.8174
 7276TIP3    H246024   6.772   4.391   1.981  0.9129  0.0515 -1.2112
 7277TIP3   OH246025   7.032   2.735   0.442  0.2730  0.0829  0.1757
 7277TIP3    H146026   6.983   2.676   0.384  1.3969 -0.6552 -0.0624
 7277TIP3    H246027   6.967   2.768   0.503 -0.7991  0.2925 -1.0454
 7278TIP3   OH246028   2.610   2.758   0.506 -0.4484  0.4042  0.0340
 7278TIP3    H146029   2.560   2.839   0.518  0.4810  1.2637 -1.6120
 7278TIP3    H246030   2.694   2.775   0.549 -0.8024 -0.3139  1.0656
 7279TIP3   OH246031   6.041   1.694   0.653 -0.3858 -0.2731 -0.4995
 7279TIP3    H146032   6.042   1.697   0.748 -0.0867  1.5964 -0.5290
 7279TIP3    H246033   6.092   1.616   0.631 -0.4568 -0.7252  0.8454
 7280TIP3   OH246034   2.747   4.178   0.734 -0.0937  0.5861  0.7117
 7280TIP3    H146035   2.786   4.103   0.780  0.6495 -0.3754 -1.3671
 7280TIP3    H246036   2.663   4.191   0.777 -0.1034 -1.2406  1.3522
 7281TIP3   OH246037   2.643   2.405   2.524 -0.0879  0.2130 -0.4669
 7281TIP3    H146038   2.737   2.390   2.521 -0.3006 -1.2054 -0.7149
 7281TIP3    H246039   2.631   2.471   2.593  1.0649  0.2942 -0.3350
 7282TIP3   OH246040   1.292   2.220   2.795 -0.0535  0.3780  0.0125
 7282TIP3    H146041   1.324   2.222   2.704 -0.4785  1.8740 -0.1327
 7282TIP3    H246042   1.342   2.288   2.839 -0.9296  0.7100  0.5179
 7283TIP3   OH246043   2.495   5.609   1.020  0.9403 -0.4112  0.3900
 7283TIP3    H146044   2.477   5.571   1.106 -1.4762  0.7471  0.4843
 7283TIP3    H246045   2.426   5.674   1.007  1.1617 -0.5792 -2.4587
 7284TIP3   OH246046   0.752   0.384   0.577  0.1001 -0.1540  0.2303
 7284TIP3    H146047   0.796   0.462   0.612 -0.2481  0.1123  0.0786
 7284TIP3    H246048   0.761   0.393   0.482  0.4908 -0.5529  0.2274
 7285TIP3   OH246049   3.533   6.194   1.266 -0.9579 -0.3307  0.0392
 7285TIP3    H146050   3.578   6.264   1.313  0.5355 -0.7480 -0.6827
 7285TIP3    H246051   3.517   6.126   1.332  1.0796 -0.9011  0.0001
 7286TIP3   OH246052   1.719   1.408   2.422  0.2616 -0.2951  0.2905
 7286TIP3    H146053   1.806   1.367   2.424  1.4285  2.0482  1.6419
 7286TIP3    H246054   1.687   1.400   2.512 -0.0350  0.6273  0.2729
 7287TIP3   OH246055   4.385   6.893   1.804  0.2627 -0.2822  0.0742
 7287TIP3    H146056   4.459   6.943   1.839 -0.3213  1.3064 -0.8502
 7287TIP3    H246057   4.425   6.825   1.750  1.0672  0.2082  0.0442
 7288TIP3   OH246058   3.577   1.954   0.469  0.0883  0.4266 -0.2217
 7288TIP3    H146059   3.529   1.872   0.486  1.6139 -0.2814  0.9069
 7288TIP3    H246060   3.642   1.930   0.403  1.0016  0.5290  0.6242
 7289TIP3   OH246061   0.629   3.572   3.319 -0.4659  0.1970 -0.5476
 7289TIP3    H146062   0.717   3.573   3.281 -0.2977  1.1055 -0.1673
 7289TIP3    H246063   0.643   3.553   3.412 -0.5475  1.4811 -0.2498
 7290TIP3   OH246064   0.244   5.187   2.091 -0.6753  0.3410 -0.0073
 7290TIP3    H146065   0.195   5.124   2.142  0.3515 -1.2937 -0.9384
 7290TIP3    H246066   0.302   5.229   2.154  0.1819 -1.2439  0.3154
 7291TIP3   OH246067   5.009   0.542   1.293  0.6443 -0.0123 -0.3377
 7291TIP3    H146068   4.941   0.497   1.243 -0.1993  1.6079 -0.6890
 7291TIP3    H246069   5.040   0.612   1.236  0.8003  0.8696  0.7885
 7292TIP3   OH246070   4.056   1.879   1.375 -0.3807 -0.1856  0.1186
 7292TIP3    H146071   4.130   1.918   1.329  1.1196  0.1400  2.6365
 7292TIP3    H246072   3.983   1.885   1.313  1.4008  0.5384 -2.0194
 7293TIP3   OH246073   4.289   2.316   1.078  0.6229 -0.0142  0.1140
 7293TIP3    H146074   4.287   2.273   1.163 -1.6473 -1.0908 -0.4370
 7293TIP3    H246075   4.328   2.251   1.019  1.3887  0.4083  0.1429
 7294TIP3   OH246076   2.266   1.551   0.851 -0.4702 -0.2735 -0.1564
 7294TIP3    H146077   2.309   1.469   0.826  1.4376  0.9058 -0.9001
 7294TIP3    H246078   2.201   1.524   0.916  1.0325 -2.2133  0.6569
 7295TIP3   OH246079   7.348   6.708   1.580  0.5660 -0.0096  0.1941
 7295TIP3    H146080   7.418   6.643   1.586  0.3084 -0.5543 -1.8755
 7295TIP3    H246081   7.384   6.786   1.622  2.0537 -0.5694  0.0327
 7296TIP3   OH246082   7.159   0.723   0.648  0.0066  0.2157  0.0130
 7296TIP3    H146083   7.106   0.651   0.615 -0.5587  0.8399 -0.4991
 7296TIP3    H246084   7.123   0.742   0.734  1.9956 -1.9341  1.4174
 7297TIP3   OH246085   0.204   7.504   0.909 -0.1201  0.3563 -0.1145
 7297TIP3    H146086   0.203   7.516   0.814  1.1411  0.6569 -0.1106
 7297TIP3    H246087   0.113   7.486   0.932 -0.5197  0.7220 -1.3228
 7298TIP3   OH246088   3.241   1.976   0.474 -0.0130  0.1444 -0.6373
 7298TIP3    H146089   3.269   2.004   0.561 -1.8281 -1.7586  0.6458
 7298TIP3    H246090   3.264   1.883   0.470  0.3361  0.2790 -2.3348
 7299TIP3   OH246091   0.614   0.837   1.553 -0.4104  0.2909  0.0915
 7299TIP3    H146092   0.667   0.876   1.483 -1.4052  1.8440  0.1470
 7299TIP3    H246093   0.533   0.812   1.509  0.4320 -2.4459 -0.0806
 7300TIP3   OH246094   5.137   1.651   0.592  0.4213 -0.1949 -0.6832
 7300TIP3    H146095   5.217   1.655   0.539  0.1885  1.6679 -0.9615
 7300TIP3    H246096   5.107   1.561   0.583  0.3104  0.0607 -3.8891
 7301TIP3   OH246097   4.013   3.303   2.657 -0.4710 -0.2012  0.6984
 7301TIP3    H146098   4.103   3.287   2.685 -0.2842  2.0879  1.6675
 7301TIP3    H246099   3.983   3.219   2.622  1.6422 -1.3281  1.4113
 7302TIP3   OH246100   1.580   1.294   2.207  0.5420  0.4550 -0.0899
 7302TIP3    H146101   1.591   1.199   2.207 -0.4688  0.2797  2.0704
 7302TIP3    H246102   1.622   1.323   2.288 -1.3775  1.4833  0.6256
 7303TIP3   OH246103   0.855   3.752   0.375 -0.0067  0.0551  0.3471
 7303TIP3    H146104   0.920   3.822   0.383  1.4065 -1.0244 -1.0713
 7303TIP3    H246105   0.905   3.671   0.387 -1.0586 -0.8159 -0.9013
 7304TIP3   OH246106   7.418   5.864   1.870  0.4718  0.2090 -0.0538
 7304TIP3    H146107   7.422   5.839   1.962 -1.2101  1.7705  0.4967
 7304TIP3    H246108   7.486   5.811   1.828 -0.4705 -2.5025  1.5939
 7305TIP3   OH246109   0.567   5.154   1.953 -0.1690  0.1266  0.1032
 7305TIP3    H146110   0.593   5.063   1.943  0.1734  0.2226  0.1028
 7305TIP3    H246111   0.471   5.152   1.954 -0.1543 -0.2802  0.6061
 7306TIP3   OH246112   3.141   4.538   1.787 -0.3665 -0.3354  0.4748
 7306TIP3    H146113   3.156   4.444   1.775  0.6105 -0.1157 -0.0920
 7306TIP3    H246114   3.052   4.544   1.822 -0.4396 -1.4700  0.5042
 7307TIP3   OH246115   7.236   1.058   2.726 -0.7118 -0.4721  0.0902
 7307TIP3    H146116   7.329   1.067   2.704 -0.9311  1.1724 -0.2287
 7307TIP3    H246117   7.236   1.011   2.809  0.4161 -0.3020  0.2068
 7308TIP3   OH246118   1.108   3.610   0.424 -0.9905 -0.6928  0.0042
 7308TIP3    H146119   1.168   3.542   0.392 -0.0375  0.7773 -1.5071
 7308TIP3    H246120   1.037   3.561   0.465 -0.1981 -2.5975 -0.7316
 7309TIP3   OH246121   7.461   6.521   0.820 -0.0625 -0.0653 -0.1244
 7309TIP3    H146122   7.410   6.581   0.875  1.5735  0.2957  1.0573
 7309TIP3    H246123   7.523   6.577   0.774  2.4232 -0.8362  2.0157
 7310TIP3   OH246124   6.498   2.046   2.040  0.0631  0.5245 -0.4874
 7310TIP3    H146125   6.517   2.058   2.133  1.0619 -2.1261 -0.2647
 7310TIP3    H246126   6.544   2.118   1.997  1.3680  0.6058  0.9317
 7311TIP3   OH246127   7.424   5.419   2.490  0.1490 -0.2432  0.0968
 7311TIP3    H146128   7.435   5.485   2.422  3.0620  2.0841  2.5138
 7311TIP3    H246129   7.340   5.439   2.530 -0.2086  0.2851 -0.9028
 7312TIP3   OH246130   6.481   0.821   2.668 -0.6309  0.2716  0.7439
 7312TIP3    H146131   6.483   0.852   2.759  2.2640  1.2937  0.4256
 7312TIP3    H246132   6.554   0.867   2.625 -0.6919 -1.6442 -1.6087
 7313TIP3   OH246133   0.094   3.122   1.382  0.4362  0.2930  0.7703
 7313TIP3    H146134   0.144   3.200   1.405 -1.3425  1.7803 -0.1198
 7313TIP3    H246135   0.128   3.097   1.295  1.4199 -0.3433  1.3094
 7314TIP3   OH246136   0.626   6.010   1.857 -0.0822 -0.4935 -0.1289
 7314TIP3    H146137   0.544   6.004   1.808 -0.8736 -2.0373  1.3087
 7314TIP3    H246138   0.642   5.921   1.888  1.2770  0.1108  0.9720
 7315TIP3   OH246139   7.487   3.687   3.131 -0.0383  0.7797  0.2278
 7315TIP3    H146140   7.470   3.780   3.141  0.5151  0.6708  3.2323
 7315TIP3    H246141   7.503   3.675   3.038  0.5940  3.7959 -0.1539
 7316TIP3   OH246142   6.000   4.203   0.769  1.0353  0.0564 -0.2000
 7316TIP3    H146143   6.019   4.296   0.776  1.7914 -0.0962 -0.0605
 7316TIP3    H246144   6.047   4.175   0.690 -0.1315  0.0159 -0.8975
 7317TIP3   OH246145   3.182   3.888   2.261  0.0763  0.3066  0.3629
 7317TIP3    H146146   3.179   3.801   2.222  0.4006  0.6844 -0.5195
 7317TIP3    H246147   3.152   3.947   2.192  2.4658  1.2031  0.0217
 7318TIP3   OH246148   2.534   1.271   1.801  0.0505  0.3764 -0.0991
 7318TIP3    H146149   2.483   1.320   1.737 -0.5498  0.0333  0.1085
 7318TIP3    H246150   2.558   1.336   1.867  0.2055  0.6172 -0.3907
 7319TIP3   OH246151   1.744   2.086   0.422  0.7106 -0.6262  0.1209
 7319TIP3    H146152   1.651   2.108   0.416  0.7753 -0.0739  1.0162
 7319TIP3    H246153   1.746   1.991   0.431  0.3760 -1.0034 -2.7098
 7320TIP3   OH246154   4.774   5.088   2.109  0.1127 -0.0276 -0.0930
 7320TIP3    H146155   4.759   5.151   2.180  1.1840  0.5425 -0.3519
 7320TIP3    H246156   4.869   5.081   2.103  0.0413 -0.0007 -1.5354
 7321TIP3   OH246157   5.032   1.738   2.090 -0.1125  0.1587 -0.3871
 7321TIP3    H146158   4.952   1.687   2.102  1.4626 -2.4536 -0.3557
 7321TIP3    H246159   5.043   1.786   2.172 -0.4176 -1.3160  0.5513
 7322TIP3   OH246160   6.453   1.032   3.497  0.5427 -0.6932 -0.1147
 7322TIP3    H146161   6.429   1.111   3.448 -0.8958 -0.2213  1.2524
 7322TIP3    H246162   6.518   0.988   3.442  1.5380  1.5267 -0.8474
 7323TIP3   OH246163   1.472   2.322   2.096  0.0743 -0.3075 -0.2717
 7323TIP3    H146164   1.445   2.269   2.022 -1.0428  1.1495 -0.9583
 7323TIP3    H246165   1.542   2.272   2.138 -0.2721 -1.8246 -1.4476
 7324TIP3   OH246166   6.152   4.182   2.266 -0.0372 -0.3592  0.4146
 7324TIP3    H146167   6.106   4.231   2.197  0.0146  1.1725  1.4141
 7324TIP3    H246168   6.207   4.120   2.218 -0.7674 -0.0357 -0.8954
 7325TIP3   OH246169   2.208   2.592   0.423 -0.0156  0.0814  0.5369
 7325TIP3    H146170   2.258   2.511   0.428  0.5179  0.2733 -1.0042
 7325TIP3    H246171   2.167   2.589   0.337 -0.6214  1.0875  0.7769
 7326TIP3   OH246172   0.228   6.091   2.619 -0.0692  0.1308 -0.3544
 7326TIP3    H146173   0.183   6.117   2.539 -0.4202 -1.8339 -0.8444
 7326TIP3    H246174   0.238   5.996   2.612  1.9631  0.1866  0.8826
 7327TIP3   OH246175   2.778   4.457   2.217  0.2400  0.4356 -0.4517
 7327TIP3    H146176   2.724   4.497   2.148  0.3108  0.3447 -0.5604
 7327TIP3    H246177   2.863   4.445   2.176  0.0407 -0.4320 -0.6286
 7328TIP3   OH246178   2.867   7.509   1.539 -0.2526 -0.3208 -0.6960
 7328TIP3    H146179   2.838   7.600   1.544  1.4396  0.2190  0.0268
 7328TIP3    H246180   2.793   7.462   1.502 -2.3478  0.8339  1.7101
 7329TIP3   OH246181   2.153   3.143   1.183  0.1116 -0.3018  0.1951
 7329TIP3    H146182   2.201   3.225   1.181  2.9553 -1.8271  1.1504
 7329TIP3    H246183   2.147   3.116   1.091 -0.2603  0.6005 -0.0583
 7330TIP3   OH246184   6.113   4.427   2.413  0.0640 -0.2676  0.3498
 7330TIP3    H146185   6.091   4.356   2.352  1.2164  1.1015 -1.7782
 7330TIP3    H246186   6.159   4.383   2.485 -0.5804 -1.8465 -0.1533
 7331TIP3   OH246187   3.073   4.159   1.493 -0.0071 -0.3783 -0.0867
 7331TIP3    H146188   3.066   4.199   1.579 -0.8696 -2.0545  0.6646
 7331TIP3    H246189   3.001   4.198   1.443  1.3317  1.6584 -0.5710
 7332TIP3   OH246190   6.778   7.526   2.078  0.2415  0.1557 -0.2297
 7332TIP3    H146191   6.829   7.606   2.071  0.1477  0.0837 -2.5252
 7332TIP3    H246192   6.832   7.459   2.036 -0.6314 -0.4620 -0.4049
 7333TIP3   OH246193   1.328   7.164   1.880 -0.0634  0.0632  0.3090
 7333TIP3    H146194   1.362   7.133   1.963 -0.4351 -0.4177  0.2843
 7333TIP3    H246195   1.278   7.243   1.902 -0.0634  0.0019  0.5250
 7334TIP3   OH246196   1.560   0.479   2.093 -0.0477  0.0348  0.0754
 7334TIP3    H146197   1.594   0.494   2.005  0.5727 -0.2435  0.2587
 7334TIP3    H246198   1.484   0.537   2.101 -0.1334  0.0241 -0.6559
 7335TIP3   OH246199   5.434   4.800   1.308 -0.1349 -0.0778  0.0312
 7335TIP3    H146200   5.342   4.786   1.287 -0.0065  0.6184 -1.0633
 7335TIP3    H246201   5.451   4.740   1.381 -0.8757 -1.8037 -1.1540
 7336TIP3   OH246202   0.126   3.476   2.273 -0.0795  0.0023  0.3794
 7336TIP3    H146203   0.123   3.458   2.367 -1.2062 -2.1885 -0.0144
 7336TIP3    H246204   0.083   3.401   2.233 -0.0356  1.1036 -1.8823
 7337TIP3   OH246205   6.117   6.551   1.138 -0.1993  1.0574 -0.4584
 7337TIP3    H146206   6.196   6.502   1.118 -1.3319 -0.3755 -1.6462
 7337TIP3    H246207   6.133   6.589   1.225  1.6777  0.6471 -0.5947
 7338TIP3   OH246208   0.906   3.479   0.538  0.4238  0.2679  0.1345
 7338TIP3    H146209   0.876   3.388   0.534  0.8490  0.0818  0.9898
 7338TIP3    H246210   0.939   3.490   0.627 -1.9893  2.0171  0.9071
 7339TIP3   OH246211   1.967   6.069   2.350 -0.5437  0.6719 -0.3028
 7339TIP3    H146212   2.055   6.099   2.371 -0.1290  0.4204 -1.6171
 7339TIP3    H246213   1.909   6.130   2.396  0.2593  3.5404 -2.7503
 7340TIP3   OH246214   4.972   1.338   1.670 -0.2709 -0.3912  0.1959
 7340TIP3    H146215   5.032   1.365   1.739 -1.7499 -0.6236  1.6237
 7340TIP3    H246216   4.915   1.414   1.655  1.1975  0.3479 -2.1663
 7341TIP3   OH246217   0.498   3.210   2.165  0.7556  0.1246 -0.1163
 7341TIP3    H146218   0.432   3.206   2.096 -0.9809  2.1531  1.2918
 7341TIP3    H246219   0.536   3.123   2.167 -1.4239 -0.9458 -1.4657
 7342TIP3   OH246220   7.322   1.473   1.634  0.3588 -0.6934  0.7922
 7342TIP3    H146221   7.298   1.380   1.632 -2.0253 -0.1714 -2.3749
 7342TIP3    H246222   7.241   1.519   1.653  1.1295  0.8240  0.5552
 7343TIP3   OH246223   0.810   4.079   3.042  0.2916 -0.0572 -0.1131
 7343TIP3    H146224   0.821   4.038   2.957 -2.7057  1.5822 -1.4644
 7343TIP3    H246225   0.750   4.021   3.089  1.1402 -0.4497  0.4916
 7344TIP3   OH246226   0.558   6.451   0.625 -0.3239  0.6458 -0.7079
 7344TIP3    H146227   0.581   6.359   0.615 -1.0110  0.4449 -0.4570
 7344TIP3    H246228   0.475   6.461   0.578 -1.3197  0.6688  0.9709
 7345TIP3   OH246229   2.457   4.187   1.804  0.2617 -0.3080 -0.4419
 7345TIP3    H146230   2.370   4.181   1.844  0.2554 -0.8615 -0.5206
 7345TIP3    H246231   2.491   4.272   1.830 -1.0467  0.7315 -1.9230
 7346TIP3   OH246232   0.321   5.614   2.155  1.0956  0.2048 -0.1684
 7346TIP3    H146233   0.239   5.573   2.182  1.2069  0.8167  1.1459
 7346TIP3    H246234   0.294   5.690   2.104  0.8712 -0.0281 -0.4061
 7347TIP3   OH246235   2.554   7.050   1.686 -0.3588 -0.4964 -0.3809
 7347TIP3    H146236   2.516   6.983   1.629 -0.6124 -0.7376  0.0644
 7347TIP3    H246237   2.504   7.043   1.767  1.7821 -2.0167  0.8991
 7348TIP3   OH246238   0.729   0.951   3.136 -1.1032  0.6660 -0.0053
 7348TIP3    H146239   0.661   0.990   3.192 -1.2929  1.1416 -0.5568
 7348TIP3    H246240   0.684   0.934   3.053 -0.6836  0.4632 -0.1923
 7349TIP3   OH246241   4.168   0.864   2.452 -0.0033 -0.3919  0.4025
 7349TIP3    H146242   4.123   0.824   2.377 -0.5151  0.7142  0.0964
 7349TIP3    H246243   4.098   0.905   2.502  0.5401  0.4296  0.5089
 7350TIP3   OH246244   0.408   1.697   2.341  0.4627 -0.6784 -0.2038
 7350TIP3    H146245   0.318   1.677   2.369 -0.0637 -0.8204 -1.9107
 7350TIP3    H246246   0.412   1.668   2.250  0.9280  3.0890 -1.5575
 7351TIP3   OH246247   0.274   1.121   2.386  0.8550 -0.4265  0.2270
 7351TIP3    H146248   0.304   1.185   2.321  0.2317 -0.7199 -0.3605
 7351TIP3    H246249   0.266   1.039   2.336  0.8740 -0.7765  0.7950
 7352TIP3   OH246250   2.821   5.554   2.444 -0.0934 -0.6449  0.0115
 7352TIP3    H146251   2.745   5.509   2.406 -0.3383 -1.4469  1.4025
 7352TIP3    H246252   2.834   5.512   2.529  0.9811  0.5183  0.4496
 7353TIP3   OH246253   6.222   1.002   2.725 -0.3154  0.2812 -0.4968
 7353TIP3    H146254   6.297   1.021   2.669 -0.3822 -0.0681 -0.7134
 7353TIP3    H246255   6.215   1.078   2.783 -1.0703  1.2721 -1.8444
 7354TIP3   OH246256   4.979   4.227   1.459 -0.3206 -0.3681  0.5665
 7354TIP3    H146257   4.931   4.270   1.530  0.3970 -0.4441  1.1100
 7354TIP3    H246258   5.038   4.167   1.504  0.7961  0.2447 -0.0433
 7355TIP3   OH246259   3.460   3.007   1.922  0.0635  0.5111 -0.1269
 7355TIP3    H146260   3.528   2.986   1.858  1.4940  0.1860  1.4394
 7355TIP3    H246261   3.502   2.994   2.007 -1.7488  1.0233  0.8965
 7356TIP3   OH246262   1.777   4.056   1.248 -0.0854 -0.3346 -0.0153
 7356TIP3    H146263   1.705   4.063   1.310  0.3358 -0.2095  0.4613
 7356TIP3    H246264   1.849   4.018   1.299 -0.3496 -2.1838 -0.9186
 7357TIP3   OH246265   7.196   5.389   2.640 -0.1231  0.0239 -0.1858
 7357TIP3    H146266   7.133   5.383   2.711 -1.6011  0.6257 -1.3779
 7357TIP3    H246267   7.164   5.326   2.575  0.2920  0.5915 -0.9567
 7358TIP3   OH246268   5.615   0.405   3.565 -0.3433 -0.3206 -0.1021
 7358TIP3    H146269   5.686   0.465   3.541 -1.3456  1.5865  1.4709
 7358TIP3    H246270   5.650   0.355   3.639  0.1785 -1.1170 -0.8613
 7359TIP3   OH246271   6.919   5.808   3.280 -0.1796  0.3849  0.0149
 7359TIP3    H146272   6.903   5.818   3.374  0.1607  0.3238  0.0810
 7359TIP3    H246273   7.009   5.838   3.268 -0.4466  1.0522 -0.4034
 7360TIP3   OH246274   2.108   7.198   0.715  0.0685 -0.5403 -0.6471
 7360TIP3    H146275   2.110   7.221   0.808  0.4059  0.0406 -0.7897
 7360TIP3    H246276   2.023   7.156   0.702 -1.0120  1.4886 -0.5340
 7361TIP3   OH246277   7.049   0.832   3.518  0.2248 -0.6807 -0.5282
 7361TIP3    H146278   7.069   0.879   3.437  1.2058  1.5420  0.9268
 7361TIP3    H246279   6.960   0.798   3.504  0.1739  0.0922 -2.3283
 7362TIP3   OH246280   0.854   5.559   2.278  0.1030 -0.0400 -0.5416
 7362TIP3    H146281   0.762   5.571   2.253  0.0891  0.9798 -0.0822
 7362TIP3    H246282   0.901   5.547   2.196 -0.0392  2.5028 -1.0704
 7363TIP3   OH246283   5.763   2.728   1.347  0.0352 -0.4487 -0.2133
 7363TIP3    H146284   5.699   2.798   1.333 -0.1976 -0.5060  0.4986
 7363TIP3    H246285   5.835   2.772   1.393 -0.8200 -0.9660  1.7603
 7364TIP3   OH246286   0.265   1.442   1.463  0.2227 -0.1286 -0.3137
 7364TIP3    H146287   0.188   1.432   1.519 -0.8189 -0.7922 -1.8030
 7364TIP3    H246288   0.335   1.471   1.523 -0.8900 -0.5671  1.2604
 7365TIP3   OH246289   0.083   5.461   2.173  0.2944  0.0149  0.5291
 7365TIP3    H146290   0.027   5.385   2.156  1.8790 -1.1799  0.4872
 7365TIP3    H246291   0.143   5.431   2.241  1.2301  1.0968  0.1891
 7366TIP3   OH246292   0.455   7.399   1.068 -0.3001 -0.4806 -0.3484
 7366TIP3    H146293   0.475   7.485   1.106  0.2169 -1.2168  1.1196
 7366TIP3    H246294   0.370   7.412   1.024  0.3783  1.0909 -1.3058
 7367TIP3   OH246295   0.551   2.235   3.464 -0.1051 -0.0412 -0.1169
 7367TIP3    H146296   0.624   2.210   3.521  1.4504  1.6059 -1.2916
 7367TIP3    H246297   0.547   2.166   3.398 -0.2481 -0.6219  0.4889
 7368TIP3   OH246298   1.057   4.211   1.832 -0.0934  0.3490  0.6474
 7368TIP3    H146299   1.072   4.296   1.791 -0.7095  0.0347 -0.2583
 7368TIP3    H246300   1.044   4.151   1.759 -0.3375 -0.3990  1.2875
 7369TIP3   OH246301   5.239   4.045   1.897  0.1014 -0.2298 -0.0079
 7369TIP3    H146302   5.153   4.059   1.937  0.9275  0.0462  1.7601
 7369TIP3    H246303   5.225   3.975   1.834 -1.6088  0.4435 -0.4352
 7370TIP3   OH246304   1.345   3.671   3.585 -0.2858  0.3103  0.3979
 7370TIP3    H146305   1.259   3.664   3.545 -0.9402  2.2870  1.3020
 7370TIP3    H246306   1.385   3.747   3.542  0.7887 -0.2511  0.3703
 7371TIP3   OH246307   5.578   2.604   0.714  0.3049 -0.4757 -0.2759
 7371TIP3    H146308   5.672   2.592   0.729  0.3553  0.0250 -0.1945
 7371TIP3    H246309   5.571   2.633   0.624  0.3344  0.7408  0.0958
 7372TIP3   OH246310   7.044   3.959   3.023 -0.2060  0.5514  0.3228
 7372TIP3    H146311   7.046   3.863   3.034  2.7208  0.4673 -0.2372
 7372TIP3    H246312   6.974   3.987   3.082 -1.1441 -1.9196  0.5418
 7373TIP3   OH246313   2.178   2.583   1.992 -0.3003 -0.3012  0.3003
 7373TIP3    H146314   2.190   2.533   2.073 -1.4903 -1.7099 -0.3383
 7373TIP3    H246315   2.090   2.621   2.000 -0.2927 -0.1725 -0.1927
 7374TIP3   OH246316   3.445   1.942   1.477 -0.2243  0.0482 -0.3810
 7374TIP3    H146317   3.521   1.913   1.528 -0.8496  1.4502  1.4845
 7374TIP3    H246318   3.471   2.026   1.439 -1.4313  1.6942  2.1136
 7375TIP3   OH246319   4.047   5.607   1.782  0.2193  0.1208 -0.3072
 7375TIP3    H146320   3.997   5.665   1.839  1.1790  1.7443 -1.0527
 7375TIP3    H246321   4.128   5.590   1.830 -0.5025 -1.6019  0.4086
 7376TIP3   OH246322   1.691   7.380   1.268  0.2353  0.0798  0.0806
 7376TIP3    H146323   1.749   7.369   1.192 -1.2899  0.1461 -1.1236
 7376TIP3    H246324   1.605   7.353   1.237 -0.7048  1.4294  1.3846
 7377TIP3   OH246325   3.837   1.805   2.116 -0.3215  0.0647 -0.3613
 7377TIP3    H146326   3.920   1.816   2.070  0.9902 -0.1312  1.7979
 7377TIP3    H246327   3.775   1.775   2.049  1.4072 -0.0328 -1.9798
 7378TIP3   OH246328   1.672   3.310   1.165 -0.0015 -0.0134 -0.1105
 7378TIP3    H146329   1.670   3.235   1.223  1.7554  0.4348  0.5910
 7378TIP3    H246330   1.631   3.279   1.084  0.7187 -1.7219  0.1400
 7379TIP3   OH246331   7.533   6.948   0.596  0.0697 -0.3765 -0.1149
 7379TIP3    H146332   7.572   7.035   0.584  2.9912 -1.0547  2.8765
 7379TIP3    H246333   7.461   6.962   0.657  0.0161  0.0366 -0.2713
 7380TIP3   OH246334   5.561   2.005   0.718  0.3259 -0.2403  0.1866
 7380TIP3    H146335   5.621   1.931   0.721 -0.1884 -0.6567  0.3181
 7380TIP3    H246336   5.618   2.082   0.711  0.8881 -0.5925  0.8274
 7381TIP3   OH246337   6.204   5.886   0.489  0.0539 -0.1677  0.0540
 7381TIP3    H146338   6.139   5.850   0.549  0.0860  0.4865  0.4912
 7381TIP3    H246339   6.264   5.813   0.473 -0.9129 -0.8622 -0.5640
 7382TIP3   OH246340   2.464   4.708   2.905 -0.2805 -0.3528 -0.0170
 7382TIP3    H146341   2.514   4.784   2.933  0.3333 -0.8334  0.2317
 7382TIP3    H246342   2.374   4.727   2.930  0.0196 -0.1187  0.9032
 7383TIP3   OH246343   7.128   0.221   0.850 -0.3856 -0.1660  0.8286
 7383TIP3    H146344   7.048   0.231   0.902  0.0499  0.3382  1.4296
 7383TIP3    H246345   7.188   0.286   0.888 -0.0039  0.1030 -0.2132
 7384TIP3   OH246346   2.758   6.747   2.855 -0.4960  0.2376  0.4122
 7384TIP3    H146347   2.850   6.772   2.870 -0.7896  1.2247  0.6105
 7384TIP3    H246348   2.708   6.826   2.877 -1.3180  0.0794 -0.8415
 7385TIP3   OH246349   6.062   2.128   2.486  0.0544  1.2363  0.6118
 7385TIP3    H146350   6.046   2.125   2.581  1.0749  1.3181  0.7904
 7385TIP3    H246351   5.974   2.122   2.448 -0.5507  2.9034  1.5856
 7386TIP3   OH246352   7.357   5.503   1.531  0.1720  0.2459 -0.2438
 7386TIP3    H146353   7.327   5.433   1.588  2.0591 -1.0986 -0.7879
 7386TIP3    H246354   7.409   5.560   1.588 -1.1486  1.1045  0.1436
 7387TIP3   OH246355   0.472   7.525   1.493  0.3454 -0.1506  0.3321
 7387TIP3    H146356   0.432   7.449   1.451 -0.7531  1.2319 -1.2808
 7387TIP3    H246357   0.562   7.525   1.462 -0.0982  0.0948 -1.0256
 7388TIP3   OH246358   5.895   7.451   1.767 -0.1202 -0.3244  0.3676
 7388TIP3    H146359   5.983   7.413   1.771  0.3147  0.6103  0.1036
 7388TIP3    H246360   5.863   7.428   1.680 -0.3772 -1.1635  0.6792
 7389TIP3   OH246361   6.604   0.199   1.159 -0.3946  0.7272 -0.2240
 7389TIP3    H146362   6.680   0.256   1.158 -1.1341  1.7467  0.1322
 7389TIP3    H246363   6.530   0.257   1.139 -1.1421 -0.1362 -0.0473
 7390TIP3   OH246364   7.126   1.900   3.551 -0.1236  0.0332 -0.4414
 7390TIP3    H146365   7.147   1.879   3.642 -0.1486  1.9269  0.0348
 7390TIP3    H246366   7.199   1.953   3.520  0.4386 -1.4890 -1.9372
 7391TIP3   OH246367   7.014   4.460   2.258  0.2759  0.9833 -0.5464
 7391TIP3    H146368   7.072   4.384   2.254 -0.2519  0.5264  0.1849
 7391TIP3    H246369   6.953   4.448   2.185  0.9867  1.3794 -1.2160
 7392TIP3   OH246370   4.800   6.806   2.218  0.4041  0.2788 -0.1301
 7392TIP3    H146371   4.735   6.868   2.253  1.9866  1.2958  1.1857
 7392TIP3    H246372   4.787   6.726   2.270 -0.8977 -0.1456 -1.0590
 7393TIP3   OH246373   6.638   2.666   2.783  0.0782  0.2910 -0.3231
 7393TIP3    H146374   6.603   2.632   2.865  2.6001  1.2289  1.2740
 7393TIP3    H246375   6.574   2.731   2.754  0.4454  2.1419  2.5827
 7394TIP3   OH246376   2.161   0.051   2.086 -0.4240 -0.1083  0.2468
 7394TIP3    H146377   2.116   0.048   2.171 -1.5552 -0.1046 -0.3269
 7394TIP3    H246378   2.166   0.145   2.066 -2.9591 -0.1501 -1.0632
 7395TIP3   OH246379   6.433   1.519   2.520 -0.1124 -0.1878 -0.4868
 7395TIP3    H146380   6.523   1.486   2.518  0.6192  1.6696  0.4081
 7395TIP3    H246381   6.426   1.568   2.601 -2.3886 -1.3768  0.1485
 7396TIP3   OH246382   5.091   2.084   0.682  0.1640  0.1272 -0.1666
 7396TIP3    H146383   5.161   2.052   0.739  0.0198  1.4837  0.8141
 7396TIP3    H246384   5.024   2.015   0.686  0.7986 -0.4875  0.0889
 7397TIP3   OH246385   1.417   6.042   0.606 -0.3464 -0.6471 -0.6198
 7397TIP3    H146386   1.424   6.137   0.606  0.2453 -0.6772  0.3284
 7397TIP3    H246387   1.505   6.011   0.587 -0.6188 -1.0170 -1.3307
 7398TIP3   OH246388   2.031   1.716   2.384 -0.1314  0.3262 -0.0359
 7398TIP3    H146389   2.065   1.679   2.303  0.6604  0.1275  0.3727
 7398TIP3    H246390   2.066   1.659   2.453  1.5085  2.0770  0.6506
 7399TIP3   OH246391   2.288   0.906   2.250  0.1420 -0.1116  0.4314
 7399TIP3    H146392   2.258   0.846   2.318 -0.1990  0.8382  1.1490
 7399TIP3    H246393   2.245   0.989   2.272  2.7581  1.1573  1.1410
 7400TIP3   OH246394   3.633   4.034   0.980 -0.6232 -0.0559  0.5250
 7400TIP3    H146395   3.563   3.969   0.970  0.1323 -0.7122 -0.8067
 7400TIP3    H246396   3.608   4.084   1.057 -1.9413 -1.0457  0.7849
 7401TIP3   OH246397   0.994   1.366   3.464 -0.1471 -0.7969 -0.6855
 7401TIP3    H146398   0.923   1.430   3.470  0.0715 -0.6330  0.3147
 7401TIP3    H246399   0.953   1.288   3.425 -0.4859 -0.1704 -1.6153
 7402TIP3   OH246400   1.562   6.366   1.658 -0.1134  0.2905 -0.5270
 7402TIP3    H146401   1.577   6.395   1.747 -1.8953  0.8017 -0.3575
 7402TIP3    H246402   1.643   6.387   1.612  0.6428  0.4769  0.8372
 7403TIP3   OH246403   3.677   3.322   2.899 -0.0867  0.1508  0.1868
 7403TIP3    H146404   3.719   3.368   2.826  1.3178  1.0567  1.5191
 7403TIP3    H246405   3.596   3.371   2.914  0.4054  0.9652  0.2642
 7404TIP3   OH246406   6.277   0.803   1.821 -0.1162  0.2861  0.3423
 7404TIP3    H146407   6.295   0.714   1.850  0.7136  0.9177  1.8640
 7404TIP3    H246408   6.263   0.853   1.901 -0.0511  1.6313 -0.4461
 7405TIP3   OH246409   6.403   0.324   1.555 -0.2270  0.3574 -0.4490
 7405TIP3    H146410   6.336   0.257   1.538 -0.4090  0.8923 -2.0670
 7405TIP3    H246411   6.379   0.396   1.496  3.0536 -0.3129 -2.8775
 7406TIP3   OH246412   4.034   1.168   2.361 -0.1753 -0.7373  0.5279
 7406TIP3    H146413   3.987   1.158   2.444  0.8533 -1.6436  1.0250
 7406TIP3    H246414   4.126   1.155   2.384  0.0071 -2.6977 -1.0103
 7407TIP3   OH246415   0.346   2.482   3.185  0.1933 -0.1041 -0.4059
 7407TIP3    H146416   0.391   2.419   3.129 -0.1161  1.0863 -2.0724
 7407TIP3    H246417   0.280   2.522   3.128 -0.2917  1.0220  0.8807
 7408TIP3   OH246418   5.909   0.220   0.541  0.1301 -0.1149  0.0130
 7408TIP3    H146419   5.921   0.140   0.591  1.2866  0.9900  1.6015
 7408TIP3    H246420   5.981   0.219   0.477  1.8770  0.8793  1.8287
 7409TIP3   OH246421   5.370   5.700   2.063  0.4126 -0.7613 -0.4166
 7409TIP3    H146422   5.375   5.766   1.994  0.8400 -1.3579 -0.9718
 7409TIP3    H246423   5.297   5.644   2.038 -1.5043  0.8171  1.2772
 7410TIP3   OH246424   0.353   1.813   3.021  0.4203 -0.4550  0.7601
 7410TIP3    H146425   0.427   1.849   2.973  1.2674 -0.2366  2.1639
 7410TIP3    H246426   0.287   1.883   3.021  2.1203  1.3839  3.6489
 7411TIP3   OH246427   1.304   3.393   2.030 -0.0727  0.0299  0.2354
 7411TIP3    H146428   1.380   3.362   2.078  0.6252 -0.8991 -1.3862
 7411TIP3    H246429   1.311   3.352   1.944 -1.4329  1.3676 -0.5765
 7412TIP3   OH246430   1.978   0.449   0.622  0.3250 -0.1312  0.1679
 7412TIP3    H146431   2.037   0.392   0.573  1.0252 -0.0618  0.9089
 7412TIP3    H246432   1.895   0.443   0.575  0.9331 -0.1614 -0.9513
 7413TIP3   OH246433   3.713   5.756   1.089 -0.3417 -0.2496 -0.8256
 7413TIP3    H146434   3.758   5.678   1.056 -1.8462 -1.6812  0.3707
 7413TIP3    H246435   3.783   5.820   1.103  1.1939 -1.9940 -0.1197
 7414TIP3   OH246436   4.449   0.650   2.367  0.0817 -0.0022  0.1810
 7414TIP3    H146437   4.373   0.623   2.315 -0.1272  0.7855  0.0546
 7414TIP3    H246438   4.520   0.594   2.337 -0.0238  0.4700 -0.9932
 7415TIP3   OH246439   4.867   1.338   0.764  0.0501 -0.1711 -0.2196
 7415TIP3    H146440   4.800   1.270   0.755 -1.2342  0.8878  0.8406
 7415TIP3    H246441   4.915   1.314   0.844 -0.6182  0.3205  0.3404
 7416TIP3   OH246442   6.837   4.627   0.554  0.2632 -0.1334  0.7686
 7416TIP3    H146443   6.754   4.582   0.539  0.3642 -0.1798  0.3315
 7416TIP3    H246444   6.894   4.560   0.591 -0.9780  0.7405  4.8215
 7417TIP3   OH246445   7.001   3.312   1.479 -0.1285  0.3465  0.1741
 7417TIP3    H146446   6.962   3.328   1.565 -0.1659  0.2399  0.1780
 7417TIP3    H246447   7.095   3.327   1.492 -0.0928  0.0193  0.3132
 7418TIP3   OH246448   7.494   3.996   1.211  0.2164 -0.2712  0.2283
 7418TIP3    H146449   7.496   4.047   1.130 -0.1627 -0.9082 -0.1892
 7418TIP3    H246450   7.406   3.958   1.214  0.2143 -0.2250  0.9577
 7419TIP3   OH246451   1.601   0.580   0.539 -0.0648  0.4227 -0.5845
 7419TIP3    H146452   1.658   0.650   0.570  0.6079 -1.4486  2.8978
 7419TIP3    H246453   1.660   0.516   0.499 -0.3140  0.4500 -1.0132
 7420TIP3   OH246454   3.433   7.461   3.075 -0.8701 -0.0313  0.1065
 7420TIP3    H146455   3.491   7.396   3.114  0.2628  0.0655 -1.3413
 7420TIP3    H246456   3.477   7.545   3.089 -0.1977 -0.0372 -1.7021
 7421TIP3   OH246457   2.222   4.537   3.059  0.5845  0.0011 -0.1435
 7421TIP3    H146458   2.274   4.538   3.139  2.3181  2.2840 -1.1517
 7421TIP3    H246459   2.158   4.607   3.072  0.2967 -0.2201 -0.3832
 7422TIP3   OH246460   2.322   4.224   2.055 -0.1047  0.2714 -0.1538
 7422TIP3    H146461   2.408   4.184   2.037 -0.4637 -0.6923  0.2048
 7422TIP3    H246462   2.343   4.313   2.084  0.7266  0.3214 -0.8645
 7423TIP3   OH246463   3.994   6.340   1.648  0.5586  0.0539 -0.1699
 7423TIP3    H146464   3.943   6.260   1.631 -1.2398  0.8652  1.1585
 7423TIP3    H246465   4.085   6.311   1.642 -0.0130 -1.6492 -1.7152
 7424TIP3   OH246466   7.146   0.380   1.203 -0.1273  0.0235  0.3017
 7424TIP3    H146467   7.193   0.299   1.184 -0.7104 -0.2844  0.1408
 7424TIP3    H246468   7.211   0.437   1.245  0.7492  0.1023 -1.0844
 7425TIP3   OH246469   6.715   0.859   2.450 -0.0804  0.1289 -0.2386
 7425TIP3    H146470   6.632   0.812   2.444 -0.0050  0.0989 -1.2188
 7425TIP3    H246471   6.754   0.851   2.363  0.3625  1.2211 -0.1640
 7426TIP3   OH246472   3.486   7.197   0.799 -0.1641  0.1959  0.3619
 7426TIP3    H146473   3.421   7.255   0.759  0.1803 -0.3486 -1.0460
 7426TIP3    H246474   3.445   7.168   0.881 -1.7124 -0.1282 -0.4897
 7427TIP3   OH246475   3.379   0.922   2.016  0.0967  0.4252  0.1735
 7427TIP3    H146476   3.387   0.947   2.109  0.5907  0.2750  0.1751
 7427TIP3    H246477   3.445   0.854   2.004  0.6916  1.0973 -0.5126
 7428TIP3   OH246478   4.061   3.676   1.768 -0.1321 -0.0379  0.4727
 7428TIP3    H146479   4.123   3.735   1.726 -0.3090 -0.7316 -0.7945
 7428TIP3    H246480   4.047   3.605   1.705 -1.3958 -0.4513  1.1684
 7429TIP3   OH246481   5.916   3.269   2.316  0.6533  0.6469  0.1716
 7429TIP3    H146482   5.864   3.265   2.396 -0.8320 -0.5361 -0.7892
 7429TIP3    H246483   5.862   3.318   2.254  1.5998  1.1834 -0.2635
 7430TIP3   OH246484   2.137   4.745   0.890  0.3963 -0.3341  0.0142
 7430TIP3    H146485   2.099   4.798   0.960  0.6566 -1.7993  1.3388
 7430TIP3    H246486   2.065   4.689   0.861  1.1991 -2.6225  2.0432
 7431TIP3   OH246487   1.130   7.305   1.593  0.2426 -0.2164 -0.3076
 7431TIP3    H146488   1.159   7.258   1.671  0.9618  0.1324 -0.3606
 7431TIP3    H246489   1.146   7.397   1.613  1.5963 -0.2004 -1.3283
 7432TIP3   OH246490   0.092   3.570   0.310  0.4708 -0.1222  0.1831
 7432TIP3    H146491   0.064   3.581   0.401 -0.2073 -0.0441 -0.0273
 7432TIP3    H246492   0.100   3.476   0.299  1.5448 -0.0961  0.6048
 7433TIP3   OH246493   0.542   4.158   1.827  0.1686 -0.3492  0.1278
 7433TIP3    H146494   0.603   4.094   1.862  0.0524 -0.4906  0.0725
 7433TIP3    H246495   0.500   4.113   1.753 -0.8520 -0.6666  0.8840
 7434TIP3   OH246496   1.900   3.884   2.033 -0.1135  0.0737  0.0650
 7434TIP3    H146497   1.829   3.893   2.097 -0.7811 -4.3386  0.3008
 7434TIP3    H246498   1.977   3.862   2.085  0.2779  0.2852 -0.4205
 7435TIP3   OH246499   5.750   4.388   2.177  0.2798 -0.1965 -0.3446
 7435TIP3    H146500   5.668   4.410   2.221 -0.7506 -1.0198 -1.8039
 7435TIP3    H246501   5.776   4.469   2.133 -0.3048 -0.2191 -0.7358
 7436TIP3   OH246502   0.153   6.416   2.662 -0.2462  0.2038  0.6922
 7436TIP3    H146503   0.157   6.511   2.650  0.7371 -0.0491 -1.8028
 7436TIP3    H246504   0.181   6.381   2.577 -0.7223 -2.3245  1.5007
 7437TIP3   OH246505   5.352   4.574   3.124  0.3550 -0.3666 -0.6895
 7437TIP3    H146506   5.380   4.509   3.188 -0.5174 -0.8975 -0.8277
 7437TIP3    H246507   5.256   4.570   3.126  0.3117 -0.5889 -2.2369
 7438TIP3   OH246508   7.273   3.325   1.015 -0.9379  0.1110  0.3617
 7438TIP3    H146509   7.338   3.298   1.079 -1.1587  1.2103  1.0848
 7438TIP3    H246510   7.210   3.253   1.012 -0.2382 -0.5151  0.4052
 7439TIP3   OH246511   1.059   5.977   2.542  0.6208 -0.0976  0.6453
 7439TIP3    H146512   1.070   6.010   2.631  3.5878  1.6040 -0.2342
 7439TIP3    H246513   1.130   5.914   2.531  0.9235  0.4603 -0.8248
 7440TIP3   OH246514   0.813   1.833   1.714  0.1301 -0.2024  1.1188
 7440TIP3    H146515   0.854   1.877   1.639  0.8617  0.0769  1.6678
 7440TIP3    H246516   0.755   1.768   1.675 -0.5192  0.8334  0.2834
 7441TIP3   OH246517   3.999   6.785   2.934 -0.1695  0.6134 -0.1155
 7441TIP3    H146518   3.973   6.792   2.842 -0.9704 -1.5312 -0.0996
 7441TIP3    H246519   3.977   6.696   2.958  1.7150  0.5679  1.6690
 7442TIP3   OH246520   5.105   6.784   0.892 -0.2070 -0.5639 -0.4632
 7442TIP3    H146521   5.164   6.846   0.935  1.6782 -2.6286  0.0641
 7442TIP3    H246522   5.031   6.775   0.953 -0.0163  0.3552 -0.0808
 7443TIP3   OH246523   0.972   3.095   2.183 -0.1126 -0.0513 -0.1024
 7443TIP3    H146524   1.002   3.026   2.242 -0.2730 -0.5342 -0.5726
 7443TIP3    H246525   1.015   3.076   2.099  0.0508  0.5780 -0.1693
 7444TIP3   OH246526   3.677   3.286   1.164  0.6982 -0.0910  0.3383
 7444TIP3    H146527   3.646   3.310   1.251  0.5708 -0.6102  0.4438
 7444TIP3    H246528   3.763   3.328   1.156 -0.2301  1.8365 -0.1802
 7445TIP3   OH246529   6.674   1.286   2.762  0.6402  0.4979 -0.3884
 7445TIP3    H146530   6.666   1.195   2.733 -2.2336  0.9179 -1.2283
 7445TIP3    H246531   6.588   1.307   2.798  1.4818  2.6771  0.4860
 7446TIP3   OH246532   3.784   2.929   3.141 -0.0397  0.0930  0.1742
 7446TIP3    H146533   3.803   2.846   3.184  0.1315  0.1853  0.2803
 7446TIP3    H246534   3.689   2.930   3.131 -0.0001 -0.3244 -0.2540
 7447TIP3   OH246535   3.223   0.883   1.602  0.1694 -0.3611  0.2014
 7447TIP3    H146536   3.245   0.790   1.597  0.0107 -0.3903  0.0736
 7447TIP3    H246537   3.198   0.897   1.693  1.2965 -0.2043  0.5122
 7448TIP3   OH246538   1.041   2.928   2.473 -0.4243 -0.1384 -0.2297
 7448TIP3    H146539   0.964   2.986   2.475  1.4135  2.6177 -2.0573
 7448TIP3    H246540   1.102   2.968   2.535 -0.6595 -2.8153  1.9025
 7449TIP3   OH246541   0.137   3.184   3.341  0.1492 -0.2142  0.2206
 7449TIP3    H146542   0.156   3.103   3.388  1.4505  0.4705  0.9311
 7449TIP3    H246543   0.059   3.164   3.289 -0.6615 -1.3542  1.7882
 7450TIP3   OH246544   3.953   6.903   1.379 -0.2464 -0.2928 -0.0767
 7450TIP3    H146545   3.875   6.874   1.427 -0.0246 -0.0805  0.4111
 7450TIP3    H246546   3.973   6.831   1.320 -0.2521 -0.7406  0.4680
 7451TIP3   OH246547   1.370   2.916   2.804  0.1083  0.6001 -0.4867
 7451TIP3    H146548   1.387   2.909   2.898  1.0319 -0.7063 -0.7352
 7451TIP3    H246549   1.457   2.913   2.763 -0.2788  1.1769 -1.3936
 7452TIP3   OH246550   3.301   2.189   2.143  0.3565  0.1277 -0.0717
 7452TIP3    H146551   3.395   2.191   2.165  0.2884 -2.6584  0.9030
 7452TIP3    H246552   3.298   2.156   2.053  0.3265  0.3543 -0.1528
 7453TIP3   OH246553   0.176   5.679   0.689 -0.3400  0.0177 -0.2662
 7453TIP3    H146554   0.088   5.710   0.708 -0.0809 -0.8207  2.8102
 7453TIP3    H246555   0.232   5.720   0.756  1.2713 -0.9917 -0.9178
 7454TIP3   OH246556   0.491   5.125   0.588 -0.1464  0.1026  0.0939
 7454TIP3    H146557   0.422   5.079   0.637 -0.2616 -0.1818 -0.3312
 7454TIP3    H246558   0.481   5.216   0.614 -0.3002 -0.0220  0.4918
 7455TIP3   OH246559   3.640   3.730   0.601  0.2859  0.0749  0.1808
 7455TIP3    H146560   3.668   3.650   0.555  0.3183  1.0211 -1.5168
 7455TIP3    H246561   3.722   3.777   0.617  0.0339  1.2833 -1.8040
 7456TIP3   OH246562   2.191   2.003   2.741  0.1633 -0.4098 -0.1481
 7456TIP3    H146563   2.200   2.047   2.826 -0.3567 -0.0778 -0.2599
 7456TIP3    H246564   2.186   1.910   2.763  0.2142 -0.3389  0.1747
 7457TIP3   OH246565   5.343   1.655   1.852  0.0017 -0.1245 -0.2977
 7457TIP3    H146566   5.435   1.631   1.857 -0.0216 -0.4914 -1.3608
 7457TIP3    H246567   5.298   1.572   1.837 -0.2847  0.2997 -1.9612
 7458TIP3   OH246568   5.845   6.859   1.144  0.4569  0.4897 -0.4321
 7458TIP3    H146569   5.806   6.875   1.230 -0.8599 -1.8003 -0.5318
 7458TIP3    H246570   5.939   6.858   1.160  0.2602  0.7653  0.8512
 7459TIP3   OH246571   2.283   3.208   1.585 -0.3271  0.4719 -0.1553
 7459TIP3    H146572   2.328   3.150   1.524  0.1539  0.8508 -0.1605
 7459TIP3    H246573   2.194   3.214   1.551  0.1103  1.2255 -1.2137
 7460TIP3   OH246574   6.234   0.907   0.999 -0.0825 -0.4086  0.0739
 7460TIP3    H146575   6.287   0.872   1.070  0.6192  1.0054  0.2930
 7460TIP3    H246576   6.171   0.965   1.042 -0.4467 -0.4791 -0.3566
 7461TIP3   OH246577   4.465   0.995   3.099  0.1356 -0.2890 -0.0540
 7461TIP3    H146578   4.496   1.016   3.011  1.8999  2.4630  1.0774
 7461TIP3    H246579   4.540   0.952   3.141  0.1267  0.3986  0.7064
 7462TIP3   OH246580   1.267   6.293   1.148 -0.0407 -0.6101 -0.0423
 7462TIP3    H146581   1.207   6.366   1.139  0.4679 -0.2618 -0.6579
 7462TIP3    H246582   1.353   6.328   1.123  0.0030 -1.7222 -1.6417
 7463TIP3   OH246583   6.910   1.530   0.706 -0.1471 -0.2064 -0.1126
 7463TIP3    H146584   6.864   1.463   0.757  0.6638 -0.2517  0.5821
 7463TIP3    H246585   6.973   1.481   0.654 -1.2283 -0.2007 -1.5007
 7464TIP3   OH246586   3.863   6.225   2.349 -0.2323  0.3681  0.3765
 7464TIP3    H146587   3.814   6.229   2.431  0.3771  2.3101  0.7082
 7464TIP3    H246588   3.913   6.144   2.355 -0.6171  0.1972  1.6893
 7465TIP3   OH246589   4.942   6.044   2.761  0.0488 -0.1474 -0.2655
 7465TIP3    H146590   5.026   6.002   2.745  0.6578  1.3966 -1.3583
 7465TIP3    H246591   4.961   6.112   2.825 -0.4294  0.0367 -0.3129
 7466TIP3   OH246592   5.645   5.361   0.628 -0.5651 -0.8401  0.6858
 7466TIP3    H146593   5.604   5.368   0.715  2.1305 -1.5767  2.1152
 7466TIP3    H246594   5.617   5.275   0.596 -0.3823 -1.2257  1.5178
 7467TIP3   OH246595   6.424   1.141   2.600 -0.0338 -0.2476 -0.5712
 7467TIP3    H146596   6.417   1.169   2.509  0.8077 -0.4704 -0.7108
 7467TIP3    H246597   6.411   1.222   2.650  0.3332  0.0268 -0.9099
 7468TIP3   OH246598   6.559   2.959   2.910 -0.2204  0.2156 -0.3379
 7468TIP3    H146599   6.519   3.046   2.901 -1.9950 -0.4641  0.5281
 7468TIP3    H246600   6.518   2.907   2.841  0.9260  0.0740 -0.9291
 7469TIP3   OH246601   1.304   4.183   0.841 -0.1708 -0.0657  0.2157
 7469TIP3    H146602   1.320   4.194   0.748 -0.8752 -0.1271  0.0759
 7469TIP3    H246603   1.358   4.249   0.884  1.2125 -0.9440 -0.1435
 7470TIP3   OH246604   1.493   1.259   1.220 -0.2696 -0.0391  0.3035
 7470TIP3    H146605   1.432   1.190   1.193 -0.5812  0.4593 -0.3123
 7470TIP3    H246606   1.482   1.267   1.314 -2.7300  1.4630 -0.0175
 7471TIP3   OH246607   3.754   2.529   1.085 -0.6356  0.3697  0.3911
 7471TIP3    H146608   3.820   2.512   1.017  0.3156  0.3634  1.2850
 7471TIP3    H246609   3.798   2.588   1.147 -0.7968 -1.0939  1.9872
 7472TIP3   OH246610   3.978   0.473   0.960  0.3702 -0.4136 -0.2242
 7472TIP3    H146611   3.904   0.528   0.988  1.0950  0.7918 -0.5811
 7472TIP3    H246612   4.049   0.496   1.020  0.5531 -1.3177 -0.0876
 7473TIP3   OH246613   1.112   0.677   3.283 -0.5052 -0.0633  0.2338
 7473TIP3    H146614   1.207   0.688   3.288 -0.1315 -2.2964 -0.8639
 7473TIP3    H246615   1.081   0.756   3.240  0.8012  0.8100  0.8209
 7474TIP3   OH246616   4.584   0.932   3.716  0.2058  0.2613  0.2185
 7474TIP3    H146617   4.602   1.021   3.747  1.1373 -0.0046  0.4682
 7474TIP3    H246618   4.671   0.893   3.703 -0.1917 -0.5750 -0.0054
 7475TIP3   OH246619   0.632   4.095   0.854 -0.0235 -0.0562  0.7896
 7475TIP3    H146620   0.612   4.040   0.929 -1.3577  0.6070  0.9653
 7475TIP3    H246621   0.594   4.048   0.779  1.3851 -0.7622  0.4924
 7476TIP3   OH246622   7.388   0.168   1.192  0.0274  0.6640 -0.1964
 7476TIP3    H146623   7.397   0.075   1.175  1.6946  0.5745  0.9877
 7476TIP3    H246624   7.336   0.173   1.273  0.5147  0.7144  0.1210
 7477TIP3   OH246625   7.137   4.187   0.868 -0.2194 -0.2617  0.4628
 7477TIP3    H146626   7.135   4.092   0.871 -0.0894 -0.3808 -1.9187
 7477TIP3    H246627   7.046   4.213   0.883 -0.4222 -0.8019  0.1890
 7478TIP3   OH246628   1.662   2.294   2.467  0.0975 -0.0723  0.5289
 7478TIP3    H146629   1.744   2.293   2.515  0.4650  1.5739 -0.0059
 7478TIP3    H246630   1.684   2.329   2.381 -1.2752  1.1631  0.6344
 7479TIP3   OH246631   2.315   4.272   8.912 -0.2582  0.2580  0.3169
 7479TIP3    H146632   2.286   4.194   8.865  2.1691 -0.3275 -0.3207
 7479TIP3    H246633   2.403   4.251   8.941 -0.2892  2.0562  1.8731
 7480TIP3   OH246634   0.996   1.579   2.556  0.5157  0.2016 -0.2476
 7480TIP3    H146635   1.043   1.581   2.639 -0.9494 -0.7455  0.6622
 7480TIP3    H246636   1.025   1.657   2.509  2.3072  0.0998  0.6082
 7481TIP3   OH246637   1.406   5.225   1.097 -0.4473 -0.3315 -0.2708
 7481TIP3    H146638   1.318   5.215   1.133 -0.2231 -2.3340 -0.1426
 7481TIP3    H246639   1.416   5.319   1.085 -2.5974 -0.0391 -0.2926
 7482TIP3   OH246640   1.184   6.831   1.222  0.3118 -0.1096 -0.4325
 7482TIP3    H146641   1.129   6.754   1.206 -1.9373  1.0753  1.1665
 7482TIP3    H246642   1.187   6.875   1.137  0.0405 -0.9717 -0.9062
 7483TIP3   OH246643   3.740   7.087   2.219 -0.3172 -0.0002 -0.4552
 7483TIP3    H146644   3.687   7.076   2.139 -0.4502 -0.3316 -0.3245
 7483TIP3    H246645   3.827   7.055   2.194 -0.4404 -0.4003 -0.3755
 7484TIP3   OH246646   2.945   6.957   2.029  0.7030  0.1193  0.6869
 7484TIP3    H146647   3.037   6.974   2.007 -0.2943  2.0216 -2.7159
 7484TIP3    H246648   2.904   7.044   2.027 -1.2388 -0.7282  1.8383
 7485TIP3   OH246649   6.017   1.122   2.243  0.0358 -0.2127  0.4426
 7485TIP3    H146650   6.049   1.090   2.328  2.7038  1.7412  0.2929
 7485TIP3    H246651   5.960   1.196   2.265  2.1227  1.4440  0.6104
 7486TIP3   OH246652   5.627   3.500   2.484 -0.3592  0.2161  0.2676
 7486TIP3    H146653   5.680   3.553   2.425 -1.1808 -0.2346 -0.9202
 7486TIP3    H246654   5.595   3.561   2.551  0.4935  0.7585  0.1858
 7487TIP3   OH246655   3.711   0.866   1.701 -0.2911  0.1464  0.1831
 7487TIP3    H146656   3.730   0.800   1.768  1.6319  0.9641  0.5279
 7487TIP3    H246657   3.685   0.944   1.750  1.0450  0.7234  0.0220
 7488TIP3   OH246658   0.459   2.314   2.239  0.8298 -0.7992 -0.4121
 7488TIP3    H146659   0.501   2.246   2.186  1.7574 -0.3415 -0.2731
 7488TIP3    H246660   0.530   2.353   2.290  0.7803  1.9306 -2.2518
 7489TIP3   OH246661   2.115   6.223   1.178  0.3769  0.1704 -0.6113
 7489TIP3    H146662   2.063   6.293   1.138  0.1166 -0.1190 -0.7792
 7489TIP3    H246663   2.166   6.186   1.105 -0.5267 -0.7413 -0.8007
 7490TIP3   OH246664   0.023   6.005   1.463  0.3630 -0.1568  0.0626
 7490TIP3    H146665   0.085   5.932   1.459  0.3663 -0.1085 -0.8168
 7490TIP3    H246666   0.079   6.082   1.478  0.3822 -0.2929  0.7190
 7491TIP3   OH246667   5.263   5.843   0.802  0.5841 -0.4554  0.0869
 7491TIP3    H146668   5.234   5.756   0.827  1.7032  0.0853  4.0174
 7491TIP3    H246669   5.358   5.840   0.812  0.8166  0.8095 -1.3451
 7492TIP3   OH246670   0.501   3.777   2.541  0.2232  0.1290 -0.2080
 7492TIP3    H146671   0.532   3.788   2.631 -1.1186  0.4155  0.2435
 7492TIP3    H246672   0.442   3.702   2.545  0.5694 -0.2003 -0.9835
 7493TIP3   OH246673   7.067   0.993   0.576  0.3164  0.3069 -0.3097
 7493TIP3    H146674   6.978   1.004   0.610 -0.7568 -0.0205 -2.8050
 7493TIP3    H246675   7.098   0.912   0.617  0.1261  1.2419  1.8085
 7494TIP3   OH246676   5.984   5.895   1.534  0.0302  0.0526  0.3833
 7494TIP3    H146677   5.985   5.854   1.621 -0.1932  1.4959  1.0900
 7494TIP3    H246678   5.914   5.849   1.487 -0.7743  0.1611  1.4339
 7495TIP3   OH246679   1.155   5.924   2.168  0.2216  0.4174  0.1981
 7495TIP3    H146680   1.080   5.888   2.216  1.7768  0.7769  3.1180
 7495TIP3    H246681   1.189   5.993   2.225  2.1737  0.9724 -1.5186
 7496TIP3   OH246682   0.994   1.146   2.238  0.0778  0.3643  0.2559
 7496TIP3    H146683   1.052   1.220   2.259 -1.2509  1.4659  0.2209
 7496TIP3    H246684   0.921   1.155   2.300 -1.8839  1.2530 -1.9912
 7497TIP3   OH246685   1.477   4.857   1.366  0.6070  0.0221 -0.3268
 7497TIP3    H146686   1.431   4.873   1.283 -0.9446 -1.4378  0.1902
 7497TIP3    H246687   1.423   4.902   1.431  0.2806 -1.1347  0.2157
 7498TIP3   OH246688   5.645   7.093   0.726  0.0708 -0.4650  0.1831
 7498TIP3    H146689   5.605   7.032   0.787 -0.3007  1.0036  1.4914
 7498TIP3    H246690   5.664   7.041   0.648 -0.1800 -2.2165  1.2452
 7499TIP3   OH246691   0.855   3.219   0.614 -0.7721  0.0931  0.0675
 7499TIP3    H146692   0.912   3.174   0.553  0.5742  2.2265 -0.3739
 7499TIP3    H246693   0.862   3.170   0.695  0.6020 -0.5079 -0.3845
 7500TIP3   OH246694   0.795   3.949   2.463 -0.2543 -0.2779 -0.5084
 7500TIP3    H146695   0.735   3.947   2.388  0.0451 -0.2994 -0.7492
 7500TIP3    H246696   0.836   3.862   2.463 -2.2469 -1.3165  1.3213
 7501TIP3   OH246697   4.354   2.322   0.626  0.3295  0.0073  0.0411
 7501TIP3    H146698   4.433   2.281   0.592  0.4872 -0.3455  0.8007
 7501TIP3    H246699   4.375   2.343   0.717 -0.1659  0.6802  0.0112
 7502TIP3   OH246700   4.895   7.181   0.530 -0.3234  0.5321 -0.4675
 7502TIP3    H146701   4.979   7.218   0.502 -0.6363  1.5421 -0.1011
 7502TIP3    H246702   4.918   7.095   0.566  0.3822  0.2200 -1.5802
 7503TIP3   OH246703   1.684   5.886   1.893  0.5709 -0.1484  0.0184
 7503TIP3    H146704   1.632   5.827   1.947  1.3828 -1.0936 -0.2056
 7503TIP3    H246705   1.696   5.964   1.948  1.6101 -1.1960  1.3489
 7504TIP3   OH246706   4.042   0.720   2.172 -0.1981 -0.5750  0.2247
 7504TIP3    H146707   4.034   0.675   2.256 -1.2205 -1.8921 -0.5258
 7504TIP3    H246708   4.060   0.650   2.109 -1.2861  0.1110 -0.9146
 7505TIP3   OH246709   5.870   2.877   0.978 -0.3996 -0.3471 -1.2445
 7505TIP3    H146710   5.800   2.928   0.936  0.8445  2.0526 -0.5594
 7505TIP3    H246711   5.946   2.935   0.977  0.4277 -1.2023  1.8364
 7506TIP3   OH246712   5.790   4.958   2.666 -0.1652 -0.2542  0.0115
 7506TIP3    H146713   5.748   5.020   2.607 -0.6603  0.8496  1.4641
 7506TIP3    H246714   5.877   4.945   2.630 -0.3433  0.6276 -0.7765
 7507TIP3   OH246715   2.789   1.821   1.939  0.1407  0.2115  0.4726
 7507TIP3    H146716   2.765   1.913   1.950  0.0167  0.0915  1.3009
 7507TIP3    H246717   2.747   1.794   1.857  0.4251  0.9672  0.0757
 7508TIP3   OH246718   3.827   1.720   1.043 -0.3040  0.4688 -0.0512
 7508TIP3    H146719   3.792   1.672   0.967 -0.0068 -1.4765  0.9655
 7508TIP3    H246720   3.919   1.693   1.048 -0.9061 -1.5378  2.4220
 7509TIP3   OH246721   3.288   5.587   1.429 -0.6293  0.5202 -0.1195
 7509TIP3    H146722   3.197   5.571   1.452  0.0124 -2.2574  0.8250
 7509TIP3    H246723   3.306   5.528   1.356  0.7870 -0.1781  0.7340
 7510TIP3   OH246724   6.409   6.567   2.160  0.3349  0.5831  0.5338
 7510TIP3    H146725   6.411   6.576   2.256 -1.9333 -0.5280  0.7503
 7510TIP3    H246726   6.319   6.591   2.136  1.1834  1.9893 -1.4876
 7511TIP3   OH246727   0.590   2.552   1.911  0.1708  0.3359  0.4527
 7511TIP3    H146728   0.567   2.463   1.935 -1.5807  0.2604 -1.2670
 7511TIP3    H246729   0.604   2.549   1.816  0.7780  1.7614  0.4626
 7512TIP3   OH246730   2.566   5.760   1.530  0.1358  0.4067 -0.0692
 7512TIP3    H146731   2.605   5.828   1.474  1.9934 -0.8443 -0.3772
 7512TIP3    H246732   2.585   5.789   1.619  2.2298 -0.3446 -0.2078
 7513TIP3   OH246733   6.881   2.565   1.502 -0.1327 -0.3151 -0.0573
 7513TIP3    H146734   6.790   2.535   1.495 -0.0817 -0.2394 -1.2387
 7513TIP3    H246735   6.932   2.495   1.462  0.2042  0.2408 -0.6135
 7514TIP3   OH246736   3.505   5.420   2.104 -0.1729 -0.1434  0.3099
 7514TIP3    H146737   3.499   5.508   2.067  2.2335  0.5066  1.2523
 7514TIP3    H246738   3.414   5.395   2.122 -1.0942  1.1605 -2.1085
 7515TIP3   OH246739   6.610   3.562   1.748  0.2012  0.0756  0.1577
 7515TIP3    H146740   6.677   3.571   1.680  0.8529  0.1918  0.7991
 7515TIP3    H246741   6.574   3.474   1.736  0.3308  0.0865 -0.3130
 7516TIP3   OH246742   2.483   3.119   1.775 -0.1933  0.2048  0.4794
 7516TIP3    H146743   2.477   3.030   1.741  0.2024  0.1928  0.4312
 7516TIP3    H246744   2.421   3.169   1.722  0.2746  0.1434 -0.1325
 7517TIP3   OH246745   6.153   1.097   0.640  0.2478 -0.2162 -0.5714
 7517TIP3    H146746   6.225   1.104   0.576  0.1235  0.2163 -0.6636
 7517TIP3    H246747   6.110   1.014   0.619  0.5378 -0.3326 -0.7065
 7518TIP3   OH246748   4.658   5.825   2.021 -0.6924 -0.0677 -0.2191
 7518TIP3    H146749   4.679   5.753   1.961 -1.7328  1.5206 -2.5978
 7518TIP3    H246750   4.744   5.857   2.049 -0.1952 -1.3050 -0.2343
 7519TIP3   OH246751   0.735   5.501   0.967 -0.1187 -0.3008 -0.6480
 7519TIP3    H146752   0.763   5.421   1.011  1.0892  0.8894  0.8594
 7519TIP3    H246753   0.640   5.504   0.982  0.1818 -0.1554  1.6376
 7520TIP3   OH246754   0.098   3.354   3.036  0.7592  0.3406  0.0157
 7520TIP3    H146755   0.063   3.412   2.969  1.5099  0.6825 -0.0892
 7520TIP3    H246756   0.095   3.267   2.997 -1.8303  0.0398  0.7379
 7521TIP3   OH246757   1.439   2.245   0.829 -0.1365  0.3560 -0.4408
 7521TIP3    H146758   1.466   2.153   0.836 -0.3013  0.3658  0.3848
 7521TIP3    H246759   1.343   2.242   0.823 -0.2287  0.5151  0.7007
 7522TIP3   OH246760   6.796   3.583   1.540  0.3890 -0.5321  0.0323
 7522TIP3    H146761   6.863   3.582   1.472  0.8363  1.4350  0.3628
 7522TIP3    H246762   6.716   3.613   1.496  0.5511  0.2392  0.2405
 7523TIP3   OH246763   5.571   3.561   1.876 -0.8119  0.7276  0.3074
 7523TIP3    H146764   5.647   3.617   1.864 -1.1796  0.9832 -1.0054
 7523TIP3    H246765   5.497   3.621   1.878 -1.1137  0.3794 -0.0584
 7524TIP3   OH246766   3.089   1.901   2.687 -0.0385  0.6910  0.2331
 7524TIP3    H146767   3.024   1.840   2.722  1.1056  0.8127  2.7382
 7524TIP3    H246768   3.125   1.945   2.764  1.5673  2.1173 -1.2486
 7525TIP3   OH246769   6.673   1.653   2.733  0.0655  0.0750 -0.2371
 7525TIP3    H146770   6.696   1.596   2.659  0.8098  2.5123 -2.0282
 7525TIP3    H246771   6.616   1.720   2.695  0.3288  1.3235  1.4169
 7526TIP3   OH246772   3.755   5.142   2.238  0.7376  0.5056  0.6291
 7526TIP3    H146773   3.670   5.101   2.255  1.1352 -0.1756  1.0100
 7526TIP3    H246774   3.800   5.079   2.181  0.8246  1.0626  0.0743
 7527TIP3   OH246775   4.948   2.902   1.004 -0.0680  0.3701  0.9683
 7527TIP3    H146776   4.914   2.824   0.960 -0.8657  1.2390 -0.0097
 7527TIP3    H246777   5.031   2.874   1.042  0.3678 -0.5917 -0.5959
 7528TIP3   OH246778   1.891   0.254   2.360 -0.4478  0.3079  0.0118
 7528TIP3    H146779   1.839   0.285   2.433  0.7960 -0.0989  1.1093
 7528TIP3    H246780   1.864   0.309   2.286 -2.2605  0.2333  0.5645
 7529TIP3   OH246781   0.695   4.310   2.329 -0.1781 -0.1509  0.0009
 7529TIP3    H146782   0.774   4.266   2.362 -0.6770 -2.5370 -1.7083
 7529TIP3    H246783   0.729   4.381   2.273  0.8515 -1.7155 -1.4500
 7530TIP3   OH246784   5.668   4.243   1.403  0.0568  0.5633  0.4327
 7530TIP3    H146785   5.706   4.324   1.436 -0.8631  0.6616  1.3094
 7530TIP3    H246786   5.733   4.209   1.342  1.1710  1.1413  1.2604
 7531TIP3   OH246787   1.577   4.090   3.317 -0.6937 -0.2924  0.3245
 7531TIP3    H146788   1.566   4.182   3.294 -1.3543 -0.9835 -2.6033
 7531TIP3    H246789   1.671   4.080   3.331 -0.7888  1.0907  2.3726
 7532TIP3   OH246790   1.614   6.720   0.508  1.0582 -0.4602 -0.5479
 7532TIP3    H146791   1.606   6.809   0.473  2.7135  0.7351  1.8394
 7532TIP3    H246792   1.574   6.724   0.595 -0.6584 -2.6403 -1.1416
 7533TIP3   OH246793   2.850   6.933   1.045 -0.4151 -0.3476 -0.2236
 7533TIP3    H146794   2.809   6.848   1.032  0.4287 -1.0189  1.1822
 7533TIP3    H246795   2.928   6.914   1.097  0.6162  1.1146 -1.1400
 7534TIP3   OH246796   0.320   3.191   0.755  0.3998 -0.1162  0.2526
 7534TIP3    H146797   0.384   3.221   0.690  1.1947 -0.5571  0.8127
 7534TIP3    H246798   0.273   3.121   0.710 -1.3270  1.7407 -0.9897
 7535TIP3   OH246799   4.846   5.107   1.088  0.1135 -0.8402  0.5536
 7535TIP3    H146800   4.916   5.143   1.032 -0.4051  1.5274  1.3100
 7535TIP3    H246801   4.775   5.088   1.028  0.7103 -1.4397  0.0189
 7536TIP3   OH246802   5.196   3.301   3.534  0.0629  0.1537 -0.5600
 7536TIP3    H146803   5.244   3.220   3.549 -0.1181  0.0495 -0.5315
 7536TIP3    H246804   5.104   3.275   3.540  0.0067  0.4063 -0.3134
 7537TIP3   OH246805   1.822   0.774   2.592  0.2471 -0.4995 -0.4715
 7537TIP3    H146806   1.881   0.704   2.566 -0.0547 -0.7011 -0.6207
 7537TIP3    H246807   1.792   0.749   2.679  1.9817  0.6419  0.5083
 7538TIP3   OH246808   3.143   3.414   2.121  0.1975  0.4607 -0.5920
 7538TIP3    H146809   3.239   3.416   2.122  0.2079  0.7187  1.2144
 7538TIP3    H246810   3.118   3.408   2.213 -1.5263 -0.3454 -1.0621
 7539TIP3   OH246811   5.069   1.123   3.048  0.2277 -0.2687 -0.4761
 7539TIP3    H146812   5.019   1.095   3.124  0.9762  0.9777  0.5222
 7539TIP3    H246813   5.126   1.049   3.027 -0.7333 -1.0214 -0.5233
 7540TIP3   OH246814   7.171   0.125   1.402  0.3888  0.0804  0.1404
 7540TIP3    H146815   7.195   0.085   1.485  0.9727  0.3312  0.1010
 7540TIP3    H246816   7.150   0.216   1.424  0.5824  0.1583  0.0153
 7541TIP3   OH246817   5.221   6.648   1.884 -0.4226  0.0405  0.0546
 7541TIP3    H146818   5.207   6.599   1.803 -1.1377 -0.0503  0.2273
 7541TIP3    H246819   5.242   6.737   1.854 -2.6819  0.5415 -0.2540
 7542TIP3   OH246820   7.461   7.391   0.678  0.0473  0.1442 -0.1137
 7542TIP3    H146821   7.420   7.354   0.755 -0.2779  2.0719  0.6877
 7542TIP3    H246822   7.484   7.480   0.703  2.3829 -0.0219 -1.3724
 7543TIP3   OH246823   6.193   0.612   0.739 -0.0410 -0.6665  0.6041
 7543TIP3    H146824   6.129   0.677   0.711 -0.0740 -0.2573  1.5871
 7543TIP3    H246825   6.147   0.529   0.736 -0.8148 -0.3018  1.8673
 7544TIP3   OH246826   3.841   1.211   1.190  0.3153  0.2665 -0.4423
 7544TIP3    H146827   3.798   1.269   1.252  0.7539 -0.3504  0.4601
 7544TIP3    H246828   3.804   1.235   1.105 -1.8932 -0.2997  0.2846
 7545TIP3   OH246829   6.050   6.748   3.211 -0.5730  0.4047  0.2240
 7545TIP3    H146830   6.076   6.798   3.288 -0.1861 -0.3372  0.5924
 7545TIP3    H246831   6.097   6.665   3.220 -2.5397 -0.7192  0.5476
 7546TIP3   OH246832   3.324   3.818   1.996  0.2554 -0.6278 -0.3067
 7546TIP3    H146833   3.379   3.807   2.074  1.3210  0.6850 -0.8283
 7546TIP3    H246834   3.253   3.755   2.007 -0.6353  0.7201  2.6286
 7547TIP3   OH246835   1.940   1.232   2.399  0.6718  0.1358 -0.4841
 7547TIP3    H146836   1.895   1.160   2.444 -1.1798  1.6601  0.2742
 7547TIP3    H246837   2.033   1.216   2.415  0.2248 -1.1353  1.1552
 7548TIP3   OH246838   1.281   7.292   0.671 -0.4005  0.3425 -0.0186
 7548TIP3    H146839   1.274   7.198   0.656  0.9273  0.4573 -1.6139
 7548TIP3    H246840   1.226   7.308   0.748 -0.2387 -1.8036  0.6078
 7549TIP3   OH246841   3.071   3.010   1.970  0.1657  0.0486 -0.2276
 7549TIP3    H146842   2.989   3.009   1.920  0.2552 -0.2871 -0.3645
 7549TIP3    H246843   3.052   3.067   2.044 -0.1265  0.1429 -0.3721
 7550TIP3   OH246844   0.651   5.813   0.867  0.1102  0.0528 -0.1177
 7550TIP3    H146845   0.627   5.809   0.959 -1.3216 -1.1568 -0.4971
 7550TIP3    H246846   0.720   5.747   0.858 -0.0731 -0.1601  0.0133
 7551TIP3   OH246847   4.952   0.355   1.986  0.2594  0.5131 -0.3883
 7551TIP3    H146848   4.936   0.354   1.891 -0.0675  1.1741 -0.3474
 7551TIP3    H246849   4.910   0.435   2.016  1.2845  0.8605  0.1606
 7552TIP3   OH246850   4.920   2.439   1.046  0.4343 -0.2885 -0.5349
 7552TIP3    H146851   4.972   2.506   1.090  0.9090 -1.0377  0.0818
 7552TIP3    H246852   4.953   2.357   1.082  0.4195 -0.8920 -1.8753
 7553TIP3   OH246853   5.419   5.665   1.671 -0.4401 -0.2394 -0.2209
 7553TIP3    H146854   5.384   5.582   1.702  0.6607 -0.4706  0.4534
 7553TIP3    H246855   5.511   5.646   1.652  0.1756  1.1247  1.2090
 7554TIP3   OH246856   1.462   2.332   1.090  0.1966 -0.4208  0.2351
 7554TIP3    H146857   1.457   2.326   0.994 -0.4287  0.1849  0.2248
 7554TIP3    H246858   1.471   2.425   1.108 -0.0964 -0.4958  0.7852
 7555TIP3   OH246859   0.562   0.882   0.684 -0.0412 -0.4140  0.5186
 7555TIP3    H146860   0.647   0.924   0.673 -0.0946 -0.8730 -2.3705
 7555TIP3    H246861   0.501   0.955   0.694  0.4874 -0.0283  1.0040
 7556TIP3   OH246862   7.257   2.285   2.483  0.2117 -0.2792 -0.4099
 7556TIP3    H146863   7.281   2.229   2.409 -0.6893 -2.2802  0.7532
 7556TIP3    H246864   7.162   2.281   2.486  0.2730 -1.9933  2.0947
 7557TIP3   OH246865   2.708   5.206   1.282  0.1914  0.0265 -0.3606
 7557TIP3    H146866   2.683   5.190   1.372 -0.2994  0.9791 -0.3113
 7557TIP3    H246867   2.631   5.247   1.242 -0.0185 -1.4269 -1.5342
 7558TIP3   OH246868   3.517   3.969   1.458  0.4303  0.1120 -0.0732
 7558TIP3    H146869   3.590   4.016   1.498  0.7046  0.1476 -0.6018
 7558TIP3    H246870   3.512   3.887   1.507  2.2035 -0.8453 -1.3455
 7559TIP3   OH246871   5.106   0.125   3.423 -0.5676  0.3303  0.1402
 7559TIP3    H146872   5.080   0.035   3.442 -0.0781 -0.0816 -1.0596
 7559TIP3    H246873   5.024   0.174   3.423 -0.8122 -0.0568  1.0567
 7560TIP3   OH246874   0.785   2.945   1.420  0.4194  0.3219 -1.0033
 7560TIP3    H146875   0.835   2.865   1.406 -1.0242 -0.5577 -1.3328
 7560TIP3    H246876   0.753   2.938   1.510  0.8765  0.8906 -0.7853
 7561TIP3   OH246877   0.862   7.101   0.991  0.2934  0.2262 -0.3649
 7561TIP3    H146878   0.938   7.084   0.936 -1.1535 -1.5540 -1.9783
 7561TIP3    H246879   0.792   7.120   0.928 -0.5654  2.1320  1.0710
 7562TIP3   OH246880   5.247   0.582   0.487 -0.0029 -0.1238  0.1587
 7562TIP3    H146881   5.195   0.514   0.444 -0.6724 -0.0218  0.7864
 7562TIP3    H246882   5.306   0.613   0.419 -1.6208  0.6320 -0.9560
 7563TIP3   OH246883   2.943   5.172   1.564  0.2343 -0.6414 -0.1271
 7563TIP3    H146884   2.999   5.202   1.493  0.0253 -0.8668 -0.3879
 7563TIP3    H246885   2.869   5.233   1.564  0.3068 -0.5515 -0.0037
 7564TIP3   OH246886   5.583   7.563   0.916 -0.0040  0.1831  0.0283
 7564TIP3    H146887   5.609   7.653   0.895 -0.2074  0.4865  1.0074
 7564TIP3    H246888   5.606   7.512   0.838 -0.3378  1.1649 -0.7250
 7565TIP3   OH246889   0.787   1.249   1.731 -0.3293 -0.0642 -0.1977
 7565TIP3    H146890   0.875   1.265   1.763 -0.3791 -1.3690  0.6949
 7565TIP3    H246891   0.798   1.233   1.637  0.4904 -0.8643  0.0178
 7566TIP3   OH246892   7.544   1.677   1.042 -0.2223  0.1735  0.3470
 7566TIP3    H146893   7.472   1.690   0.980  0.3608  1.2961 -0.1391
 7566TIP3    H246894   7.508   1.704   1.126 -0.7529 -0.5060  0.3452
 7567TIP3   OH246895   7.007   5.183   0.764  0.2859 -0.2110  0.1095
 7567TIP3    H146896   6.992   5.244   0.692  0.9670 -0.1889 -0.0213
 7567TIP3    H246897   7.042   5.105   0.722 -0.6346 -0.7231  0.2711
 7568TIP3   OH246898   2.566   3.393   0.965 -0.1504 -0.0008  0.3972
 7568TIP3    H146899   2.488   3.409   0.913 -0.6911 -2.7035  0.2028
 7568TIP3    H246900   2.536   3.398   1.056 -0.0658  0.9713  0.3781
 7569TIP3   OH246901   6.294   2.796   0.732 -0.3247 -0.2033 -0.4658
 7569TIP3    H146902   6.359   2.840   0.678 -0.1495 -0.5542 -0.5421
 7569TIP3    H246903   6.309   2.830   0.820 -0.7960  0.5808 -0.6767
 7570TIP3   OH246904   3.973   0.909   1.624 -0.3128 -0.2649  0.1829
 7570TIP3    H146905   3.880   0.917   1.646 -0.2235 -0.5213  0.6747
 7570TIP3    H246906   4.019   0.933   1.704  0.0535 -0.0224 -0.0939
 7571TIP3   OH246907   2.514   0.887   1.289  0.1647 -0.6386 -0.2016
 7571TIP3    H146908   2.597   0.898   1.243 -0.5929  0.5598 -1.3784
 7571TIP3    H246909   2.500   0.970   1.333 -0.4967 -0.7707 -0.1549
 7572TIP3   OH246910   2.973   6.340   0.992  0.6114 -0.1025 -0.1992
 7572TIP3    H146911   3.047   6.300   0.947  1.2762  1.9303 -1.0461
 7572TIP3    H246912   2.896   6.310   0.942  0.8121 -2.1110  0.5982
 7573TIP3   OH246913   1.756   3.608   2.385 -0.3582 -0.1501 -0.3623
 7573TIP3    H146914   1.688   3.676   2.393 -0.4211 -0.3107  0.5464
 7573TIP3    H246915   1.832   3.647   2.428  0.3315  0.2682 -1.8927
 7574TIP3   OH246916   2.891   3.528   1.276  0.0887 -0.0435 -0.3463
 7574TIP3    H146917   2.812   3.558   1.321 -0.2744 -0.6548 -0.5610
 7574TIP3    H246918   2.889   3.433   1.286 -1.6924 -0.6319 -4.2323
 7575TIP3   OH246919   0.364   0.671   1.991 -0.3295 -0.2808 -1.0446
 7575TIP3    H146920   0.378   0.752   2.040  3.0941 -0.3930 -1.6048
 7575TIP3    H246921   0.322   0.699   1.910  1.2837  1.0879 -1.4696
 7576TIP3   OH246922   0.443   5.078   2.807  0.3210 -0.7950 -0.4569
 7576TIP3    H146923   0.369   5.133   2.832  0.2747 -0.4880 -1.2226
 7576TIP3    H246924   0.491   5.131   2.743  3.4323  0.7085  2.7620
 7577TIP3   OH246925   4.355   4.637   2.623 -0.1013 -0.2941 -0.2307
 7577TIP3    H146926   4.401   4.556   2.598  1.4834  0.2355  0.8541
 7577TIP3    H246927   4.299   4.656   2.548  1.8307 -0.6993 -1.8637
 7578TIP3   OH246928   6.231   5.337   1.292  0.0553 -0.2129  0.5341
 7578TIP3    H146929   6.292   5.394   1.338 -0.1831 -0.7153  1.4980
 7578TIP3    H246930   6.145   5.364   1.323 -0.1093 -0.6064  0.4251
 7579TIP3   OH246931   2.535   4.557   1.648  0.4599  0.2929 -0.0658
 7579TIP3    H146932   2.514   4.554   1.742 -0.5747 -1.7101 -0.3021
 7579TIP3    H246933   2.624   4.524   1.643  0.3476 -0.0597  0.1840
 7580TIP3   OH246934   0.683   0.113   1.654 -0.6449 -0.2414  0.2918
 7580TIP3    H146935   0.660   0.153   1.570  0.5353 -0.4738 -0.1730
 7580TIP3    H246936   0.601   0.107   1.702 -1.4893 -0.8178 -1.1601
 7581TIP3   OH246937   4.982   1.565   3.388  0.2131  0.1009  0.2138
 7581TIP3    H146938   5.041   1.607   3.450 -2.4047  0.4555  2.7019
 7581TIP3    H246939   4.935   1.638   3.347  0.5733 -0.2175 -0.7958
 7582TIP3   OH246940   2.594   0.219   1.971  0.2136  0.1572  0.0739
 7582TIP3    H146941   2.584   0.211   1.877 -0.2122 -1.9440  0.2498
 7582TIP3    H246942   2.535   0.290   1.996 -1.0443 -0.4528 -1.0362
 7583TIP3   OH246943   1.853   3.148   2.180  0.6841 -0.3549 -0.0701
 7583TIP3    H146944   1.893   3.187   2.258  0.4753 -0.2718 -0.0039
 7583TIP3    H246945   1.920   3.157   2.112  1.5898 -2.0786  0.5404
 7584TIP3   OH246946   1.576   0.877   1.046 -0.1378 -0.0103  0.2578
 7584TIP3    H146947   1.522   0.798   1.039  0.5395 -0.5186  0.6635
 7584TIP3    H246948   1.529   0.942   0.994  1.1306 -1.6614 -3.3790
 7585TIP3   OH246949   1.094   5.633   2.812 -0.0584  0.4518 -0.8576
 7585TIP3    H146950   1.068   5.572   2.881  0.1509 -0.8098 -1.8623
 7585TIP3    H246951   1.029   5.703   2.816  1.4885  1.9823  2.4753
 7586TIP3   OH246952   6.066   6.267   3.440 -0.0957 -0.3130 -0.8085
 7586TIP3    H146953   6.020   6.228   3.366  0.5882 -0.5519 -1.1214
 7586TIP3    H246954   6.011   6.340   3.467 -1.2223 -1.2672 -0.4414
 7587TIP3   OH246955   2.974   6.726   2.167 -0.5336  0.4030  0.2390
 7587TIP3    H146956   2.965   6.801   2.109 -1.9463  1.2273  1.4785
 7587TIP3    H246957   2.983   6.763   2.254 -0.5259 -0.8469  0.7957
 7588TIP3   OH246958   2.666   2.313   0.708  0.3548  0.0293  0.1023
 7588TIP3    H146959   2.580   2.347   0.734  0.2779  0.2413 -0.4262
 7588TIP3    H246960   2.647   2.254   0.635  0.7043  0.3905 -0.2792
 7589TIP3   OH246961   1.591   0.453   1.161  0.2351  0.2272  0.5774
 7589TIP3    H146962   1.545   0.485   1.238 -2.3259  0.6242 -1.0117
 7589TIP3    H246963   1.564   0.512   1.090  1.2985 -1.0006 -0.9314
 7590TIP3   OH246964   0.300   6.632   0.753  0.4661  0.2982 -0.2263
 7590TIP3    H146965   0.328   6.723   0.745  0.3039  0.3915  0.2355
 7590TIP3    H246966   0.211   6.631   0.716  0.7610  0.1683 -0.9406
 7591TIP3   OH246967   3.268   3.235   1.883 -0.3609 -0.5314  0.2510
 7591TIP3    H146968   3.245   3.235   1.976 -0.7096  0.6506  0.1880
 7591TIP3    H246969   3.295   3.145   1.864  2.4163 -0.2054  2.1455
 7592TIP3   OH246970   2.524   2.091   1.107 -0.0532  0.4101  0.0518
 7592TIP3    H146971   2.472   2.092   1.027 -1.0021  2.5332  0.6059
 7592TIP3    H246972   2.573   2.174   1.104 -0.0914  0.5222  1.6249
 7593TIP3   OH246973   3.752   7.370   2.052  0.1424 -0.8952  0.6534
 7593TIP3    H146974   3.690   7.418   1.998  0.3203  0.0589  1.2817
 7593TIP3    H246975   3.803   7.438   2.096  1.6076 -1.6464  0.1832
 7594TIP3   OH246976   3.557   4.042   0.600 -0.5375 -0.0195 -0.1371
 7594TIP3    H146977   3.605   4.108   0.651 -1.5084  0.6509 -0.0745
 7594TIP3    H246978   3.624   4.003   0.543  0.2571  0.2778  0.5678
 7595TIP3   OH246979   5.940   5.050   1.247 -0.3963  0.1686 -0.1722
 7595TIP3    H146980   5.857   5.019   1.285 -0.3570  0.7393  0.3903
 7595TIP3    H246981   5.996   5.066   1.323  0.3617 -0.5465 -0.5579
 7596TIP3   OH246982   6.952   3.579   1.281 -0.1229  0.5482  0.2260
 7596TIP3    H146983   7.022   3.597   1.218 -0.2868  2.0897  0.4469
 7596TIP3    H246984   6.962   3.486   1.301  0.2024  0.1042 -1.7344
 7597TIP3   OH246985   6.122   5.671   1.296  0.0275 -0.8271 -0.3767
 7597TIP3    H146986   6.028   5.684   1.280 -0.3790 -0.6338  1.9206
 7597TIP3    H246987   6.133   5.689   1.389  2.5559  0.2630 -0.8110
 7598TIP3   OH246988   7.296   6.805   1.982  0.3730 -0.0776 -0.7613
 7598TIP3    H146989   7.274   6.714   1.965  1.0036 -0.2097 -0.9330
 7598TIP3    H246990   7.315   6.841   1.895  1.3853 -0.1408 -0.5867
 7599TIP3   OH246991   6.667   3.760   0.987  0.5946  0.3821  0.3897
 7599TIP3    H146992   6.610   3.686   0.969 -1.0462  1.7437 -0.2714
 7599TIP3    H246993   6.706   3.783   0.903  0.9493  0.4009  0.5542
 7600TIP3   OH246994   5.260   1.751   1.413  0.0455  0.0987 -0.1612
 7600TIP3    H146995   5.349   1.785   1.428  0.5539 -1.0526 -0.4360
 7600TIP3    H246996   5.225   1.736   1.501  0.9713 -1.5091 -0.0294
 7601TIP3   OH246997   3.276   0.351   0.827 -0.4020  0.6421 -0.4753
 7601TIP3    H146998   3.240   0.290   0.892  2.1179  1.0279  1.4408
 7601TIP3    H246999   3.199   0.384   0.781 -2.5046  0.7715  2.7466
 7602TIP3   OH247000   6.873   0.333   1.278  0.6396 -0.3880  0.0487
 7602TIP3    H147001   6.872   0.320   1.373  0.8145  0.6420  0.1951
 7602TIP3    H247002   6.963   0.358   1.258  0.9615 -1.9202 -0.5933
 7603TIP3   OH247003   3.619   1.246   2.429  0.1645 -0.1135 -0.2219
 7603TIP3    H147004   3.584   1.161   2.455  0.9317 -0.5921 -0.6983
 7603TIP3    H247005   3.614   1.245   2.333 -1.8425  1.2719 -0.1706
 7604TIP3   OH247006   0.142   2.726   2.404 -0.1077  0.0731 -0.6182
 7604TIP3    H147007   0.146   2.819   2.379  0.5656  0.0235 -0.7020
 7604TIP3    H247008   0.201   2.682   2.344 -0.5093 -0.4362 -0.6513
 7605TIP3   OH247009   5.584   5.889   0.934 -0.5902 -0.0707 -0.4397
 7605TIP3    H147010   5.650   5.837   0.888  1.3010  2.1877 -0.4042
 7605TIP3    H247011   5.545   5.828   0.997  0.9857 -1.6220 -0.9011
 7606TIP3   OH247012   4.729   0.236   2.704 -0.3049 -0.1015 -0.7377
 7606TIP3    H147013   4.810   0.202   2.743  0.2914  0.9020 -1.0732
 7606TIP3    H247014   4.758   0.299   2.639 -1.3513  2.5599  1.2046
 7607TIP3   OH247015   7.234   2.389   1.791  0.3494  0.3672  0.2132
 7607TIP3    H147016   7.145   2.384   1.754  0.3014  1.6969  0.1069
 7607TIP3    H247017   7.278   2.456   1.739  2.5762 -2.5366 -2.0287
 7608TIP3   OH247018   5.377   3.610   0.659 -0.3265  0.4247 -0.0956
 7608TIP3    H147019   5.297   3.627   0.610 -2.1233  1.0594  2.8121
 7608TIP3    H247020   5.401   3.695   0.695  0.2849 -0.1959  0.9969
 7609TIP3   OH247021   2.421   2.352   2.344 -0.1858  0.2750 -0.1733
 7609TIP3    H147022   2.433   2.335   2.437  0.0690  4.4222  0.7331
 7609TIP3    H247023   2.509   2.340   2.307  0.0758  0.2441  0.4418
 7610TIP3   OH247024   4.484   7.482   3.278 -0.1802  0.7566  0.4587
 7610TIP3    H147025   4.446   7.530   3.352 -2.3642 -0.8376  0.4818
 7610TIP3    H247026   4.410   7.433   3.241  1.1033  0.5433 -2.0416
 7611TIP3   OH247027   7.210   5.745   1.409  0.3846  0.4262 -0.8943
 7611TIP3    H147028   7.261   5.666   1.429 -0.3320  0.0617 -0.4778
 7611TIP3    H247029   7.193   5.784   1.495 -1.6420 -0.4674 -0.8474
 7612TIP3   OH247030   2.202   0.701   2.732 -0.3541 -0.2752  0.1698
 7612TIP3    H147031   2.202   0.607   2.748  1.4877 -0.4940 -0.7913
 7612TIP3    H247032   2.286   0.718   2.687  0.3033  2.1224  2.0684
 7613TIP3   OH247033   1.758   5.508   1.000 -0.0889 -0.3901  0.5643
 7613TIP3    H147034   1.690   5.564   0.963  0.8099 -0.3801 -1.1851
 7613TIP3    H247035   1.840   5.556   0.984  0.4493 -0.9471  1.5409
 7614TIP3   OH247036   0.177   0.277   3.358  0.0796 -0.5656 -0.1745
 7614TIP3    H147037   0.170   0.367   3.326 -1.3848  0.1309  1.8878
 7614TIP3    H247038   0.266   0.251   3.336  0.3329  1.1563 -1.3873
 7615TIP3   OH247039   1.049   2.417   0.979 -0.3069 -0.1080 -0.2741
 7615TIP3    H147040   1.128   2.469   0.967 -0.3696 -0.3090 -1.7827
 7615TIP3    H247041   1.035   2.415   1.074  1.7182 -0.4066  0.0598
 7616TIP3   OH247042   3.548   3.124   0.702  0.5896 -0.4987  0.3454
 7616TIP3    H147043   3.557   3.219   0.689  0.2083 -0.4426  0.4832
 7616TIP3    H247044   3.610   3.086   0.641 -0.5815 -0.2272 -1.0537
 7617TIP3   OH247045   6.246   7.428   1.183 -0.0126 -0.4484  0.4482
 7617TIP3    H147046   6.253   7.372   1.105  0.6819 -0.5931  0.6086
 7617TIP3    H247047   6.152   7.429   1.203 -0.3108  0.1965 -0.8329
 7618TIP3   OH247048   3.397   4.592   1.855  0.0020  0.5909  0.5018
 7618TIP3    H147049   3.316   4.562   1.815 -0.5288  1.0493  1.2037
 7618TIP3    H247050   3.441   4.513   1.886  0.3826  0.2412 -0.8868
 7619TIP3   OH247051   0.965   5.980   1.969 -0.0185 -0.1298 -0.0067
 7619TIP3    H147052   1.020   5.957   2.044  0.0816 -0.4444 -0.1738
 7619TIP3    H247053   0.876   5.957   1.996  0.2777 -2.6793 -0.8899
 7620TIP3   OH247054   2.014   6.026   2.627  0.6247 -0.1908  0.2470
 7620TIP3    H147055   2.096   6.076   2.629  0.4121  0.1786  0.0139
 7620TIP3    H247056   1.981   6.032   2.716 -0.8717  2.6299 -0.3602
 7621TIP3   OH247057   1.522   5.916   1.664  0.6307  0.4304  0.1052
 7621TIP3    H147058   1.429   5.901   1.682  0.1753  1.3428 -1.2947
 7621TIP3    H247059   1.563   5.925   1.750 -0.3989 -0.9228  0.7697
 7622TIP3   OH247060   2.627   4.231   2.257  0.2029 -0.0447 -0.1762
 7622TIP3    H147061   2.660   4.320   2.244 -2.6397  1.2439  0.6608
 7622TIP3    H247062   2.687   4.192   2.321  0.8909  1.6546  0.2576
 7623TIP3   OH247063   1.848   6.976   1.500  0.2516  0.4325 -0.4760
 7623TIP3    H147064   1.859   6.971   1.594 -0.2416  1.8099 -0.3225
 7623TIP3    H247065   1.767   6.928   1.482  0.0759  0.6003 -0.1323
 7624TIP3   OH247066   7.347   6.399   0.616 -0.1455  0.5080  0.0171
 7624TIP3    H147067   7.268   6.452   0.605 -0.5599  0.0813  0.8223
 7624TIP3    H247068   7.391   6.437   0.691  0.1470  0.4155 -0.1058
 7625TIP3   OH247069   2.683   7.050   2.842  0.0989  0.6064 -0.0468
 7625TIP3    H147070   2.749   7.081   2.904 -0.6262 -0.4254  1.2838
 7625TIP3    H247071   2.600   7.083   2.875 -0.4245 -0.8643  0.1762
 7626TIP3   OH247072   5.349   2.182   0.989 -0.0444 -0.3673  0.2398
 7626TIP3    H147073   5.316   2.105   0.943  0.3475  1.2358 -2.9665
 7626TIP3    H247074   5.436   2.196   0.954  0.4460  0.7863  1.7942
 7627TIP3   OH247075   4.699   3.900   1.879  0.4871  0.3409  0.1116
 7627TIP3    H147076   4.652   3.847   1.945 -1.4020  1.0776 -0.5612
 7627TIP3    H247077   4.651   3.983   1.877  0.3368  0.2654 -2.3510
 7628TIP3   OH247078   3.935   2.280   0.544 -0.1416  0.2699 -0.6704
 7628TIP3    H147079   3.891   2.236   0.617  0.0176  0.0509 -0.7047
 7628TIP3    H247080   3.883   2.359   0.529  0.2323  0.6839  0.1428
 7629TIP3   OH247081   4.517   6.967   1.476  0.7109 -0.2364  0.7620
 7629TIP3    H147082   4.494   7.052   1.437  0.3689  0.4033  2.2878
 7629TIP3    H247083   4.593   6.986   1.530  0.6147 -0.8947  1.1338
 7630TIP3   OH247084   6.146   7.348   1.769  0.1944 -0.3273 -0.0412
 7630TIP3    H147085   6.232   7.379   1.740 -0.5423  0.4068 -1.6239
 7630TIP3    H247086   6.139   7.259   1.733  0.0275 -0.1195 -0.5360
 7631TIP3   OH247087   3.086   4.912   1.422 -0.4307 -0.2559 -0.0847
 7631TIP3    H147088   3.135   4.856   1.482  1.2634 -0.0538 -1.2025
 7631TIP3    H247089   3.080   4.996   1.466 -0.6254 -0.5582  0.4698
 7632TIP3   OH247090   1.325   0.438   2.830  0.2955  0.5504 -0.2373
 7632TIP3    H147091   1.409   0.425   2.786 -0.0332  0.1772 -0.7525
 7632TIP3    H247092   1.259   0.413   2.765 -0.3162  2.9431 -0.6630
 7633TIP3   OH247093   1.360   1.107   1.462 -0.0332  0.0165  0.0027
 7633TIP3    H147094   1.276   1.151   1.475 -0.2723 -0.4714  0.1196
 7633TIP3    H247095   1.339   1.014   1.460  0.8967 -0.3847  3.3252
 7634TIP3   OH247096   1.524   4.689   1.554 -0.4754  0.1984  0.4764
 7634TIP3    H147097   1.439   4.646   1.544  0.4388 -1.2290 -2.0089
 7634TIP3    H247098   1.528   4.751   1.481  0.7267  0.0167  0.3751
 7635TIP3   OH247099   2.651   2.526   0.376 -0.0319  0.5125  0.2672
 7635TIP3    H147100   2.737   2.550   0.341 -0.1442 -0.5582 -0.8168
 7635TIP3    H247101   2.611   2.609   0.402  0.4714  1.2550 -1.2463
 7636TIP3   OH247102   0.338   5.266   2.604  0.9274  0.2200  0.0472
 7636TIP3    H147103   0.296   5.294   2.685  3.7041 -0.2733  1.7929
 7636TIP3    H247104   0.288   5.188   2.577 -0.1874  0.5176  1.1461
 7637TIP3   OH247105   3.800   5.853   2.135 -0.5502  0.1044 -0.1758
 7637TIP3    H147106   3.837   5.928   2.089 -0.2239  0.9319  1.3595
 7637TIP3    H247107   3.708   5.876   2.150 -0.2948  0.5298  0.8701
 7638TIP3   OH247108   5.607   1.965   1.945  0.0563  0.3122 -0.2636
 7638TIP3    H147109   5.606   2.056   1.975 -0.0337 -0.3263  1.8269
 7638TIP3    H247110   5.515   1.943   1.929 -0.0045  0.3172  0.0895
 7639TIP3   OH247111   7.350   5.635   2.286  0.3963 -0.1501 -0.0275
 7639TIP3    H147112   7.416   5.678   2.232  0.0027  1.9316  1.0415
 7639TIP3    H247113   7.282   5.609   2.225 -0.9227  3.7780 -0.5293
 7640TIP3   OH247114   2.526   5.496   1.490 -0.3391  0.3272  0.0576
 7640TIP3    H147115   2.542   5.448   1.571 -2.0562  0.3806  0.4854
 7640TIP3    H247116   2.537   5.588   1.514 -0.1653  0.3032  0.0658
 7641TIP3   OH247117   4.089   3.271   2.005 -0.0770 -0.1475  0.1360
 7641TIP3    H147118   4.113   3.288   2.097 -1.9102 -0.1536  0.6535
 7641TIP3    H247119   3.994   3.269   2.006 -0.2443  2.0679 -2.1774
 7642TIP3   OH247120   6.414   6.267   0.842  0.4249  0.0231  0.3543
 7642TIP3    H147121   6.439   6.317   0.765  1.5359  0.8474  1.2086
 7642TIP3    H247122   6.419   6.176   0.814  0.2692  0.3243 -0.6918
 7643TIP3   OH247123   2.326   4.243   0.994 -0.2944 -0.2331 -0.0370
 7643TIP3    H147124   2.313   4.328   0.951 -0.2261 -0.6660 -0.9311
 7643TIP3    H247125   2.320   4.263   1.087 -2.1914  0.4582 -0.2493
 7644TIP3   OH247126   0.102   3.360   1.880 -0.0883 -0.2546 -0.0853
 7644TIP3    H147127   0.120   3.289   1.941 -0.5266 -1.0865 -0.8892
 7644TIP3    H247128   0.188   3.385   1.846  0.0081 -0.8789 -0.3110
 7645TIP3   OH247129   1.854   7.106   2.945 -0.4986  0.2838 -0.1196
 7645TIP3    H147130   1.821   7.193   2.965 -3.3548 -0.9003  0.8580
 7645TIP3    H247131   1.810   7.082   2.863 -0.5039 -0.5540  0.1137
 7646TIP3   OH247132   0.751   4.994   0.775 -0.3990  0.0808  0.4838
 7646TIP3    H147133   0.681   4.931   0.756  1.1121 -1.1453 -1.3246
 7646TIP3    H247134   0.773   5.032   0.690 -0.2675  2.0241  1.3355
 7647TIP3   OH247135   0.539   1.327   1.564  0.0159 -0.8672 -0.1512
 7647TIP3    H147136   0.494   1.399   1.608 -0.1730 -0.3660 -1.1418
 7647TIP3    H247137   0.586   1.282   1.634 -0.3534 -0.1509  0.5758
 7648TIP3   OH247138   7.283   1.317   0.878 -0.0426  0.1486 -0.5536
 7648TIP3    H147139   7.331   1.299   0.960 -0.0190 -1.2793 -0.8654
 7648TIP3    H247140   7.345   1.369   0.826 -0.2565  1.5611  0.5154
 7649TIP3   OH247141   0.929   2.742   2.284  0.0699 -0.1695 -0.2734
 7649TIP3    H147142   0.953   2.806   2.351  1.0849  0.3033 -1.0649
 7649TIP3    H247143   1.000   2.678   2.284  0.9953  0.7831 -2.0658
 7650TIP3   OH247144   1.988   5.289   1.011 -0.5020  0.2383 -0.1488
 7650TIP3    H147145   2.062   5.344   0.986  0.3243 -0.2210  1.1615
 7650TIP3    H247146   1.916   5.318   0.956  1.0988 -0.5410 -2.8585
 7651TIP3   OH247147   5.960   2.387   1.598  0.0260 -0.1394  0.0231
 7651TIP3    H147148   5.910   2.365   1.519  0.6795 -0.1375 -0.3970
 7651TIP3    H247149   6.030   2.445   1.567 -0.0886  0.3807  0.7069
 7652TIP3   OH247150   5.193   3.753   2.129 -0.2290  0.0479 -0.0577
 7652TIP3    H147151   5.154   3.791   2.050 -0.1202 -0.6253 -0.4536
 7652TIP3    H247152   5.285   3.776   2.124 -0.2946  0.3411  0.0795
 7653TIP3   OH247153   5.312   4.102   1.353  0.1632  0.3498  0.1180
 7653TIP3    H147154   5.301   4.123   1.446 -0.0907  0.5551  0.0452
 7653TIP3    H247155   5.331   4.008   1.351 -1.3473  0.0130  0.2862
 7654TIP3   OH247156   2.143   4.429   1.658 -0.0906 -0.3149 -0.2484
 7654TIP3    H147157   2.062   4.416   1.609 -0.2979 -2.7768  0.6335
 7654TIP3    H247158   2.210   4.439   1.591 -0.8911  0.2386 -0.9964
 7655TIP3   OH247159   5.356   0.946   1.447  0.4877 -0.6188  0.4983
 7655TIP3    H147160   5.279   0.948   1.504 -1.1397  0.0600 -1.5781
 7655TIP3    H247161   5.363   0.855   1.418 -0.2443 -0.4797 -0.1570
 7656TIP3   OH247162   2.330   5.249   2.457 -0.3836 -0.2278 -0.1748
 7656TIP3    H147163   2.318   5.238   2.551 -1.8460 -1.4473 -0.4648
 7656TIP3    H247164   2.297   5.337   2.439 -1.6591 -0.6054  0.2335
 7657TIP3   OH247165   7.150   5.993   2.600 -0.3129  0.2813  0.4746
 7657TIP3    H147166   7.056   5.991   2.621 -0.5525 -0.0438 -0.5721
 7657TIP3    H247167   7.178   6.080   2.628 -1.1343  0.7253 -0.0181
 7658TIP3   OH247168   6.059   1.958   1.105  0.0985 -0.4416  0.1560
 7658TIP3    H147169   6.116   1.910   1.045  0.1966 -1.4448  1.0305
 7658TIP3    H247170   6.010   1.890   1.152 -0.0790  0.3173  1.1052
 7659TIP3   OH247171   6.240   1.999   2.147  0.4176 -0.2522  0.3628
 7659TIP3    H147172   6.326   1.990   2.105  0.2682  1.8984 -0.5230
 7659TIP3    H247173   6.186   1.931   2.106  1.5494 -1.3377  0.6138
 7660TIP3   OH247174   1.709   0.781   1.281 -0.0202  0.4765  0.0609
 7660TIP3    H147175   1.774   0.736   1.227 -1.4708 -2.1840  0.3499
 7660TIP3    H247176   1.717   0.873   1.257  2.6978  0.0327 -1.0724
 7661TIP3   OH247177   1.206   2.907   0.431  0.2481  0.3339 -0.2655
 7661TIP3    H147178   1.295   2.890   0.401  0.6727 -0.3767  1.2995
 7661TIP3    H247179   1.182   2.828   0.480 -0.0871  1.7106  1.9068
 7662TIP3   OH247180   2.881   4.532   3.044 -0.1048  1.2155  0.6744
 7662TIP3    H147181   2.842   4.455   3.084  0.8643 -0.7630 -1.8704
 7662TIP3    H247182   2.973   4.530   3.071  0.3951  0.2512 -0.9769
 7663TIP3   OH247183   3.068   4.262   0.941 -0.2570  0.2161  0.4995
 7663TIP3    H147184   3.061   4.239   0.848 -1.4853 -1.1874  0.8927
 7663TIP3    H247185   3.007   4.335   0.951  0.5769  0.9989  0.0437
 7664TIP3   OH247186   5.960   5.851   2.270  0.0856 -0.0909 -0.0258
 7664TIP3    H147187   5.874   5.823   2.301  0.5553 -0.6279  0.8449
 7664TIP3    H247188   5.983   5.787   2.203 -0.4056  0.3492 -0.6210
 7665TIP3   OH247189   2.487   1.444   2.022 -0.6279  0.5094  0.5482
 7665TIP3    H147190   2.524   1.499   2.090  0.4399  0.5905 -0.0768
 7665TIP3    H247191   2.450   1.505   1.958 -0.8218  0.4616  0.6153
 7666TIP3   OH247192   7.143   6.936   2.170  0.7282  0.1270 -0.1325
 7666TIP3    H147193   7.065   6.887   2.147  0.8623 -1.4769  2.3523
 7666TIP3    H247194   7.215   6.889   2.126  0.4964  0.3634 -0.7665
 7667TIP3   OH247195   1.693   7.259   1.952  0.4418  0.1018  0.4285
 7667TIP3    H147196   1.608   7.217   1.938  1.1417 -1.1026 -0.3197
 7667TIP3    H247197   1.747   7.192   1.993  1.7026  0.0817 -1.1514
 7668TIP3   OH247198   3.350   7.212   1.369  0.5404 -0.0780  0.2750
 7668TIP3    H147199   3.407   7.255   1.432 -1.1624  1.1781  1.0284
 7668TIP3    H247200   3.300   7.283   1.329 -2.4838 -1.2829  1.6700
 7669TIP3   OH247201   1.756   2.382   2.235  0.3102 -0.5974 -0.5317
 7669TIP3    H147202   1.827   2.334   2.195  1.9925  1.5911 -0.3620
 7669TIP3    H247203   1.767   2.472   2.205 -0.8408  0.3162  1.5290
 7670TIP3   OH247204   5.788   3.306   1.522  0.4779 -0.4687  0.3050
 7670TIP3    H147205   5.842   3.383   1.503 -0.6771  0.0271 -1.1407
 7670TIP3    H247206   5.740   3.330   1.601 -1.3675  1.1742 -1.2209
 7671TIP3   OH247207   7.269   4.158   0.621  0.3744 -0.2011 -0.1079
 7671TIP3    H147208   7.206   4.173   0.692 -0.0766  1.6807 -0.8335
 7671TIP3    H247209   7.236   4.081   0.576 -2.0170  1.2531 -1.0300
 7672TIP3   OH247210   7.460   1.617   1.372  0.6183  0.3522  0.2977
 7672TIP3    H147211   7.404   1.540   1.363  0.7808  0.2954 -0.3073
 7672TIP3    H247212   7.401   1.688   1.395 -0.0100  0.6741 -1.9903
 7673TIP3   OH247213   1.318   5.785   0.645  0.3614  0.1032  0.3879
 7673TIP3    H147214   1.341   5.871   0.610  0.5058 -0.2793 -0.5069
 7673TIP3    H247215   1.272   5.803   0.727 -0.6233  1.0819 -0.3504
 7674TIP3   OH247216   5.102   1.157   1.429 -0.6358  0.0653  0.4063
 7674TIP3    H147217   5.153   1.158   1.348 -1.1185  1.1691  0.1132
 7674TIP3    H247218   5.122   1.240   1.472 -2.0752  0.4506  0.3614
 7675TIP3   OH247219   6.440   2.302   1.628  0.2698  0.0443 -0.5538
 7675TIP3    H147220   6.422   2.388   1.665 -0.4142  0.3864 -1.6664
 7675TIP3    H247221   6.366   2.284   1.569 -0.2918 -1.8717  0.6260
 7676TIP3   OH247222   4.397   4.304   0.629 -0.0028  0.1703  0.3348
 7676TIP3    H147223   4.434   4.219   0.605 -0.6825  0.1563 -0.7629
 7676TIP3    H247224   4.330   4.283   0.694 -1.1530 -0.3376 -0.9558
 7677TIP3   OH247225   1.693   6.025   1.461 -0.1166 -0.5157  0.3057
 7677TIP3    H147226   1.640   5.990   1.533  0.6983  0.9661  1.6835
 7677TIP3    H247227   1.782   5.998   1.482  0.0699 -0.4863 -0.4202
 7678TIP3   OH247228   1.621   2.812   2.028  0.1371 -0.3695  0.0211
 7678TIP3    H147229   1.527   2.805   2.047  0.0650 -1.2189 -0.5744
 7678TIP3    H247230   1.628   2.882   1.964 -0.1960 -0.8204 -0.5221
 7679TIP3   OH247231   5.256   2.475   0.949 -0.2524 -0.2600 -0.1103
 7679TIP3    H147232   5.285   2.390   0.983  0.3866  0.5143  1.3649
 7679TIP3    H247233   5.196   2.508   1.015  0.7046  1.1152  0.1202
 7680TIP3   OH247234   2.215   5.579   2.004 -0.0902  0.0804  0.2030
 7680TIP3    H147235   2.220   5.564   1.909  0.1489 -0.5611  0.3160
 7680TIP3    H247236   2.155   5.654   2.013 -0.0778  0.1764 -0.4547
 7681TIP3   OH247237   6.695   2.554   3.068 -0.1734 -0.1098  0.0742
 7681TIP3    H147238   6.686   2.493   3.141  2.4605 -0.3048  0.3374
 7681TIP3    H247239   6.626   2.618   3.081 -2.2637 -2.2821  0.4940
 7682TIP3   OH247240   7.206   0.022   0.491  0.2579  0.8869 -0.3373
 7682TIP3    H147241   7.292   0.051   0.524 -0.4917  0.7664  1.8775
 7682TIP3    H247242   7.150   0.099   0.501 -0.1998  0.5837 -0.5701
 7683TIP3   OH247243   6.313   5.230   2.444  0.3577  0.2049  0.0508
 7683TIP3    H147244   6.405   5.235   2.417 -0.0600  0.4068 -1.3838
 7683TIP3    H247245   6.317   5.219   2.539  1.9119 -2.2985 -0.2199
 7684TIP3   OH247246   1.985   0.009   1.615  0.3833 -0.0773 -0.0540
 7684TIP3    H147247   1.926   0.055   1.675  1.0535 -2.2255  2.4419
 7684TIP3    H247248   1.926  -0.038   1.555 -0.2979  2.2753 -1.3540
 7685TIP3   OH247249   2.292   5.483   2.284  0.7532 -0.1808 -0.3429
 7685TIP3    H147250   2.259   5.483   2.195 -0.8005  0.9172  0.1850
 7685TIP3    H247251   2.217   5.508   2.338  1.5705 -1.0672  1.3126
 7686TIP3   OH247252   6.298   5.865   1.895 -0.7068  0.1969 -0.0205
 7686TIP3    H147253   6.240   5.789   1.898 -0.0253 -0.3787 -1.0228
 7686TIP3    H247254   6.320   5.876   1.803  1.2875 -0.0142  0.3800
 7687TIP3   OH247255   3.761   3.341   2.454  0.3320 -0.1418  0.1725
 7687TIP3    H147256   3.777   3.285   2.378 -3.5351 -0.5327 -0.5784
 7687TIP3    H247257   3.779   3.286   2.530  0.4726 -1.0366 -0.4977
 7688TIP3   OH247258   4.394   3.294   1.467 -0.4884 -0.8421  0.3425
 7688TIP3    H147259   4.314   3.242   1.454 -1.0972  0.4536 -1.5218
 7688TIP3    H247260   4.450   3.272   1.393 -0.0390 -0.1341  0.4584
 7689TIP3   OH247261   4.356   7.198   2.688  0.9094  0.6260  0.2389
 7689TIP3    H147262   4.365   7.104   2.700 -1.0710  0.2910 -0.5716
 7689TIP3    H247263   4.289   7.225   2.751  1.7387  1.5725  0.7461
 7690TIP3   OH247264   0.286   3.459   3.757  0.0058 -0.5927  0.8571
 7690TIP3    H147265   0.354   3.404   3.797  0.2465 -1.9739 -1.2768
 7690TIP3    H247266   0.219   3.397   3.729 -0.7927  0.4589  0.3632
 7691TIP3   OH247267   5.635   3.175   1.301  0.1781  0.1780 -0.0155
 7691TIP3    H147268   5.548   3.215   1.301 -0.0768 -0.3789  0.1644
 7691TIP3    H247269   5.679   3.213   1.377  0.9945  2.3765 -1.4666
 7692TIP3   OH247270   3.592   7.204   2.743  0.3271 -0.1466 -0.3325
 7692TIP3    H147271   3.624   7.275   2.688 -0.1926  0.2890 -0.0800
 7692TIP3    H247272   3.671   7.162   2.777  0.6343  0.4373 -0.3192
 7693TIP3   OH247273   1.332   4.865   7.690 -0.2503  0.5286  0.4433
 7693TIP3    H147274   1.256   4.857   7.632  0.6891 -1.2304 -0.6479
 7693TIP3    H247275   1.407   4.845   7.633  0.8122 -0.1796  2.0365
 7694TIP3   OH247276   7.122   2.971   0.621 -0.2478  0.7569 -0.0109
 7694TIP3    H147277   7.102   2.941   0.532  3.5551 -2.2231 -0.1188
 7694TIP3    H247278   7.147   3.062   0.611  0.5063  0.3623 -2.1410
 7695TIP3   OH247279   2.110   3.966   1.401 -0.2336  0.0325 -0.2239
 7695TIP3    H147280   2.166   3.908   1.348 -0.3446 -0.2738 -0.0112
 7695TIP3    H247281   2.124   4.053   1.364 -0.5038 -0.2132 -0.9227
 7696TIP3   OH247282   5.696   2.254   0.659 -0.6409  0.6501  0.9793
 7696TIP3    H147283   5.640   2.306   0.601  0.3937  2.0792  1.2188
 7696TIP3    H247284   5.670   2.280   0.747 -1.3608 -0.6168  1.1710
 7697TIP3   OH247285   3.480   2.697   2.403 -0.4238  0.5634 -0.1129
 7697TIP3    H147286   3.401   2.646   2.416  0.3560 -0.4400  0.8293
 7697TIP3    H247287   3.462   2.749   2.324 -1.0628 -1.4893 -1.3915
 7698TIP3   OH247288   4.422   4.211   1.409 -0.2439  0.1519  0.6932
 7698TIP3    H147289   4.365   4.254   1.345 -0.1459  0.5740  0.8824
 7698TIP3    H247290   4.437   4.124   1.374  0.7306  0.7474 -0.4410
 7699TIP3   OH247291   4.402   3.549   3.311 -0.7375  0.6270 -0.3798
 7699TIP3    H147292   4.451   3.472   3.283 -2.9852 -2.1093  2.5062
 7699TIP3    H247293   4.454   3.623   3.279  1.9789 -1.9943 -2.6695
 7700TIP3   OH247294   0.677   3.634   0.901  0.4241 -0.5667  0.5179
 7700TIP3    H147295   0.707   3.546   0.881  0.7486 -0.3724  0.1369
 7700TIP3    H247296   0.730   3.691   0.844  0.3680 -0.1153  0.9123
 7701TIP3   OH247297   1.830   0.137   1.782  0.3324 -0.4306 -0.2879
 7701TIP3    H147298   1.750   0.184   1.760  0.2561 -1.1036 -1.5195
 7701TIP3    H247299   1.805   0.081   1.856 -0.1651 -0.1668 -0.2521
 7702TIP3   OH247300   4.323   6.453   1.454 -0.5227 -0.0694 -0.0778
 7702TIP3    H147301   4.324   6.374   1.509  1.3646  0.3116  0.4949
 7702TIP3    H247302   4.266   6.513   1.502  0.1362 -0.1734  0.8678
 7703TIP3   OH247303   0.517   4.676   2.311  0.3845 -0.0400 -0.5969
 7703TIP3    H147304   0.477   4.757   2.341 -0.7898 -0.7894 -0.0145
 7703TIP3    H247305   0.442   4.616   2.299  1.2449 -1.1577 -0.5802
 7704TIP3   OH247306   0.928   7.089   1.887 -0.2482  0.3244  0.1199
 7704TIP3    H147307   1.002   7.031   1.906  0.3026  1.2867  1.0471
 7704TIP3    H247308   0.875   7.041   1.824  0.2564 -1.1301  0.7564
 7705TIP3   OH247309   4.630   7.494   1.346  0.2939  0.2820 -0.0229
 7705TIP3    H147310   4.566   7.537   1.403  0.4977 -0.4147  0.7540
 7705TIP3    H247311   4.715   7.526   1.377  0.3917  0.1517 -0.1588
 7706TIP3   OH247312   3.670   6.063   3.181 -0.5300 -0.0432  0.2540
 7706TIP3    H147313   3.699   6.130   3.120 -1.0728  0.8617  0.9614
 7706TIP3    H247314   3.594   6.023   3.138 -1.3564  1.0808  0.6261
 7707TIP3   OH247315   2.759   6.188   2.105 -0.0786 -0.3300 -0.7529
 7707TIP3    H147316   2.846   6.222   2.125 -0.1237 -0.6438  0.0352
 7707TIP3    H247317   2.767   6.148   2.019  0.8783 -1.4193 -0.1893
 7708TIP3   OH247318   3.574   1.968   1.992  0.0859 -0.3610 -0.2947
 7708TIP3    H147319   3.639   1.992   1.926  1.1195 -0.9166  0.4883
 7708TIP3    H247320   3.572   1.872   1.990  0.8052 -0.4362  1.0765
 7709TIP3   OH247321   2.894   1.463   0.678  0.1780 -0.6009 -0.1937
 7709TIP3    H147322   2.953   1.442   0.605  0.5978 -0.0985 -0.0015
 7709TIP3    H247323   2.846   1.381   0.693  2.3607 -1.7561  1.0722
 7710TIP3   OH247324   0.109   3.918   3.639  0.2457 -0.0432 -0.5048
 7710TIP3    H147325   0.046   3.990   3.638 -0.1490 -0.2890  1.5116
 7710TIP3    H247326   0.185   3.954   3.685  0.5314 -0.5440 -0.5832
 7711TIP3   OH247327   0.165   2.630   0.961  0.3868 -0.0518 -0.3175
 7711TIP3    H147328   0.091   2.589   1.005  1.1395 -1.2425 -0.1183
 7711TIP3    H247329   0.126   2.679   0.888 -0.6272 -0.1865  0.1270
 7712TIP3   OH247330   4.474   6.011   2.390  0.0110  0.3812 -1.0852
 7712TIP3    H147331   4.415   5.936   2.383  0.9818 -0.5027 -0.1338
 7712TIP3    H247332   4.518   5.999   2.474  1.0143  1.3991 -1.4420
 7713TIP3   OH247333   7.094   4.966   0.605 -0.2003 -0.1513 -0.1946
 7713TIP3    H147334   7.155   5.038   0.592 -0.0186  0.2792  2.5868
 7713TIP3    H247335   7.145   4.887   0.588  0.2942  0.2881 -0.7744
 7714TIP3   OH247336   6.985   2.882   0.848  0.1104  0.3555  0.0595
 7714TIP3    H147337   6.900   2.925   0.855  0.3184  0.8556 -0.3983
 7714TIP3    H247338   7.032   2.933   0.782 -0.0601 -1.2851 -1.3956
 7715TIP3   OH247339   1.021   6.595   1.374 -0.1061 -0.7629  0.3113
 7715TIP3    H147340   1.080   6.662   1.410 -1.2602  0.6092 -0.2481
 7715TIP3    H247341   1.070   6.513   1.382  0.9589 -0.0200  1.9696
 7716TIP3   OH247342   4.162   0.413   2.626  0.3676 -0.0126  0.3033
 7716TIP3    H147343   4.111   0.381   2.701  0.1088 -0.1785  0.0567
 7716TIP3    H247344   4.178   0.506   2.646 -0.7752  0.2658 -0.0240
 7717TIP3   OH247345   0.485   1.372   2.611  0.2328  0.2913  0.0432
 7717TIP3    H147346   0.473   1.394   2.518 -0.3747  0.2727  0.1106
 7717TIP3    H247347   0.578   1.353   2.619  0.3868  0.8113 -0.4533
 7718TIP3   OH247348   0.831   7.530   1.923 -0.1511  0.4388  0.0305
 7718TIP3    H147349   0.806   7.508   1.833 -0.8755  1.3623 -0.0057
 7718TIP3    H247350   0.747   7.546   1.968  0.2971  2.4654  0.2149
 7719TIP3   OH247351   3.844   1.467   1.373 -0.0295 -0.2579 -0.5160
 7719TIP3    H147352   3.900   1.411   1.428  0.3307 -1.2530 -1.8473
 7719TIP3    H247353   3.765   1.415   1.359 -0.4255  0.2961 -0.3571
 7720TIP3   OH247354   5.527   6.963   2.260  0.1278 -0.1536 -0.5934
 7720TIP3    H147355   5.522   6.867   2.262  0.9659 -0.2385 -1.7500
 7720TIP3    H247356   5.508   6.990   2.350 -1.4158 -1.3253 -0.5336
 7721TIP3   OH247357   3.796   5.763   1.836 -0.2575  0.7867 -0.3321
 7721TIP3    H147358   3.775   5.821   1.909 -1.0701  0.6494 -0.4513
 7721TIP3    H247359   3.800   5.821   1.760  0.0950  0.8573 -0.2595
 7722TIP3   OH247360   0.375   3.054   1.615 -0.1308  0.2082 -0.4777
 7722TIP3    H147361   0.398   2.964   1.637 -0.9022 -0.0711 -0.7769
 7722TIP3    H247362   0.410   3.068   1.527 -0.8487 -0.1283 -0.8251
 7723TIP3   OH247363   3.515   0.479   2.229 -0.5368 -0.1675  0.0000
 7723TIP3    H147364   3.608   0.484   2.208 -0.3260  0.3962  1.0081
 7723TIP3    H247365   3.475   0.546   2.173  0.1097  1.7888  1.7542
 7724TIP3   OH247366   1.942   4.338   1.515  0.0454 -0.0600 -0.1310
 7724TIP3    H147367   1.858   4.294   1.501  1.0797 -1.5190 -2.4400
 7724TIP3    H247368   1.928   4.427   1.483 -0.9145  0.0698  0.5984
 7725TIP3   OH247369   2.604   0.389   2.388  0.1323  0.2332  0.2303
 7725TIP3    H147370   2.684   0.399   2.439  0.5408 -1.4281 -0.0371
 7725TIP3    H247371   2.628   0.418   2.300  0.3156  0.1806  0.2625
 7726TIP3   OH247372   0.136   3.778   1.216  0.6015 -0.0847 -0.1635
 7726TIP3    H147373   0.056   3.831   1.219  0.5549 -0.1773  0.2208
 7726TIP3    H247374   0.107   3.690   1.239  0.9322  0.0216  0.7116
 7727TIP3   OH247375   5.008   0.109   1.998  0.0802  0.5080  0.0850
 7727TIP3    H147376   4.991   0.201   2.018  0.8301  0.5242  0.6997
 7727TIP3    H247377   5.014   0.067   2.084 -1.5523 -0.3765 -0.1842
 7728TIP3   OH247378   5.880   4.693   1.008 -0.3026  0.1834 -0.1056
 7728TIP3    H147379   5.799   4.739   1.029 -1.1264  0.1819 -2.8255
 7728TIP3    H247380   5.948   4.760   1.012 -1.0755  1.0974 -1.4027
 7729TIP3   OH247381   0.827   0.693   0.624 -0.2460  0.2878 -0.2869
 7729TIP3    H147382   0.787   0.648   0.698  0.4010  0.5569  0.2294
 7729TIP3    H247383   0.827   0.785   0.648 -1.4898  0.5914 -1.3106
 7730TIP3   OH247384   6.491   6.902   0.540 -0.4383  0.2306  0.3908
 7730TIP3    H147385   6.545   6.827   0.567 -0.0464 -0.2224 -1.4586
 7730TIP3    H247386   6.402   6.867   0.535  0.1897 -1.4558 -4.3137
 7731TIP3   OH247387   7.395   6.167   2.316  0.0893 -0.3834 -0.6160
 7731TIP3    H147388   7.453   6.102   2.277  2.3529  1.7193 -1.0022
 7731TIP3    H247389   7.428   6.178   2.405  0.1278  0.6384 -0.7465
 7732TIP3   OH247390   6.124   0.975   2.050 -0.4063 -0.1406  0.0799
 7732TIP3    H147391   6.071   1.004   2.124 -1.0080 -2.1479  0.4821
 7732TIP3    H247392   6.209   0.951   2.087  0.0237  0.8644 -0.2211
 7733TIP3   OH247393   2.933   1.108   1.078 -0.1780 -0.0781  0.1384
 7733TIP3    H147394   2.900   1.197   1.074  0.0808  0.0068 -0.1135
 7733TIP3    H247395   2.928   1.076   0.988  1.9061  0.4798 -0.2285
 7734TIP3   OH247396   6.753   3.770   1.252 -0.2374 -0.0533  0.0090
 7734TIP3    H147397   6.820   3.705   1.271 -0.7752 -0.6295 -0.0560
 7734TIP3    H247398   6.715   3.742   1.169 -0.2629  0.5191 -0.1793
 7735TIP3   OH247399   2.393   0.399   1.069 -0.0925  0.4608  0.6683
 7735TIP3    H147400   2.462   0.332   1.069  0.5118  1.0131 -1.3269
 7735TIP3    H247401   2.317   0.355   1.107 -0.2298 -2.0346 -2.0721
 7736TIP3   OH247402   2.220   0.053   1.787 -0.7571  0.2548  0.2886
 7736TIP3    H147403   2.139   0.034   1.739 -1.8120  2.0139  1.2307
 7736TIP3    H247404   2.250   0.137   1.751  0.0689  0.1405  0.6874
 7737TIP3   OH247405   6.953   3.312   1.139 -0.1893  0.1697  0.4645
 7737TIP3    H147406   6.905   3.247   1.191 -1.9979  0.2193 -1.0343
 7737TIP3    H247407   7.025   3.263   1.100 -1.7344 -1.1474 -0.9365
 7738TIP3   OH247408   1.084   2.271   1.512  0.0422  0.0007  0.0930
 7738TIP3    H147409   1.114   2.291   1.423  0.1874 -0.3340  0.0635
 7738TIP3    H247410   1.100   2.352   1.561 -3.2272  1.4329 -0.9258
 7739TIP3   OH247411   3.546   7.254   1.715 -0.1996 -0.4701  0.3973
 7739TIP3    H147412   3.500   7.177   1.679 -0.9829  0.3689 -0.4601
 7739TIP3    H247413   3.481   7.324   1.711  0.5388  0.2642  1.0789
 7740TIP3   OH247414   6.570   2.258   1.886 -0.2791 -0.2165 -0.2406
 7740TIP3    H147415   6.625   2.334   1.906 -1.3171  0.5074 -0.0600
 7740TIP3    H247416   6.581   2.244   1.792 -1.2279  1.1040 -0.5660
 7741TIP3   OH247417   1.101   1.286   2.600 -0.0792 -0.1804 -0.7272
 7741TIP3    H147418   1.124   1.379   2.595  0.5043 -0.1019  2.0160
 7741TIP3    H247419   1.052   1.277   2.681  1.0348 -2.4615 -0.2180
 7742TIP3   OH247420   5.768   5.856   0.637 -0.6041  0.0120 -0.1999
 7742TIP3    H147421   5.761   5.761   0.627 -0.3433  0.1275 -1.7700
 7742TIP3    H247422   5.819   5.884   0.560  1.7417  1.1376  1.6339
 7743TIP3   OH247423   4.262   0.964   2.170  0.2953 -0.0188  0.1701
 7743TIP3    H147424   4.221   0.912   2.240  0.6615  0.2902  0.6205
 7743TIP3    H247425   4.206   1.041   2.162  0.7093  0.3447  0.7014
 7744TIP3   OH247426   6.178   0.891   1.367 -0.2522  0.0352 -0.7333
 7744TIP3    H147427   6.214   0.957   1.308  0.6924  1.0559  0.9197
 7744TIP3    H247428   6.161   0.816   1.310 -0.4188  1.3212 -2.4941
 7745TIP3   OH247429   0.857   5.546   1.964  0.3053 -0.1341 -0.1767
 7745TIP3    H147430   0.899   5.519   1.882 -0.5052  0.1976 -0.7102
 7745TIP3    H247431   0.822   5.465   2.001 -0.9582 -0.0278 -1.1043
 7746TIP3   OH247432   5.014   2.497   0.411  0.3947  0.4232 -0.1225
 7746TIP3    H147433   4.932   2.448   0.404  0.6287  0.1104 -0.8197
 7746TIP3    H247434   5.078   2.433   0.439  0.6564  0.3708 -0.8164
 7747TIP3   OH247435   4.088   0.797   0.568  0.0415  0.1775 -0.4194
 7747TIP3    H147436   4.037   0.723   0.600 -0.9956  0.6860 -0.8588
 7747TIP3    H247437   4.141   0.761   0.497 -0.8386 -0.0488 -0.9731
 7748TIP3   OH247438   0.267   0.879   2.254  0.4655  0.3735  0.0670
 7748TIP3    H147439   0.305   0.895   2.168  1.2754 -0.7116  0.1944
 7748TIP3    H247440   0.336   0.832   2.302 -0.8548 -1.2398  0.4716
 7749TIP3   OH247441   1.966   3.487   0.666  0.4207 -0.2709 -0.4611
 7749TIP3    H147442   2.043   3.436   0.642  0.9416  0.4290 -0.3335
 7749TIP3    H247443   1.957   3.552   0.596  0.6996  0.4411  0.1443
 7750TIP3   OH247444   1.781   1.878   1.302  0.3149  0.1636 -0.0067
 7750TIP3    H147445   1.793   1.973   1.304 -1.4259  0.4167  0.3569
 7750TIP3    H247446   1.701   1.863   1.352 -1.2780 -1.1278 -2.6743
 7751TIP3   OH247447   3.555   0.048   0.833  0.1677  0.0977  0.2558
 7751TIP3    H147448   3.497  -0.015   0.877 -0.8183  1.3293  0.7586
 7751TIP3    H247449   3.508   0.073   0.754  1.4072 -1.1934 -0.9624
 7752TIP3   OH247450   4.534   4.398   1.120 -0.3426 -0.2935 -0.1315
 7752TIP3    H147451   4.560   4.489   1.137 -1.2350 -0.1121  0.3197
 7752TIP3    H247452   4.594   4.346   1.175  0.4234 -0.0099 -0.6814
 7753TIP3   OH247453   3.596   2.826   3.361  0.2886 -0.1366  0.9774
 7753TIP3    H147454   3.667   2.766   3.339 -0.2386 -0.4633  0.1112
 7753TIP3    H247455   3.621   2.862   3.446  1.9005  0.3870  0.3319
 7754TIP3   OH247456   1.968   0.336   1.917 -0.1320  0.2292  0.0968
 7754TIP3    H147457   2.029   0.368   1.851  0.5844 -0.4229  0.4286
 7754TIP3    H247458   1.941   0.250   1.886  0.4820 -0.2358  0.8004
 7755TIP3   OH247459   2.436   1.616   1.820 -0.6143  0.2883  0.7079
 7755TIP3    H147460   2.341   1.622   1.808 -0.3797  1.4793 -0.8044
 7755TIP3    H247461   2.471   1.695   1.778  0.9193  0.9675  3.0631
 7756TIP3   OH247462   3.393   0.157   1.648 -0.3345 -0.8197 -0.0591
 7756TIP3    H147463   3.459   0.192   1.708  0.5703  0.3236 -1.6631
 7756TIP3    H247464   3.310   0.190   1.683  0.2238  0.3259  0.2533
 7757TIP3   OH247465   2.561   6.783   1.325 -0.1084  0.1829 -0.1207
 7757TIP3    H147466   2.652   6.765   1.346 -0.2397  0.3027  0.5804
 7757TIP3    H247467   2.528   6.701   1.286  0.0342 -0.1935  0.5340
 7758TIP3   OH247468   5.125   0.219   0.667 -0.0302  0.4773 -0.4495
 7758TIP3    H147469   5.138   0.146   0.727  0.2819 -0.6499 -1.8253
 7758TIP3    H247470   5.047   0.264   0.700 -0.4300 -0.6816  0.2359
 7759TIP3   OH247471   2.022   1.052   0.992 -0.0294  0.4941 -0.3764
 7759TIP3    H147472   2.013   1.118   0.922 -2.2890 -0.1769 -0.8010
 7759TIP3    H247473   1.935   1.048   1.032  0.3464 -1.4477  0.3552
 7760TIP3   OH247474   2.266   5.040   2.064  0.5999 -0.1194 -0.0066
 7760TIP3    H147475   2.307   5.116   2.023  0.1371  0.8964  1.3387
 7760TIP3    H247476   2.306   4.964   2.021  2.8951  0.8323  0.3338
 7761TIP3   OH247477   1.517   1.923   3.493  0.8390 -0.5619  0.3088
 7761TIP3    H147478   1.483   1.998   3.542  0.5016 -0.3234 -0.2857
 7761TIP3    H247479   1.461   1.850   3.520  3.1792 -1.4413  3.4792
 7762TIP3   OH247480   5.213   6.953   1.491 -0.2474 -0.3890  0.0975
 7762TIP3    H147481   5.141   6.966   1.430 -0.3535 -0.5761  0.1789
 7762TIP3    H247482   5.172   6.916   1.570 -0.3480  1.3262  0.8934
 7763TIP3   OH247483   1.505   1.707   2.110 -0.4848 -0.3478  0.0074
 7763TIP3    H147484   1.584   1.725   2.060 -0.2480  0.0749  0.5265
 7763TIP3    H247485   1.535   1.695   2.200 -1.0476  0.1630  0.2706
 7764TIP3   OH247486   1.814   6.231   2.513 -0.4856 -0.3425 -0.1962
 7764TIP3    H147487   1.799   6.221   2.607 -2.9702  1.9370 -0.2237
 7764TIP3    H247488   1.899   6.274   2.507 -1.0560  1.0859  1.1805
 7765TIP3   OH247489   0.422   0.659   0.725 -0.2196 -0.0513 -0.1665
 7765TIP3    H147490   0.480   0.735   0.716 -0.8389  0.8017  2.3367
 7765TIP3    H247491   0.476   0.592   0.766 -0.0512 -0.5430 -1.1526
 7766TIP3   OH247492   0.148   2.305   0.616 -0.2683  0.1317 -0.1225
 7766TIP3    H147493   0.069   2.254   0.630 -0.8776  1.5227  2.0734
 7766TIP3    H247494   0.205   2.280   0.689  0.3959  0.8041 -0.4033
 7767TIP3   OH247495   1.134   4.823   0.695 -0.0623 -0.8151  0.8868
 7767TIP3    H147496   1.082   4.791   0.621  0.8310  0.0726 -0.1613
 7767TIP3    H247497   1.172   4.745   0.734 -0.4631 -1.2906  0.3393
 7768TIP3   OH247498   2.450   2.004   2.213 -0.6769 -0.0614  0.1824
 7768TIP3    H147499   2.397   2.039   2.141 -0.3690 -1.0476 -0.5402
 7768TIP3    H247500   2.486   2.082   2.256  0.5783  0.5452 -1.8360
 7769TIP3   OH247501   0.556   0.519   1.120 -0.3961  0.0809  0.6276
 7769TIP3    H147502   0.552   0.451   1.187  0.1150 -0.0761  0.5070
 7769TIP3    H247503   0.644   0.556   1.130 -0.7102  0.8064  0.7720
 7770TIP3   OH247504   5.457   5.879   1.845 -0.0662  0.2498 -0.1542
 7770TIP3    H147505   5.431   5.805   1.790  1.5990  0.1290 -0.8465
 7770TIP3    H247506   5.430   5.956   1.795  2.2427  0.1675 -1.6821
 7771TIP3   OH247507   6.879   2.834   1.997  0.3473  0.0079 -0.2680
 7771TIP3    H147508   6.966   2.802   2.020  0.0653 -0.6872 -0.1346
 7771TIP3    H247509   6.857   2.897   2.065  1.5005  1.6029 -1.3043
 7772TIP3   OH247510   1.415   6.826   1.911 -0.2002 -0.4304  0.1469
 7772TIP3    H147511   1.369   6.810   1.993 -0.7041 -2.3100 -0.4655
 7772TIP3    H247512   1.352   6.873   1.856  0.3245  1.3368  0.9727
 7773TIP3   OH247513   4.192   4.496   0.624 -0.5540 -0.2810 -0.7787
 7773TIP3    H147514   4.232   4.446   0.552 -1.7702  1.0041 -2.4509
 7773TIP3    H247515   4.235   4.463   0.703  0.5009 -2.1202 -2.0278
 7774TIP3   OH247516   3.925   4.280   0.637  0.3068  0.0211 -0.0210
 7774TIP3    H147517   3.835   4.253   0.651 -0.7635  2.0934 -2.1137
 7774TIP3    H247518   3.936   4.280   0.542  2.1722  0.8541  0.1365
 7775TIP3   OH247519   3.147   1.662   0.584 -0.0568 -0.4398  0.3487
 7775TIP3    H147520   3.089   1.683   0.656  0.1277  1.1041  0.1014
 7775TIP3    H247521   3.123   1.573   0.558 -0.7269 -0.6861  1.7115
 7776TIP3   OH247522   1.554   1.420   0.758  0.5396  0.1492 -0.4840
 7776TIP3    H147523   1.470   1.397   0.798  1.5887 -0.2796  1.6103
 7776TIP3    H247524   1.583   1.499   0.805  1.5010  0.0421 -0.8660
 7777TIP3   OH247525   1.770   0.772   0.626  0.3868  0.2679 -0.9330
 7777TIP3    H147526   1.807   0.825   0.697  0.8663  0.4034 -1.2801
 7777TIP3    H247527   1.794   0.819   0.546 -0.2919  0.2067 -1.1805
 7778TIP3   OH247528   4.246   6.866   1.482  0.3276 -0.2480 -0.2271
 7778TIP3    H147529   4.341   6.875   1.490  0.3507  1.1050 -1.5212
 7778TIP3    H247530   4.228   6.889   1.391 -1.4655  1.7239  0.5351
 7779TIP3   OH247531   3.623   0.991   0.946 -0.0429  0.3536  0.0790
 7779TIP3    H147532   3.656   0.966   1.032  0.9763  1.9046  0.1756
 7779TIP3    H247533   3.698   1.030   0.901 -0.9973  1.2454 -0.8194
 7780TIP3   OH247534   0.991   5.466   3.000  0.0763 -0.0940 -0.2587
 7780TIP3    H147535   0.930   5.398   2.971  0.2088  0.4368 -1.8788
 7780TIP3    H247536   1.052   5.421   3.057 -0.8082 -0.9942  0.0028
 7781TIP3   OH247537   7.218   4.996   3.181  0.3000  0.2358  0.1909
 7781TIP3    H147538   7.181   5.073   3.224 -0.9425  0.7073 -1.6082
 7781TIP3    H247539   7.148   4.930   3.187  0.6262 -0.1232  0.0451
 7782TIP3   OH247540   2.935   2.733   1.752  0.0906  0.2858 -0.6035
 7782TIP3    H147541   2.916   2.823   1.780  0.2468  0.0364  0.3496
 7782TIP3    H247542   2.863   2.681   1.790  0.4952 -0.1100 -0.3647
 7783TIP3   OH247543   0.648   2.487   1.654  0.2567  0.3525  0.0670
 7783TIP3    H147544   0.601   2.481   1.571 -2.2738 -0.0001  1.4365
 7783TIP3    H247545   0.648   2.397   1.688  1.3039  0.4803  0.4618
 7784TIP3   OH247546   2.853   5.704   0.592 -0.1139 -0.3403 -0.5262
 7784TIP3    H147547   2.790   5.740   0.655 -1.6843 -1.0292 -1.6273
 7784TIP3    H247548   2.835   5.750   0.511  1.7653  0.4080 -0.5608
 7785TIP3   OH247549   1.866   2.954   1.755 -0.0359  0.0686 -0.6497
 7785TIP3    H147550   1.784   2.949   1.707 -0.0635 -0.5067 -0.5537
 7785TIP3    H247551   1.934   2.952   1.687 -0.0845 -0.3429 -0.6897
 7786TIP3   OH247552   1.512   2.452   0.660  0.6938 -0.2872 -0.2925
 7786TIP3    H147553   1.550   2.438   0.573  0.0493 -0.1674 -0.5990
 7786TIP3    H247554   1.498   2.364   0.694 -0.3690 -0.3738 -0.9032
 7787TIP3   OH247555   0.015   1.464   2.649 -0.4671 -0.2904 -0.1890
 7787TIP3    H147556   0.052   1.541   2.607 -0.1189 -1.4605 -2.1637
 7787TIP3    H247557   0.069   1.452   2.728 -0.1277  1.1034 -0.1926
 7788TIP3   OH247558   7.007   4.563   8.177  0.0613 -0.1621  0.5265
 7788TIP3    H147559   7.016   4.633   8.112 -0.4735  0.4466  1.0825
 7788TIP3    H247560   7.093   4.521   8.179  0.6708  1.0465  0.7999
 7789TIP3   OH247561   5.219   0.636   0.784 -0.7166  0.1817 -0.2573
 7789TIP3    H147562   5.249   0.614   0.695 -0.0963  0.5327 -0.1393
 7789TIP3    H247563   5.222   0.732   0.787 -0.1265  0.1473  0.3468
 7790TIP3   OH247564   1.295   0.307   1.084  0.1376 -0.4877 -0.3833
 7790TIP3    H147565   1.262   0.358   1.010  0.1496 -1.6109 -1.1848
 7790TIP3    H247566   1.221   0.251   1.109 -0.7302  1.5260  2.0655
 7791TIP3   OH247567   0.829   1.366   3.036  0.3091  0.1766 -0.0335
 7791TIP3    H147568   0.733   1.374   3.040  0.2214  0.8787 -2.1929
 7791TIP3    H247569   0.861   1.435   3.093 -0.4614 -0.3474  1.0669
 7792TIP3   OH247570   0.014   5.604   1.328  0.4845 -0.0082  0.7514
 7792TIP3    H147571  -0.063   5.547   1.325 -0.0531  0.6774  1.2621
 7792TIP3    H247572   0.079   5.553   1.377 -0.0932 -0.0833  1.4708
 7793TIP3   OH247573   0.272   1.614   1.970 -0.0187 -0.0341  0.4982
 7793TIP3    H147574   0.184   1.619   2.007  0.1129 -2.9034  1.5050
 7793TIP3    H247575   0.266   1.663   1.888 -1.8942  1.7339  1.5940
 7794TIP3   OH247576   0.543   2.162   1.120 -0.4073  0.3952 -0.3529
 7794TIP3    H147577   0.555   2.123   1.033  2.7883  0.5225 -0.0705
 7794TIP3    H247578   0.504   2.092   1.172  3.7355 -2.1383 -0.2641
 7795TIP3   OH247579   1.838   5.933   1.089 -0.0092 -0.5765  0.2714
 7795TIP3    H147580   1.834   6.027   1.108  0.9281 -0.0800 -1.7792
 7795TIP3    H247581   1.780   5.921   1.014  1.8829 -1.1332 -1.1542
 7796TIP3   OH247582   6.497   4.718   0.897  0.0607 -0.4243  0.0882
 7796TIP3    H147583   6.440   4.776   0.946  1.1204  2.0088 -1.4106
 7796TIP3    H247584   6.552   4.676   0.964 -0.5447  0.4878  1.1854
 7797TIP3   OH247585   7.424   4.335   2.631  0.1689  0.1432  0.4141
 7797TIP3    H147586   7.428   4.270   2.702  0.1218 -1.0881 -0.6875
 7797TIP3    H247587   7.484   4.404   2.660 -0.2817 -0.0499  1.9207
 7798TIP3   OH247588   2.362   5.202   1.379 -0.0703 -0.3362 -0.1504
 7798TIP3    H147589   2.283   5.238   1.420  0.6858 -0.7234  1.7600
 7798TIP3    H247590   2.434   5.234   1.434  0.8499 -2.3790 -0.0697
 7799TIP3   OH247591   6.632   6.719   1.473 -0.0632 -1.3146  0.1527
 7799TIP3    H147592   6.665   6.646   1.525 -0.7275 -2.3673 -0.8276
 7799TIP3    H247593   6.688   6.720   1.395 -1.2856 -2.1412 -0.7986
 7800TIP3   OH247594   5.261   1.568   2.092 -0.5138  0.2007 -0.3200
 7800TIP3    H147595   5.181   1.620   2.102  0.3293  1.0843  2.9778
 7800TIP3    H247596   5.303   1.603   2.013 -2.4477  0.9416 -1.0843
 7801TIP3   OH247597   7.269   3.053   1.352  0.2231 -0.2085  0.3880
 7801TIP3    H147598   7.342   2.999   1.382 -0.0622 -1.0671 -0.4320
 7801TIP3    H247599   7.191   3.008   1.384 -0.0637 -0.9041 -1.2221
 7802TIP3   OH247600   2.187   4.111   0.456 -0.5044 -0.0859 -0.2870
 7802TIP3    H147601   2.262   4.165   0.433  0.5739 -1.8104 -1.0204
 7802TIP3    H247602   2.163   4.139   0.544 -0.3503  1.9126 -0.8328
 7803TIP3   OH247603   3.006   2.331   1.576 -0.2707  0.0250 -0.1807
 7803TIP3    H147604   3.070   2.341   1.505 -1.7720  1.6938 -1.3806
 7803TIP3    H247605   2.969   2.244   1.562  2.7892 -1.6984  1.5360
 7804TIP3   OH247606   6.273   7.252   2.768  0.7519  0.1659 -0.2367
 7804TIP3    H147607   6.359   7.222   2.798 -0.0364 -0.1191  1.9246
 7804TIP3    H247608   6.269   7.345   2.793  0.7722  0.4316 -1.1803
 7805TIP3   OH247609   5.834   2.805   0.449  0.5841 -0.8927 -0.2739
 7805TIP3    H147610   5.869   2.781   0.534 -0.3511 -1.8960 -0.1512
 7805TIP3    H247611   5.764   2.867   0.468  0.0140 -1.5321 -0.2633
 7806TIP3   OH247612   4.988   3.517   2.817  0.0518 -0.0511  0.0966
 7806TIP3    H147613   5.044   3.467   2.757  0.1272  1.5280 -1.2077
 7806TIP3    H247614   4.900   3.486   2.799  0.2766 -1.2149  0.8410
 7807TIP3   OH247615   1.131   1.158   1.688  0.6600  0.4298  0.9454
 7807TIP3    H147616   1.193   1.086   1.697  0.0609  0.0075  1.7857
 7807TIP3    H247617   1.186   1.235   1.674  1.3725  0.0334  1.4747
 7808TIP3   OH247618   2.424   4.052   2.285  0.6392 -0.3515 -0.0355
 7808TIP3    H147619   2.491   4.014   2.342  0.2485 -0.3106  0.4620
 7808TIP3    H247620   2.448   4.144   2.277 -1.0869  0.4893  2.8219
 7809TIP3   OH247621   0.334   6.503   0.503 -0.0686 -0.3605  0.0918
 7809TIP3    H147622   0.324   6.568   0.433  0.8768 -1.7020 -1.3670
 7809TIP3    H247623   0.341   6.555   0.583  0.8558  1.3628 -1.0287
 7810TIP3   OH247624   4.191   6.619   1.613  0.4203 -0.1358  0.0921
 7810TIP3    H147625   4.113   6.610   1.668  0.6763 -0.0160  0.4764
 7810TIP3    H247626   4.202   6.714   1.603  0.7531 -0.1466  0.3707
 7811TIP3   OH247627   0.288   2.108   3.052 -0.2359  0.0551  0.2662
 7811TIP3    H147628   0.383   2.108   3.043 -0.2190 -2.2267 -0.1559
 7811TIP3    H247629   0.256   2.151   2.973  0.4251  0.7294  0.3551
 7812TIP3   OH247630   7.054   4.619   2.481 -0.7205 -0.1350  0.4313
 7812TIP3    H147631   7.040   4.556   2.411 -0.6100  0.0930  0.2013
 7812TIP3    H247632   7.132   4.668   2.454  0.7955 -1.6301  1.8440
 7813TIP3   OH247633   3.973   1.312   1.556  0.0573  0.8058 -0.3913
 7813TIP3    H147634   3.898   1.256   1.540  1.2458 -0.4408 -1.9288
 7813TIP3    H247635   4.002   1.290   1.644 -0.8093  0.6353 -0.1414
 7814TIP3   OH247636   0.790   1.019   2.832  0.0656  0.1915  0.6607
 7814TIP3    H147637   0.844   1.094   2.855 -0.3691  0.3790  1.0911
 7814TIP3    H247638   0.700   1.051   2.841 -0.1400  0.1554 -0.8818
 7815TIP3   OH247639   5.364   0.384   2.700 -0.1140  0.3275 -0.4333
 7815TIP3    H147640   5.394   0.438   2.627  2.1837  1.6569  1.3384
 7815TIP3    H247641   5.381   0.437   2.778 -0.3873 -1.8642  1.2200
 7816TIP3   OH247642   6.392   6.862   2.289 -0.3322 -0.3397 -0.3911
 7816TIP3    H147643   6.316   6.863   2.231 -2.0928  1.0341  1.7671
 7816TIP3    H247644   6.359   6.896   2.372  2.5860 -0.0146  0.7541
 7817TIP3   OH247645   6.208   4.412   3.196 -0.1320 -0.0694  0.1863
 7817TIP3    H147646   6.274   4.480   3.182 -0.3674  0.1879  0.3186
 7817TIP3    H247647   6.191   4.376   3.109 -0.1313  0.1586  0.0920
 7818TIP3   OH247648   4.078   5.850   0.581  0.3818 -1.0387 -0.2723
 7818TIP3    H147649   4.045   5.838   0.492  1.8308  0.0732 -1.0104
 7818TIP3    H247650   4.151   5.788   0.588 -0.0648 -1.5055  0.3468
 7819TIP3   OH247651   5.982   4.245   2.058 -0.1362  0.6383 -0.1580
 7819TIP3    H147652   5.960   4.248   1.965 -0.4912 -0.9586 -0.1563
 7819TIP3    H247653   5.903   4.276   2.102 -1.7590 -2.9076 -0.2490
 7820TIP3   OH247654   4.420   5.725   2.831  0.1171 -0.5610  0.0418
 7820TIP3    H147655   4.351   5.659   2.835  0.6463 -1.1241 -0.1263
 7820TIP3    H247656   4.500   5.679   2.856  0.3743  0.1851  0.6354
 7821TIP3   OH247657   1.927   3.137   2.711 -0.7955  0.0104  0.4175
 7821TIP3    H147658   1.935   3.183   2.795 -0.3130 -2.1020  1.6070
 7821TIP3    H247659   1.982   3.059   2.721 -0.5792 -0.2237 -1.9521
 7822TIP3   OH247660   3.658   2.657   2.758 -0.3493 -0.5644 -0.1813
 7822TIP3    H147661   3.658   2.702   2.674 -0.9752 -0.3166 -0.0574
 7822TIP3    H247662   3.723   2.587   2.749  0.9194  0.5815 -0.2573
 7823TIP3   OH247663   5.576   2.645   2.363 -0.1881 -0.3073 -0.8049
 7823TIP3    H147664   5.595   2.603   2.278  1.4686  1.1953 -1.2280
 7823TIP3    H247665   5.514   2.714   2.342 -0.0911 -0.1940 -0.7168
 7824TIP3   OH247666   1.662   0.760   2.332  0.0980  0.1697  0.1373
 7824TIP3    H147667   1.713   0.685   2.300 -0.9610 -0.4390 -0.1797
 7824TIP3    H247668   1.642   0.739   2.423 -2.3525 -1.2140 -0.6190
 7825TIP3   OH247669   0.119   5.065   2.575 -0.5730 -0.6069  0.2204
 7825TIP3    H147670   0.125   5.003   2.648 -3.5762  0.9131  1.9514
 7825TIP3    H247671   0.056   5.026   2.516  0.9723 -1.2658 -1.0759
 7826TIP3   OH247672   5.578   3.758   2.645 -0.3498  0.0353  0.1683
 7826TIP3    H147673   5.622   3.815   2.582  0.4542 -1.0772 -0.3192
 7826TIP3    H247674   5.641   3.748   2.716 -1.0824  0.9338  0.9720
 7827TIP3   OH247675   6.196   3.088   2.389  0.0186 -0.0161  0.1023
 7827TIP3    H147676   6.159   3.021   2.447  0.8765 -0.3987  0.2278
 7827TIP3    H247677   6.179   3.171   2.433  2.9429 -0.4174  2.3271
 7828TIP3   OH247678   0.503   4.380   1.976  0.1219 -0.3480 -0.4922
 7828TIP3    H147679   0.547   4.304   1.938  0.0385 -0.2475 -0.7961
 7828TIP3    H247680   0.574   4.440   2.000  0.1331  0.7942 -3.0337
 7829TIP3   OH247681   1.163   3.913   2.500 -0.2697  0.7649  0.4441
 7829TIP3    H147682   1.074   3.947   2.507 -1.0437 -1.2632  1.0358
 7829TIP3    H247683   1.184   3.917   2.407 -0.7839  1.6839  0.3566
 7830TIP3   OH247684   3.331   2.538   2.754  0.0579 -0.1266  0.0823
 7830TIP3    H147685   3.362   2.447   2.755  0.7959  0.1000 -0.7972
 7830TIP3    H247686   3.321   2.558   2.661  2.0757  1.3933  0.1290
 7831TIP3   OH247687   4.313   2.226   1.663  0.6305  0.5928  0.0423
 7831TIP3    H147688   4.219   2.240   1.670  0.3655 -0.2028 -1.4588
 7831TIP3    H247689   4.352   2.284   1.728 -0.9051  0.7785  0.8171
 7832TIP3   OH247690   6.629   2.673   3.347  0.8404 -0.6139  0.0423
 7832TIP3    H147691   6.559   2.611   3.325 -1.6345  1.5615  1.2473
 7832TIP3    H247692   6.600   2.756   3.309  3.3513  0.1656 -0.3220
 7833TIP3   OH247693   5.457   2.035   1.549  0.4122 -0.1077 -0.1527
 7833TIP3    H147694   5.533   2.091   1.567 -0.2050  0.7327 -0.0602
 7833TIP3    H247695   5.491   1.964   1.496  1.3948 -0.1164  0.4650
 7834TIP3   OH247696   3.656   0.621   1.237  0.4585  0.0672  0.0381
 7834TIP3    H147697   3.653   0.534   1.198  2.3868 -0.1489  0.3136
 7834TIP3    H247698   3.565   0.651   1.235 -0.1910 -1.8193 -0.3212
 7835TIP3   OH247699   6.229   4.326   0.939 -0.1361  0.1102 -0.3631
 7835TIP3    H147700   6.154   4.385   0.942  1.3079  1.9935  0.3656
 7835TIP3    H247701   6.224   4.276   1.021 -0.7082  0.0543 -0.4304
 7836TIP3   OH247702   6.986   5.341   0.532  0.1962  0.1008 -0.9209
 7836TIP3    H147703   7.053   5.291   0.487  1.2923  1.0411 -0.3762
 7836TIP3    H247704   7.020   5.431   0.535 -0.9033  0.5241 -0.2916
 7837TIP3   OH247705   6.755   2.490   1.881  0.3747  0.4778 -0.0381
 7837TIP3    H147706   6.687   2.523   1.822 -0.8723  0.3412  1.2667
 7837TIP3    H247707   6.746   2.544   1.960  1.6873  0.3458  0.2257
 7838TIP3   OH247708   2.436   7.224   0.997  0.4847 -0.1526  0.2311
 7838TIP3    H147709   2.353   7.209   1.042  0.8341  0.1990  1.0123
 7838TIP3    H247710   2.502   7.219   1.066  0.9002  1.8980  0.0281
 7839TIP3   OH247711   3.973   6.633   0.959 -0.2120 -0.1589  0.0680
 7839TIP3    H147712   3.932   6.547   0.951  0.8518 -0.6671 -0.0565
 7839TIP3    H247713   4.035   6.638   0.886  0.3124  0.3814  0.5347
 7840TIP3   OH247714   1.994   3.655   2.515 -0.0091  0.7062 -0.0313
 7840TIP3    H147715   2.012   3.579   2.571 -0.8636 -0.1440 -0.8672
 7840TIP3    H247716   2.045   3.726   2.554  1.7650 -0.5650  0.1085
 7841TIP3   OH247717   4.576   6.955   2.236 -0.4667 -0.2043  0.0756
 7841TIP3    H147718   4.485   6.945   2.208 -0.7053  0.9873  0.3808
 7841TIP3    H247719   4.571   6.966   2.331  0.0758 -0.9481  0.2070
 7842TIP3   OH247720   4.550   1.433   0.951  0.3566  0.1753  0.7588
 7842TIP3    H147721   4.617   1.466   1.011 -1.8351  1.0655  2.8976
 7842TIP3    H247722   4.573   1.471   0.866  2.6142  0.3052  1.3615
 7843TIP3   OH247723   0.456   1.995   1.344  0.0024  0.9524 -0.5329
 7843TIP3    H147724   0.522   1.993   1.413 -1.0135  1.3724  0.4710
 7843TIP3    H247725   0.425   1.905   1.338 -0.5603  1.0927  0.2080
 7844TIP3   OH247726   4.249   4.007   0.616 -0.4944 -0.0345  0.6205
 7844TIP3    H147727   4.186   3.942   0.584 -0.1414 -1.4886  2.6764
 7844TIP3    H247728   4.325   3.955   0.644 -0.2037  1.2398  2.3657
 7845TIP3   OH247729   1.915   6.824   1.282 -0.0458  0.2388  0.2636
 7845TIP3    H147730   2.010   6.828   1.274 -0.0754 -1.0254 -1.2732
 7845TIP3    H247731   1.895   6.877   1.359  1.8655  0.7658  0.4486
 7846TIP3   OH247732   3.881   6.555   1.542 -0.9545  0.0808  0.0104
 7846TIP3    H147733   3.927   6.482   1.583 -2.3446 -0.8042  0.0714
 7846TIP3    H247734   3.855   6.523   1.456  0.7701  1.4702 -1.0772
 7847TIP3   OH247735   2.444   7.538   1.968 -0.0555  0.3185  0.0443
 7847TIP3    H147736   2.468   7.631   1.969 -0.9063  0.5756 -1.5421
 7847TIP3    H247737   2.359   7.535   1.925  0.3374 -1.2936 -0.6887
 7848TIP3   OH247738   2.636   4.189   1.389 -0.1491  0.3324  0.0201
 7848TIP3    H147739   2.547   4.165   1.414 -0.2186 -0.9310 -1.2881
 7848TIP3    H247740   2.626   4.243   1.311  0.2331 -0.6400 -0.7288
 7849TIP3   OH247741   6.130   2.715   1.066 -0.2141  0.1735  0.4628
 7849TIP3    H147742   6.120   2.807   1.039  0.6951  0.4040  0.8845
 7849TIP3    H247743   6.041   2.688   1.089 -0.5001  0.9427  0.3108
 7850TIP3   OH247744   1.414   3.420   0.930  0.2725  0.2390 -0.3540
 7850TIP3    H147745   1.485   3.378   0.882  0.6263 -1.3487  1.4221
 7850TIP3    H247746   1.448   3.507   0.951 -0.0723  1.1723 -3.2218
 7851TIP3   OH247747   2.353   4.695   1.496  0.4187 -0.1450 -0.2493
 7851TIP3    H147748   2.406   4.633   1.546 -0.1327 -1.3141 -1.0513
 7851TIP3    H247749   2.312   4.750   1.561  0.9379 -0.6174  0.4947
 7852TIP3   OH247750   2.964   2.055   0.535 -0.3537  0.5789  0.1226
 7852TIP3    H147751   2.950   2.140   0.493  0.2340  0.7055  0.1667
 7852TIP3    H247752   3.050   2.027   0.504 -1.8561 -1.5795 -2.5496
 7853TIP3   OH247753   6.269   5.954   2.625  0.0934  0.1095 -0.2109
 7853TIP3    H147754   6.247   5.885   2.563 -0.1144  0.1734 -0.2109
 7853TIP3    H247755   6.186   6.001   2.638  0.6751  1.8302 -2.0218
 7854TIP3   OH247756   4.396   2.569   1.560  0.0764 -0.3163  0.0474
 7854TIP3    H147757   4.397   2.662   1.582  2.2911 -0.6855  1.8592
 7854TIP3    H247758   4.485   2.539   1.576 -0.9592 -3.1522  1.3237
 7855TIP3   OH247759   3.296   6.045   1.544  0.1056 -0.4368 -0.0882
 7855TIP3    H147760   3.241   6.032   1.621  0.0941 -0.8128 -0.1558
 7855TIP3    H247761   3.235   6.041   1.470  0.2305 -0.9330 -0.1682
 7856TIP3   OH247762   3.840   5.009   1.539 -0.0439 -0.1586 -0.0947
 7856TIP3    H147763   3.817   4.919   1.560  0.8214 -1.4531 -3.8871
 7856TIP3    H247764   3.764   5.060   1.566 -0.3475 -1.8698  2.6100
 7857TIP3   OH247765   1.476   2.133   0.455  0.1596  0.5377  0.0483
 7857TIP3    H147766   1.385   2.126   0.425  0.4117 -0.5848 -0.4890
 7857TIP3    H247767   1.477   2.085   0.538  0.3936  0.0218 -0.2510
 7858TIP3   OH247768   5.724   7.378   1.512 -0.3681  0.2222 -0.1177
 7858TIP3    H147769   5.656   7.426   1.560 -0.5240  0.6931 -0.8019
 7858TIP3    H247770   5.720   7.413   1.423  3.0175  2.7171  0.5035
 7859TIP3   OH247771   7.522   3.677   2.861 -0.0690  0.6392 -0.0546
 7859TIP3    H147772   7.617   3.688   2.860 -0.0647  0.5745 -0.3912
 7859TIP3    H247773   7.489   3.749   2.807 -0.2008  0.5499 -0.0938
 7860TIP3   OH247774   0.055   1.614   3.089 -0.5808 -0.0658  0.8199
 7860TIP3    H147775   0.042   1.702   3.125  0.9892  1.1083 -1.2530
 7860TIP3    H247776   0.085   1.563   3.163  3.0745  2.3837  1.2888
 7861TIP3   OH247777   1.858   5.334   2.574 -0.2134  0.3237 -0.2892
 7861TIP3    H147778   1.864   5.429   2.580  1.8380  0.1786  0.6380
 7861TIP3    H247779   1.913   5.301   2.645 -0.5868 -1.5533 -0.8099
 7862TIP3   OH247780   1.872   7.452   0.663 -0.2101  0.7184  0.0037
 7862TIP3    H147781   1.966   7.440   0.650 -0.2152  1.6554 -1.2110
 7862TIP3    H247782   1.865   7.540   0.702 -0.5869  0.8118 -0.2700
 7863TIP3   OH247783   6.237   4.662   1.652 -0.4463 -0.1462  0.0978
 7863TIP3    H147784   6.230   4.683   1.745  3.4602 -0.6352  0.6733
 7863TIP3    H247785   6.281   4.577   1.650 -0.6502 -0.2593 -2.1896
 7864TIP3   OH247786   1.563   7.080   2.373  0.3524  0.1976  0.5841
 7864TIP3    H147787   1.504   7.005   2.376 -0.0150  0.2507 -2.4106
 7864TIP3    H247788   1.635   7.051   2.316  1.6069  1.2245  1.5917
 7865TIP3   OH247789   0.033   4.106   1.774 -0.2260  0.3933  0.1262
 7865TIP3    H147790   0.118   4.067   1.753  0.4990  1.0350  1.6862
 7865TIP3    H247791  -0.023   4.032   1.795 -0.1151 -0.0532 -1.0799
 7866TIP3   OH247792   4.864   2.265   0.750 -0.0261  0.0845  0.0916
 7866TIP3    H147793   4.898   2.352   0.730  0.5318 -0.0678  0.3484
 7866TIP3    H247794   4.931   2.205   0.716 -0.0116 -0.2205  0.6445
 7867TIP3   OH247795   4.837   1.779   3.292 -0.1264  0.7724 -0.2432
 7867TIP3    H147796   4.790   1.771   3.210 -1.7164  2.4687  0.4596
 7867TIP3    H247797   4.814   1.865   3.326  0.6194  0.1957  1.9015
 7868TIP3   OH247798   3.800   0.169   1.436  0.5031  0.0034 -0.7243
 7868TIP3    H147799   3.850   0.092   1.410 -1.0605 -0.8630 -1.2999
 7868TIP3    H247800   3.710   0.150   1.408  0.1666  2.2567 -1.3552
 7869TIP3   OH247801   5.608   6.108   2.553 -0.2923  0.0201 -0.1274
 7869TIP3    H147802   5.601   6.036   2.490 -2.7856 -0.0444  0.1292
 7869TIP3    H247803   5.642   6.068   2.632 -1.7287 -0.9326  0.0347
 7870TIP3   OH247804   5.530   0.087   0.565 -0.0821  0.4003 -0.3438
 7870TIP3    H147805   5.553   0.170   0.524  0.3304 -0.2631 -1.5025
 7870TIP3    H247806   5.459   0.109   0.626  0.7707  1.7789  0.2149
 7871TIP3   OH247807   1.336   0.075   0.401 -0.2524  0.0801  0.4133
 7871TIP3    H147808   1.274   0.056   0.331 -0.5128  0.1075  0.6347
 7871TIP3    H247809   1.347   0.170   0.397 -1.2130  0.2431  1.1890
 7872TIP3   OH247810   7.469   5.457   0.985  0.1998  0.0182 -0.1690
 7872TIP3    H147811   7.500   5.371   1.012  0.6085  0.5651  1.1435
 7872TIP3    H247812   7.413   5.439   0.909  1.6588 -1.2248 -0.9983
 7873TIP3   OH247813   5.196   6.182   1.426 -0.2152 -0.1123 -0.4808
 7873TIP3    H147814   5.168   6.096   1.455  1.0488  0.0310  1.3402
 7873TIP3    H247815   5.284   6.168   1.392  0.1503  0.4907  0.1821
 7874TIP3   OH247816   3.188   2.566   0.417 -0.4314 -0.7187 -0.1978
 7874TIP3    H147817   3.245   2.643   0.418 -2.5977  0.9858  1.2781
 7874TIP3    H247818   3.247   2.493   0.397  2.1264  1.0057  0.5522
 7875TIP3   OH247819   0.557   3.061   3.234 -0.7986  0.0732  0.1512
 7875TIP3    H147820   0.616   2.988   3.219  1.2109  1.3481  1.4040
 7875TIP3    H247821   0.482   3.022   3.280 -0.5481 -1.4338 -0.6667
 7876TIP3   OH247822   0.605   5.015   3.308 -0.5285  0.5722 -0.1003
 7876TIP3    H147823   0.694   5.016   3.343 -0.8207 -0.0551  0.6867
 7876TIP3    H247824   0.617   5.004   3.213  0.2463  1.4558 -0.1207
 7877TIP3   OH247825   0.594   4.877   2.657  0.7522  0.2290  0.7866
 7877TIP3    H147826   0.507   4.880   2.696 -0.9311  1.4425 -2.6616
 7877TIP3    H247827   0.631   4.963   2.673  1.0062 -0.0022  1.5017
 7878TIP3   OH247828   6.952   3.650   1.820  0.1499  0.6936 -0.5809
 7878TIP3    H147829   6.990   3.567   1.791  1.4145  0.7094  0.9266
 7878TIP3    H247830   7.026   3.699   1.857 -0.9866  1.5293  0.6742
 7879TIP3   OH247831   2.267   1.930   1.814 -0.2382  0.3230 -0.3860
 7879TIP3    H147832   2.257   1.875   1.736 -0.6177 -1.4300  0.8181
 7879TIP3    H247833   2.355   1.967   1.807  0.8430 -2.0549 -0.3403
 7880TIP3   OH247834   3.893   1.277   1.923  0.3583 -0.0523  0.2501
 7880TIP3    H147835   3.818   1.221   1.904 -0.1834  0.5215  0.6949
 7880TIP3    H247836   3.890   1.291   2.018  1.8444 -1.1768  0.5123
 7881TIP3   OH247837   1.541   3.272   2.737  0.0188 -0.1147  0.2054
 7881TIP3    H147838   1.615   3.320   2.702 -0.9832  0.9176 -0.5662
 7881TIP3    H247839   1.564   3.180   2.724  0.8352  0.2037 -0.6862
 7882TIP3   OH247840   2.584   4.528   3.138 -0.2571  0.2224  0.7036
 7882TIP3    H147841   2.611   4.607   3.092 -0.6776 -0.2512 -0.3692
 7882TIP3    H247842   2.519   4.559   3.202 -0.3212  0.7678  0.3829
 7883TIP3   OH247843   2.106   1.368   1.638 -0.8494 -0.3182 -0.1840
 7883TIP3    H147844   2.145   1.424   1.704  0.0974  0.4195 -1.3284
 7883TIP3    H247845   2.034   1.323   1.683 -0.4205  0.3850  1.2395
 7884TIP3   OH247846   1.340   2.458   1.770 -0.7254 -0.3314  0.8096
 7884TIP3    H147847   1.431   2.446   1.744 -1.1300 -1.7308 -0.0922
 7884TIP3    H247848   1.291   2.453   1.688 -1.8016 -2.0149  1.4846
 7885TIP3   OH247849   4.250   1.064   0.431 -0.6410 -0.1491 -0.0185
 7885TIP3    H147850   4.235   0.970   0.435  0.8470 -0.3709  2.1777
 7885TIP3    H247851   4.338   1.076   0.469 -0.6338  2.0880 -0.5722
 7886TIP3   OH247852   5.206   3.504   1.988 -0.5394  0.6978  0.5431
 7886TIP3    H147853   5.227   3.531   1.899 -1.4329  1.1268  0.4460
 7886TIP3    H247854   5.224   3.581   2.041 -0.7938  0.7086  0.6138
 7887TIP3   OH247855   7.336   0.372   0.953  0.0358 -0.5260 -0.4589
 7887TIP3    H147856   7.397   0.446   0.953 -2.2398  1.4587 -0.2725
 7887TIP3    H247857   7.363   0.319   1.028  1.8171 -0.0130 -0.6868
 7888TIP3   OH247858   6.494   0.699   2.335 -0.3286 -0.0584 -0.3269
 7888TIP3    H147859   6.437   0.659   2.270 -1.2033 -1.1345  1.0642
 7888TIP3    H247860   6.528   0.626   2.387  0.4495  0.7577  0.3654
 7889TIP3   OH247861   6.983   4.959   1.818  0.8454  0.3137  0.0669
 7889TIP3    H147862   6.952   5.007   1.894 -0.1789  1.2517 -0.9018
 7889TIP3    H247863   6.936   4.876   1.820  0.7549  0.3721  0.3974
 7890TIP3   OH247864   6.678   6.797   0.785  0.2521  0.6074 -0.3946
 7890TIP3    H147865   6.747   6.731   0.788 -1.6265 -1.4625 -0.3635
 7890TIP3    H247866   6.641   6.798   0.873 -2.0000 -0.9163 -1.2495
 7891TIP3   OH247867   0.292   7.116   2.767  0.0706  0.5916  0.3206
 7891TIP3    H147868   0.212   7.165   2.747 -0.5738 -0.5327 -0.0079
 7891TIP3    H247869   0.260   7.037   2.812  0.9896  0.0662  0.0668
 7892TIP3   OH247870   4.325   6.075   1.320  0.1843  0.1628 -0.1036
 7892TIP3    H147871   4.238   6.113   1.330  0.1616 -0.3172  2.0771
 7892TIP3    H247872   4.338   6.069   1.226 -2.4954 -0.5572 -0.5133
 7893TIP3   OH247873   4.719   6.060   1.032 -0.4160 -0.1386  0.1362
 7893TIP3    H147874   4.764   6.094   1.110  2.4853 -1.9886 -0.5302
 7893TIP3    H247875   4.787   6.060   0.964 -1.7330 -2.1525 -1.2937
 7894TIP3   OH247876   0.765   5.109   0.501  0.6880 -0.4355  0.2762
 7894TIP3    H147877   0.754   5.031   0.447  1.7610 -1.8916  2.0102
 7894TIP3    H247878   0.677   5.144   0.512  0.4601  0.0587 -2.5240
 7895TIP3   OH247879   4.328   5.556   1.918 -0.6418 -0.2808 -0.5693
 7895TIP3    H147880   4.271   5.494   1.964 -2.3409  0.8702 -1.0347
 7895TIP3    H247881   4.388   5.500   1.867  0.4039 -1.5616  1.9053
 7896TIP3   OH247882   1.912   6.826   2.397  0.1089 -0.6712  0.2004
 7896TIP3    H147883   1.877   6.839   2.485  3.3811 -2.0097  1.8778
 7896TIP3    H247884   1.931   6.732   2.393 -1.1528 -0.9122 -2.5148
 7897TIP3   OH247885   3.778   2.295   1.211 -0.1435  0.5430  0.6109
 7897TIP3    H147886   3.760   2.375   1.162  0.8037 -0.1577 -0.9722
 7897TIP3    H247887   3.867   2.272   1.186 -0.3049 -0.8692  1.2588
 7898TIP3   OH247888   1.517   1.742   1.414  0.1916 -0.7349 -0.0855
 7898TIP3    H147889   1.460   1.813   1.384 -0.5254 -0.8395  0.9747
 7898TIP3    H247890   1.516   1.748   1.509  0.0822 -2.1916  0.0336
 7899TIP3   OH247891   5.539   6.301   0.427 -0.0862 -0.4864 -0.3147
 7899TIP3    H147892   5.503   6.317   0.514  0.3669  0.3789 -0.2721
 7899TIP3    H247893   5.577   6.385   0.401 -0.6441 -0.6020 -1.5563
 7900TIP3   OH247894   5.883   3.187   1.154  0.2724 -0.6353  0.4387
 7900TIP3    H147895   5.796   3.203   1.192  0.5875  1.2557  0.4452
 7900TIP3    H247896   5.894   3.092   1.160 -1.9484 -0.9895  0.0983
 7901TIP3   OH247897   0.134   6.275   2.413  0.1403  0.5076  0.0842
 7901TIP3    H147898   0.096   6.363   2.408 -1.3178 -0.1065 -0.1106
 7901TIP3    H247899   0.117   6.237   2.327 -2.8193 -1.3398  1.3492
 7902TIP3   OH247900   5.391   3.929   1.088 -0.3657  0.1016  0.3065
 7902TIP3    H147901   5.383   3.874   1.167 -0.4560  1.6821  1.4420
 7902TIP3    H247902   5.470   3.981   1.104 -1.7803  2.2964  0.5928
 7903TIP3   OH247903   5.503   4.723   2.955  0.0390 -0.9248  0.2375
 7903TIP3    H147904   5.452   4.653   2.995 -0.0452 -1.6160 -1.0272
 7903TIP3    H247905   5.437   4.788   2.929 -0.2451 -1.7924 -1.3461
 7904TIP3   OH247906   7.515   6.159   0.538  0.1575 -0.3350  0.6402
 7904TIP3    H147907   7.426   6.193   0.529  0.4108  1.1128  2.6846
 7904TIP3    H247908   7.570   6.238   0.538  1.4619 -1.2042 -0.6199
 7905TIP3   OH247909   5.815   3.688   2.417 -0.5937  0.4932 -0.5226
 7905TIP3    H147910   5.827   3.779   2.443 -0.7242  0.1896  0.6278
 7905TIP3    H247911   5.863   3.680   2.334 -1.6578  1.9279 -1.3208
 7906TIP3   OH247912   1.450   5.282   0.371 -0.1824  0.2833  0.7575
 7906TIP3    H147913   1.434   5.363   0.421  0.5563 -0.7113  2.7354
 7906TIP3    H247914   1.391   5.288   0.296 -3.7634  0.5180  3.3434
 7907TIP3   OH247915   3.124   4.160   8.584 -0.2602 -0.1809 -0.0182
 7907TIP3    H147916   3.214   4.186   8.604 -0.8880  0.6258  1.9854
 7907TIP3    H247917   3.092   4.226   8.523  0.0489  0.3743  0.4170
 7908TIP3   OH247918   7.335   6.502   2.717 -0.3993 -0.1344  0.5869
 7908TIP3    H147919   7.374   6.566   2.657 -2.3718  1.3898  0.8219
 7908TIP3    H247920   7.348   6.540   2.804 -0.4314 -0.7258  0.8532
 7909TIP3   OH247921   0.809   6.811   1.089  0.0771  0.1319 -0.3269
 7909TIP3    H147922   0.894   6.794   1.049  1.2238  0.4506  1.8342
 7909TIP3    H247923   0.787   6.900   1.061  1.4769  0.8531  0.7486
 7910TIP3   OH247924   3.170   1.905   0.855  0.1095  0.0445 -0.1099
 7910TIP3    H147925   3.238   1.935   0.795  0.7638 -1.1198  0.0199
 7910TIP3    H247926   3.098   1.878   0.799  0.8612 -1.3917 -0.4244
 7911TIP3   OH247927   0.666   5.607   1.353  0.6457  0.0513  0.0348
 7911TIP3    H147928   0.699   5.623   1.264  1.8408 -0.5652  0.3576
 7911TIP3    H247929   0.732   5.552   1.394  0.2414  0.5540  1.4115
 7912TIP3   OH247930   0.446   5.784   0.584  0.2020  0.4364 -0.4197
 7912TIP3    H147931   0.413   5.784   0.673 -1.9169  1.8418 -1.1197
 7912TIP3    H247932   0.381   5.734   0.534 -0.3490  2.2410 -1.6353
 7913TIP3   OH247933   5.584   7.384   1.968 -0.3854 -0.2519 -0.1526
 7913TIP3    H147934   5.617   7.320   2.031  0.0309  0.2485  0.1482
 7913TIP3    H247935   5.647   7.457   1.973 -0.8208  0.1535 -0.5276
 7914TIP3   OH247936   3.851   6.490   2.713  0.3528  0.5240 -0.5365
 7914TIP3    H147937   3.865   6.489   2.808  0.8778 -1.1938 -0.5814
 7914TIP3    H247938   3.938   6.473   2.677  0.0153  0.3734 -1.2901
 7915TIP3   OH247939   0.068   5.144   1.641  0.3476 -0.2347  0.3992
 7915TIP3    H147940   0.138   5.187   1.689 -0.7440 -0.5633  2.3836
 7915TIP3    H247941   0.110   5.112   1.561  1.7412  2.2944  0.0033
 7916TIP3   OH247942   4.793   6.596   2.372 -0.2044  0.3624  0.1802
 7916TIP3    H147943   4.852   6.549   2.312 -0.7750 -0.0900 -0.0294
 7916TIP3    H247944   4.788   6.540   2.449  0.0508  0.6565  0.4158
 7917TIP3   OH247945   4.298   0.058   0.947 -0.5829 -0.3524  0.6193
 7917TIP3    H147946   4.275  -0.018   0.893  1.1351  0.8864 -2.1183
 7917TIP3    H247947   4.217   0.110   0.951 -0.7830 -0.4823 -0.8986
 7918TIP3   OH247948   6.452   7.262   0.694 -0.0915  0.1984  0.4929
 7918TIP3    H147949   6.450   7.240   0.601 -2.8252  0.4980  0.3932
 7918TIP3    H247950   6.429   7.180   0.738 -0.6462  0.4946  0.7623
 7919TIP3   OH247951   2.931   2.472   2.557 -0.4894  0.1304 -0.5524
 7919TIP3    H147952   2.974   2.399   2.602 -0.4794  0.6007  0.2213
 7919TIP3    H247953   2.967   2.469   2.468  0.6888  0.1304 -0.1004
 7920TIP3   OH247954   6.448   6.359   1.475 -0.1968 -1.0841  0.1555
 7920TIP3    H147955   6.374   6.386   1.529  0.7380  0.3001  0.7777
 7920TIP3    H247956   6.525   6.394   1.519  0.5609  0.9368 -2.5120
 7921TIP3   OH247957   4.608   5.119   2.430 -0.4416 -0.4468 -0.3015
 7921TIP3    H147958   4.578   5.131   2.520  3.2332  1.4787  0.8556
 7921TIP3    H247959   4.591   5.027   2.411 -1.8951 -0.7503  2.0744
 7922TIP3   OH247960   6.959   1.149   1.466 -0.9922 -0.3710 -0.1079
 7922TIP3    H147961   6.892   1.185   1.524 -0.0061  1.8417 -0.2452
 7922TIP3    H247962   6.938   1.185   1.380 -1.1683 -1.8586 -0.7091
 7923TIP3   OH247963   7.238   7.285   0.466 -0.1591  0.3076 -0.1611
 7923TIP3    H147964   7.331   7.259   0.463 -0.5465 -1.1221 -0.6327
 7923TIP3    H247965   7.239   7.377   0.440  1.1166  0.2682 -0.3540
 7924TIP3   OH247966   2.251   2.488   2.622  0.1936  0.5644 -0.1611
 7924TIP3    H147967   2.157   2.500   2.607  0.1307 -0.2473 -0.4618
 7924TIP3    H247968   2.266   2.395   2.606  0.4881 -0.0271  2.8719
 7925TIP3   OH247969   0.475   2.019   1.775  0.0424  0.1086 -0.0541
 7925TIP3    H147970   0.430   2.102   1.760 -1.8293 -1.0631 -1.2937
 7925TIP3    H247971   0.544   2.018   1.708 -1.4332 -0.3211 -1.6526
 7926TIP3   OH247972   1.665   2.204   3.050  0.1443  0.1918  0.0351
 7926TIP3    H147973   1.743   2.236   3.096  0.6824 -0.4020 -0.4399
 7926TIP3    H247974   1.626   2.141   3.110  0.8545 -0.5941 -0.3020
 7927TIP3   OH247975   2.796   0.837   1.600  0.0495 -0.4127  0.0255
 7927TIP3    H147976   2.715   0.848   1.649 -1.7134  0.6911 -2.8791
 7927TIP3    H247977   2.784   0.756   1.551  0.8690 -0.4001 -0.2144
 7928TIP3   OH247978   5.501   2.385   1.365 -0.1445 -0.8884  0.7738
 7928TIP3    H147979   5.579   2.399   1.310  0.4507  0.3965  1.8911
 7928TIP3    H247980   5.464   2.303   1.332  0.1089 -0.1381 -1.6262
 7929TIP3   OH247981   3.085   1.409   1.796  0.0819  0.3017  1.0512
 7929TIP3    H147982   3.043   1.384   1.714 -0.2680 -0.0600  1.3334
 7929TIP3    H247983   3.055   1.343   1.859 -0.1309  0.9137  1.6070
 7930TIP3   OH247984   0.037   1.056   1.344 -0.3049  0.4597  0.2235
 7930TIP3    H147985   0.128   1.070   1.368 -0.1936  0.7207 -0.3293
 7930TIP3    H247986   0.004   0.994   1.409  0.4864 -0.2472 -0.0286
 7931TIP3   OH247987   6.702   7.324   1.606 -0.0387 -0.1587  0.0374
 7931TIP3    H147988   6.758   7.273   1.665  0.2217 -0.1938 -0.2350
 7931TIP3    H247989   6.692   7.409   1.649  0.7095  0.0544 -0.1822
 7932TIP3   OH247990   7.521   2.423   1.819  0.0204  0.3625  0.4779
 7932TIP3    H147991   7.474   2.350   1.778  0.5978 -0.6723  1.5895
 7932TIP3    H247992   7.472   2.442   1.899 -0.2655  1.3815  0.0802
 7933TIP3   OH247993   1.772   1.642   1.129 -0.0902  0.0125 -0.2472
 7933TIP3    H147994   1.782   1.547   1.137  0.4459  0.0836 -0.0611
 7933TIP3    H247995   1.741   1.670   1.215  0.8034  0.1397  0.0407
 7934TIP3   OH247996   0.704   5.794   2.016 -0.2049 -0.4009  0.1482
 7934TIP3    H147997   0.643   5.757   2.080 -0.0908 -0.7833  0.0434
 7934TIP3    H247998   0.744   5.717   1.975 -2.2188 -0.2587 -2.2884
 7935TIP3   OH247999   6.199   0.664   1.234 -0.1203 -0.7649 -0.1516
 7935TIP3    H148000   6.138   0.619   1.175 -0.9467 -1.2800  1.0524
 7935TIP3    H248001   6.271   0.602   1.245 -1.2498 -1.8538  1.4935
 7936TIP3   OH248002   4.275   0.861   2.959  1.0006 -0.2135  0.0570
 7936TIP3    H148003   4.352   0.905   2.996  1.2250 -0.3135 -0.2867
 7936TIP3    H248004   4.303   0.770   2.948  0.9585 -0.1655 -0.4306
 7937TIP3   OH248005   5.482   1.201   1.362  0.0392 -0.1887  0.0945
 7937TIP3    H148006   5.420   1.130   1.347  0.5244 -0.3587 -1.2940
 7937TIP3    H248007   5.552   1.162   1.414  0.5369 -0.8835 -1.0575
 7938TIP3   OH248008   0.817   4.927   1.860 -0.0054 -0.0644  0.1418
 7938TIP3    H148009   0.794   4.929   1.768  2.7229  0.9518 -0.6308
 7938TIP3    H248010   0.735   4.909   1.906 -1.4182 -0.6779 -2.4575
 7939TIP3   OH248011   0.951   6.632   2.305  0.0915 -0.1684 -0.1061
 7939TIP3    H148012   1.039   6.611   2.337  0.4227  1.3762  0.1093
 7939TIP3    H248013   0.894   6.616   2.380  0.4059  0.2098  0.2223
 7940TIP3   OH248014   3.689   4.198   1.213 -0.0360  0.0181 -0.4384
 7940TIP3    H148015   3.653   4.251   1.284 -0.3126  0.3532 -0.8206
 7940TIP3    H248016   3.784   4.211   1.220  0.1428 -1.7855  1.2883
 7941TIP3   OH248017   0.361   3.838   2.061  0.2244 -0.1691 -0.8104
 7941TIP3    H148018   0.431   3.902   2.072  0.2310 -0.2378 -0.4507
 7941TIP3    H248019   0.404   3.753   2.072  0.3372 -0.2696 -1.9032
 7942TIP3   OH248020   0.461   6.137   2.341  0.2180 -0.0636  0.3819
 7942TIP3    H148021   0.389   6.184   2.299  1.5309  0.6063 -1.2662
 7942TIP3    H248022   0.436   6.045   2.334 -0.2519  0.1217 -0.6813
 7943TIP3   OH248023   4.716   3.245   1.043  0.2396 -0.0392  0.0640
 7943TIP3    H148024   4.717   3.173   0.980  0.6025 -0.1896  0.2361
 7943TIP3    H248025   4.714   3.324   0.990 -1.8417 -0.1589 -0.1460
 7944TIP3   OH248026   6.113   2.792   0.437 -0.0432 -0.2821  0.1074
 7944TIP3    H148027   6.117   2.797   0.532  0.4249 -0.3401  0.0943
 7944TIP3    H248028   6.022   2.812   0.415 -0.5996 -1.9972  0.6727
 7945TIP3   OH248029   7.136   7.301   1.179 -0.2616  0.1289 -0.4790
 7945TIP3    H148030   7.071   7.316   1.247 -1.0725 -2.1392 -0.6815
 7945TIP3    H248031   7.093   7.244   1.116  1.1551  0.5052 -1.8678
 7946TIP3   OH248032   0.708   0.668   1.739  0.2432 -0.0962  0.2048
 7946TIP3    H148033   0.677   0.728   1.671  1.6589  0.0909 -0.3126
 7946TIP3    H248034   0.629   0.630   1.776 -0.5819 -0.4493 -1.7868
 7947TIP3   OH248035   4.565   2.920   1.034  0.2460  0.0628 -0.1103
 7947TIP3    H148036   4.626   2.855   1.069  0.7327  0.6151  0.0702
 7947TIP3    H248037   4.608   2.954   0.955 -0.0541  0.0982 -0.2631
 7948TIP3   OH248038   4.072   0.221   0.884  0.6942  0.5286 -0.2942
 7948TIP3    H148039   3.997   0.179   0.842  0.8530  0.2730 -0.3271
 7948TIP3    H248040   4.036   0.300   0.925  0.3639  0.2893 -0.1179
 7949TIP3   OH248041   1.462   5.696   1.930 -0.1627 -0.0370 -0.1061
 7949TIP3    H148042   1.444   5.642   1.853 -0.5103  1.1286 -0.8695
 7949TIP3    H248043   1.375   5.718   1.964 -0.0360  0.4755 -0.1140
 7950TIP3   OH248044   5.459   0.111   2.797 -0.3565  0.7268 -0.3524
 7950TIP3    H148045   5.496   0.185   2.750  0.3393  1.5671  1.4059
 7950TIP3    H248046   5.444   0.145   2.886  0.3621 -1.3285  0.6149
 7951TIP3   OH248047   5.217   6.138   2.037  0.0379  0.2928  0.3347
 7951TIP3    H148048   5.250   6.205   1.977  1.1088 -0.5330 -0.0188
 7951TIP3    H248049   5.291   6.120   2.096 -0.4180 -0.1903  0.7697
 7952TIP3   OH248050   0.760   6.521   1.067 -0.2756 -0.1808  0.6425
 7952TIP3    H148051   0.757   6.617   1.063 -0.4264 -0.2041  0.1539
 7952TIP3    H248052   0.691   6.492   1.008  2.0013 -0.5987 -2.0618
 7953TIP3   OH248053   3.906   1.373   2.843  0.4510  0.0676 -0.2704
 7953TIP3    H148054   3.852   1.386   2.921  1.0846  0.5798  0.0864
 7953TIP3    H248055   3.844   1.376   2.770  0.0439  1.0999  0.1013
 7954TIP3   OH248056   3.851   4.517   1.284 -0.2371  0.2588  0.4713
 7954TIP3    H148057   3.816   4.429   1.267 -0.2869  0.2850  0.4377
 7954TIP3    H248058   3.829   4.567   1.206 -1.1238  0.5785  0.9098
 7955TIP3   OH248059   7.474   5.926   2.494 -0.0582 -0.2974 -0.4294
 7955TIP3    H148060   7.537   5.916   2.423  0.4144 -0.9883  0.0854
 7955TIP3    H248061   7.476   6.020   2.515  1.6355 -0.4704  0.3339
 7956TIP3   OH248062   5.070   6.928   3.388  0.8466 -0.6266 -0.0517
 7956TIP3    H148063   5.127   6.991   3.432  1.0313 -0.4060 -0.6084
 7956TIP3    H248064   5.037   6.974   3.311  0.8899 -1.1684 -0.4007
 7957TIP3   OH248065   5.221   4.334   0.541  0.4800 -0.6159 -0.1781
 7957TIP3    H148066   5.305   4.377   0.560  0.0506  0.0492  0.2542
 7957TIP3    H248067   5.182   4.387   0.471 -0.9054  0.8923  1.6362
 7958TIP3   OH248068   7.066   1.737   1.962  0.0366  0.4778 -0.6436
 7958TIP3    H148069   7.019   1.819   1.953  0.3475  0.7710  0.2812
 7958TIP3    H248070   7.157   1.757   1.938  0.3794  0.7236  0.7600
 7959TIP3   OH248071   1.692   5.131   0.730  0.0095 -0.1071  0.3513
 7959TIP3    H148072   1.786   5.138   0.713  0.0374  1.3408  0.8886
 7959TIP3    H248073   1.686   5.110   0.824 -0.2045 -3.1877 -0.2512
 7960TIP3   OH248074   2.978   3.915   2.451  0.3619  0.3554  0.5232
 7960TIP3    H148075   2.938   3.829   2.445 -0.7827  0.8478  0.7986
 7960TIP3    H248076   3.063   3.905   2.409 -1.2465 -0.0165 -3.0797
 7961TIP3   OH248077   3.244   1.599   2.143 -0.0471  0.4283  0.0078
 7961TIP3    H148078   3.248   1.676   2.087  0.1384  1.4516  1.3789
 7961TIP3    H248079   3.151   1.585   2.158 -0.1409 -0.3095 -1.1252
 7962TIP3   OH248080   0.071   3.609   0.595 -0.2894 -0.4398 -0.3865
 7962TIP3    H148081   0.093   3.516   0.600  1.8989  0.0734  0.5418
 7962TIP3    H248082   0.054   3.634   0.686 -0.3102  0.1909 -0.5597
 7963TIP3   OH248083   3.438   3.281   2.666  0.6617 -0.2363  0.4882
 7963TIP3    H148084   3.466   3.259   2.577  0.0678 -0.5089  0.3647
 7963TIP3    H248085   3.353   3.238   2.675  1.5457 -1.8313  1.8315
 7964TIP3   OH248086   4.831   3.331   1.331 -0.0162  0.7645  0.7113
 7964TIP3    H148087   4.761   3.392   1.355 -1.5994 -0.7155  0.1467
 7964TIP3    H248088   4.853   3.353   1.241 -1.1420  0.0621  0.2376
 7965TIP3   OH248089   3.258   3.848   1.306  0.3623 -0.1651 -0.3011
 7965TIP3    H148090   3.328   3.865   1.369 -0.4705 -1.0812  0.9067
 7965TIP3    H248091   3.265   3.920   1.243  0.2692  1.6321  1.6512
 7966TIP3   OH248092   5.776   5.116   2.430 -0.0584 -0.1729  0.1839
 7966TIP3    H148093   5.809   5.027   2.420 -1.0313 -0.4026 -1.2502
 7966TIP3    H248094   5.701   5.121   2.371  0.3144  1.7701 -0.2027
 7967TIP3   OH248095   5.050   3.253   1.140 -0.1429  0.3015  0.1001
 7967TIP3    H148096   5.110   3.205   1.083 -0.7183  0.4733 -0.6629
 7967TIP3    H248097   5.039   3.196   1.217 -0.5335 -0.6194 -0.6235
 7968TIP3   OH248098   4.075   3.436   1.441 -0.0173 -0.4450  0.0059
 7968TIP3    H148099   4.002   3.486   1.405  0.0652 -0.9659 -0.9333
 7968TIP3    H248100   4.144   3.501   1.457 -0.0399 -0.1999 -0.8445
 7969TIP3   OH248101   2.616   1.055   3.314  0.3075 -0.1509  0.2314
 7969TIP3    H148102   2.606   1.150   3.317  0.3723 -0.1105 -0.7670
 7969TIP3    H248103   2.554   1.026   3.247  0.0420 -0.8543  0.7591
 7970TIP3   OH248104   4.908   5.504   1.744  0.2189 -0.5039  0.3114
 7970TIP3    H148105   4.945   5.523   1.657 -1.6027 -0.1503 -0.4352
 7970TIP3    H248106   4.929   5.411   1.759  1.1093 -0.4009 -0.1989
 7971TIP3   OH248107   3.121   4.222   2.602  0.0663  0.9099  0.0502
 7971TIP3    H148108   3.167   4.296   2.640 -0.6665  0.6714  1.4605
 7971TIP3    H248109   3.031   4.253   2.591 -0.0783  0.4703 -0.0382
 7972TIP3   OH248110   7.450   3.224   1.206 -0.5943  0.4070  0.7967
 7972TIP3    H148111   7.441   3.134   1.238  1.0607  0.0795  0.4640
 7972TIP3    H248112   7.520   3.261   1.260  0.0612  0.8588 -0.3260
 7973TIP3   OH248113   2.420   5.018   2.639 -0.1170 -0.6005 -0.0811
 7973TIP3    H148114   2.366   4.994   2.714 -1.5134 -1.2264 -1.2307
 7973TIP3    H248115   2.408   4.946   2.577 -0.5025  0.7617 -1.6471
 7974TIP3   OH248116   4.714   5.678   1.514 -0.0106  0.2610 -0.1794
 7974TIP3    H148117   4.695   5.600   1.462  1.2173  1.1288 -2.0281
 7974TIP3    H248118   4.784   5.651   1.574  0.0304 -0.2034 -0.4368
 7975TIP3   OH248119   0.434   4.009   2.392 -0.0463  0.3156 -0.1261
 7975TIP3    H148120   0.500   4.018   2.323 -0.6024 -0.7300 -0.8101
 7975TIP3    H248121   0.462   3.932   2.441 -0.1566  0.5250  0.2690
 7976TIP3   OH248122   3.050   5.807   0.846 -0.0762  0.1597  0.6936
 7976TIP3    H148123   3.124   5.790   0.788 -0.8008  1.5055 -0.7010
 7976TIP3    H248124   3.090   5.826   0.931  1.0744 -0.7200  0.3794
 7977TIP3   OH248125   0.739   3.047   0.799  0.8915 -0.4833 -0.1250
 7977TIP3    H148126   0.647   3.024   0.791  0.6939  0.4801 -0.7330
 7977TIP3    H248127   0.767   3.006   0.881 -0.2543 -0.2263  0.4157
 7978TIP3   OH248128   1.266   2.772   1.919 -0.1348 -0.0246 -0.3440
 7978TIP3    H148129   1.232   2.683   1.928 -1.4130  0.2488 -1.9923
 7978TIP3    H248130   1.301   2.775   1.830 -0.3288  1.1795 -0.3943
 7979TIP3   OH248131   2.622   4.341   1.157  0.1026 -0.1376  0.1754
 7979TIP3    H148132   2.595   4.430   1.137  2.0221  0.5265  0.2782
 7979TIP3    H248133   2.699   4.326   1.102  0.7455 -1.1420  1.2935
 7980TIP3   OH248134   5.577   6.669   2.226  0.0502  0.4993  0.0037
 7980TIP3    H148135   5.640   6.617   2.274 -1.9838 -0.4317  1.8196
 7980TIP3    H248136   5.564   6.621   2.144  0.7843  0.0551  0.1394
 7981TIP3   OH248137   7.255   6.351   1.513 -0.1568  0.0817  0.4728
 7981TIP3    H148138   7.270   6.257   1.511 -0.0102  0.0537 -3.1009
 7981TIP3    H248139   7.166   6.361   1.547  0.6258 -1.0841  3.1328
 7982TIP3   OH248140   2.898   0.511   2.036 -0.0507  0.2949 -0.7466
 7982TIP3    H148141   2.816   0.544   2.073 -0.4420 -2.0473  0.7030
 7982TIP3    H248142   2.872   0.471   1.953 -0.5387 -0.9068 -0.0482
 7983TIP3   OH248143   4.136   1.917   0.424 -0.2833  0.1986 -0.2927
 7983TIP3    H148144   4.216   1.883   0.383 -0.6425 -0.0853 -0.7644
 7983TIP3    H248145   4.159   2.006   0.450  0.5583 -0.2619  0.6393
 7984TIP3   OH248146   3.953   4.409   1.827 -0.3249 -0.1881 -0.5241
 7984TIP3    H148147   3.942   4.361   1.909 -0.7769  0.2945 -0.2890
 7984TIP3    H248148   4.005   4.352   1.772 -0.0030 -0.5167  0.1083
 7985TIP3   OH248149   0.903   1.338   0.552  0.0923  0.4244 -0.6397
 7985TIP3    H148150   0.959   1.334   0.629 -0.1924  2.4077 -0.2617
 7985TIP3    H248151   0.831   1.396   0.578 -1.1448 -0.5642 -1.7205
 7986TIP3   OH248152   4.660   6.838   0.808 -0.5908  0.2602  0.3145
 7986TIP3    H148153   4.624   6.832   0.896  0.9537 -0.7758  0.9184
 7986TIP3    H248154   4.682   6.747   0.784  1.7452  0.8076  0.1009
 7987TIP3   OH248155   2.506   1.303   0.519 -0.0490  0.1671 -0.1079
 7987TIP3    H148156   2.428   1.255   0.493 -0.1375 -0.2070  0.8018
 7987TIP3    H248157   2.579   1.250   0.486 -0.1677  0.0654 -0.2052
 7988TIP3   OH248158   4.019   6.701   1.204  0.1697 -0.2481  0.3588
 7988TIP3    H148159   4.111   6.676   1.217  0.1707 -0.5487 -0.1917
 7988TIP3    H248160   4.003   6.685   1.111 -0.2971  0.2906  0.3429
 7989TIP3   OH248161   1.824   4.473   1.241  0.1442 -0.4690  0.5499
 7989TIP3    H148162   1.740   4.492   1.281 -0.6254 -1.4838 -0.5202
 7989TIP3    H248163   1.804   4.415   1.167  1.4416  1.3735 -1.3957
 7990TIP3   OH248164   3.635   0.402   0.520 -0.5085 -0.0194 -0.0402
 7990TIP3    H148165   3.665   0.394   0.610  0.5460  1.9605 -0.1456
 7990TIP3    H248166   3.547   0.366   0.520 -0.1111 -1.0808  1.5120
 7991TIP3   OH248167   1.913   3.437   1.207 -0.0068 -0.1130 -0.1456
 7991TIP3    H148168   1.843   3.391   1.160 -0.4162  1.4064 -1.0934
 7991TIP3    H248169   1.946   3.501   1.144  0.0061  1.4090  1.3439
 7992TIP3   OH248170   3.396   2.764   2.148  0.6821 -0.3325 -0.1870
 7992TIP3    H148171   3.480   2.772   2.102  0.1706  0.3389 -1.0399
 7992TIP3    H248172   3.335   2.733   2.082  0.0077  0.2861  0.1309
 7993TIP3   OH248173   7.261   5.165   1.550 -0.1835 -0.4457 -0.0412
 7993TIP3    H148174   7.340   5.168   1.495 -0.7757  0.4281 -0.8743
 7993TIP3    H248175   7.287   5.206   1.632  0.0073  0.6037 -0.6179
 7994TIP3   OH248176   5.372   3.616   3.135  0.3754  0.7390 -0.8522
 7994TIP3    H148177   5.324   3.602   3.216  0.6814  1.5218 -0.5226
 7994TIP3    H248178   5.305   3.620   3.067  0.1982 -1.1085 -0.8249
 7995TIP3   OH248179   2.392   1.881   3.177  0.4218 -0.4491  0.4366
 7995TIP3    H148180   2.386   1.853   3.085 -0.3438  2.1524 -0.4028
 7995TIP3    H248181   2.474   1.844   3.208  0.2240 -2.2269 -0.9674
 7996TIP3   OH248182   5.552   1.790   2.370 -0.1582 -0.1935  0.0058
 7996TIP3    H148183   5.518   1.860   2.426 -1.1016 -1.1327  0.6390
 7996TIP3    H248184   5.569   1.833   2.286 -0.0988  0.9262  0.5742
 7997TIP3   OH248185   1.827   7.398   1.511 -0.2569  0.3461 -0.3640
 7997TIP3    H148186   1.790   7.387   1.424 -3.2640  0.3591  0.7929
 7997TIP3    H248187   1.819   7.312   1.552 -1.2034  0.8861  0.6607
 7998TIP3   OH248188   6.693   1.028   2.679 -1.0827 -0.3515 -0.3861
 7998TIP3    H148189   6.692   1.027   2.583  1.0532  1.7930 -0.5246
 7998TIP3    H248190   6.775   0.985   2.703 -0.9587  0.2955  0.4034
 7999TIP3   OH248191   3.815   2.595   2.048  0.2651  0.2129 -0.1856
 7999TIP3    H148192   3.745   2.654   2.020 -0.2088  0.1856  0.9315
 7999TIP3    H248193   3.894   2.649   2.044 -0.0756  0.7475  0.2209
 8000TIP3   OH248194   3.363   6.307   2.184  0.0649  0.4146 -0.0997
 8000TIP3    H148195   3.408   6.391   2.195 -2.9677  2.4531 -1.8097
 8000TIP3    H248196   3.354   6.297   2.089  1.0932 -2.3865  0.0003
 8001TIP3   OH248197   0.236   2.927   1.254 -0.5077  0.8427  0.1802
 8001TIP3    H148198   0.183   2.937   1.333  0.8048 -2.9273  1.7305
 8001TIP3    H248199   0.326   2.937   1.284 -0.0339  0.4215 -1.0603
 8002TIP3   OH248200   1.220   2.838   1.331  0.4973 -0.3823 -0.5852
 8002TIP3    H148201   1.234   2.909   1.269 -0.3651 -0.0474 -0.4047
 8002TIP3    H248202   1.197   2.882   1.413  0.2864 -0.8570 -0.3837
 8003TIP3   OH248203   0.643   2.858   1.133 -0.5217 -0.2414  0.4013
 8003TIP3    H148204   0.731   2.824   1.118  0.1868  1.8813 -0.8168
 8003TIP3    H248205   0.590   2.820   1.063 -0.7230 -1.9173  1.4341
 8004TIP3   OH248206   0.757   2.362   2.851  0.4052 -0.2569  0.2503
 8004TIP3    H148207   0.807   2.378   2.931 -0.4232 -1.7485  1.1299
 8004TIP3    H248208   0.804   2.291   2.808 -0.1680 -0.7297  0.3872
 8005TIP3   OH248209   2.259   6.800   1.253 -0.1177  0.3039 -0.1784
 8005TIP3    H148210   2.330   6.768   1.197  0.9236  1.1049  0.6505
 8005TIP3    H248211   2.252   6.893   1.231  0.8821  0.8373  1.5747
 8006TIP3   OH248212   3.400   3.437   3.256 -0.4022 -0.0613 -0.2522
 8006TIP3    H148213   3.420   3.503   3.322  2.1211 -0.4847 -0.5028
 8006TIP3    H248214   3.439   3.470   3.176 -0.2743 -1.2109 -0.6850
 8007TIP3   OH248215   0.489   6.770   2.889 -0.4576 -0.3788  0.1099
 8007TIP3    H148216   0.531   6.851   2.921 -0.1525 -0.5706  0.1991
 8007TIP3    H248217   0.400   6.797   2.868 -1.1898 -0.5854  2.6821
 8008TIP3   OH248218   7.272   6.246   0.975  0.0585  0.6874  0.0193
 8008TIP3    H148219   7.251   6.241   1.069 -3.4994  0.3252 -0.6619
 8008TIP3    H248220   7.213   6.314   0.942  1.4528  1.0024 -1.9384
 8009TIP3   OH248221   4.487   1.627   2.482  0.2169  0.5451 -0.0091
 8009TIP3    H148222   4.478   1.663   2.394 -1.7876  2.1707  0.7835
 8009TIP3    H248223   4.506   1.703   2.537 -0.1910 -0.2058  1.2051
 8010TIP3   OH248224   4.598   1.235   1.711  0.5417  0.2618 -0.1140
 8010TIP3    H148225   4.506   1.235   1.686  0.4722  0.6188  0.1270
 8010TIP3    H248226   4.604   1.169   1.781  0.5354  0.0060 -0.3525
 8011TIP3   OH248227   1.301   4.413   1.953 -0.3277 -0.5737  0.0130
 8011TIP3    H148228   1.323   4.322   1.973  1.1022 -0.1193  0.7166
 8011TIP3    H248229   1.371   4.464   1.996 -1.7982  0.9180  0.7486
 8012TIP3   OH248230   2.468   3.851   1.018 -0.3158 -0.3363 -0.1800
 8012TIP3    H148231   2.523   3.802   1.079  0.3107 -0.0227 -0.4796
 8012TIP3    H248232   2.530   3.890   0.957 -0.8248  0.5771 -0.1282
 8013TIP3   OH248233   1.360   0.327   0.467 -0.4470  0.2503 -0.3703
 8013TIP3    H148234   1.285   0.371   0.427  0.8187  0.6945 -2.4247
 8013TIP3    H248235   1.425   0.396   0.480  1.0645 -0.6540 -2.3907
 8014TIP3   OH248236   4.910   0.304   3.462  0.0501 -0.2319 -0.0138
 8014TIP3    H148237   4.830   0.252   3.456 -1.0053  1.2501  0.3925
 8014TIP3    H248238   4.878   0.393   3.481  1.8369  0.2515  0.8627
 8015TIP3   OH248239   1.541   2.605   1.021  0.0585 -0.0019 -0.4111
 8015TIP3    H148240   1.560   2.691   1.060  2.0606  0.5678 -2.3981
 8015TIP3    H248241   1.592   2.605   0.940 -1.0910 -2.5115 -1.2042
 8016TIP3   OH248242   2.322   1.786   1.331  0.0990 -0.0829 -0.2479
 8016TIP3    H148243   2.295   1.758   1.243 -1.9068  0.5521  0.1070
 8016TIP3    H248244   2.411   1.818   1.320  1.1532 -3.0800 -1.3847
 8017TIP3   OH248245   0.999   1.969   2.675 -0.6053 -0.1253  0.0238
 8017TIP3    H148246   1.006   1.917   2.594 -0.8229  1.6602 -1.1959
 8017TIP3    H248247   0.983   2.058   2.645 -2.2757  0.3530  2.0953
 8018TIP3   OH248248   0.073   1.864   2.046 -0.3350  0.3471  0.5209
 8018TIP3    H148249   0.155   1.875   2.093 -0.8713  0.8902  1.3431
 8018TIP3    H248250   0.047   1.952   2.021  0.0101  0.0665 -0.9480
 8019TIP3   OH248251   5.747   4.193   0.896  0.2697 -0.3309  0.3164
 8019TIP3    H148252   5.839   4.206   0.873  0.4740  0.9025  1.6604
 8019TIP3    H248253   5.724   4.272   0.946 -1.8506 -0.0845 -0.9587
 8020TIP3   OH248254   2.644   3.797   0.802 -0.1833 -0.7210  0.0494
 8020TIP3    H148255   2.700   3.871   0.779 -1.2787  0.2253  0.3965
 8020TIP3    H248256   2.699   3.742   0.859  1.3988 -1.3511 -1.9516
 8021TIP3   OH248257   6.079   4.798   2.357  0.0733 -0.6749  0.3305
 8021TIP3    H148258   6.112   4.864   2.418 -0.4730 -0.4742  0.4179
 8021TIP3    H248259   6.144   4.796   2.287  1.0703 -1.4092  1.2421
 8022TIP3   OH248260   0.819   1.125   0.386 -0.3620  0.1089  0.3245
 8022TIP3    H148261   0.857   1.184   0.450  2.6250  0.6825 -1.7588
 8022TIP3    H248262   0.763   1.181   0.332  1.9347  1.0361 -1.2301
 8023TIP3   OH248263   4.452   1.352   2.464  0.3364  0.4374  0.0715
 8023TIP3    H148264   4.443   1.447   2.477 -0.2745  0.3700  0.1808
 8023TIP3    H248265   4.527   1.343   2.406 -0.5697  1.0872 -1.2510
 8024TIP3   OH248266   2.969   5.289   2.758  0.6222 -0.1360  0.1207
 8024TIP3    H148267   2.911   5.364   2.749  1.2695  0.3595  0.0534
 8024TIP3    H248268   3.015   5.283   2.674 -0.4983 -1.5228 -0.4336
 8025TIP3   OH248269   1.948   3.146   0.948  0.6180  0.0008  0.2233
 8025TIP3    H148270   2.038   3.128   0.922  0.9286 -0.6887  1.6978
 8025TIP3    H248271   1.939   3.241   0.937  1.7512  0.1864  0.7316
 8026TIP3   OH248272   1.885   6.169   0.605 -0.3386  0.0592  0.1476
 8026TIP3    H148273   1.919   6.243   0.554 -0.6836 -0.5485 -1.0028
 8026TIP3    H248274   1.903   6.193   0.696  1.4143  0.6477 -0.2957
 8027TIP3   OH248275   1.122   3.592   3.441 -0.6589  0.4315 -0.3920
 8027TIP3    H148276   1.106   3.498   3.448 -1.3437  0.5009 -0.8934
 8027TIP3    H248277   1.088   3.616   3.355  0.8183  0.8882 -0.8903
 8028TIP3   OH248278   5.494   3.271   2.761  0.1440  0.0037  0.1651
 8028TIP3    H148279   5.505   3.358   2.800  0.2117 -0.1090  0.4009
 8028TIP3    H248280   5.465   3.216   2.834  1.9283 -0.6099  0.4489
 8029TIP3   OH248281   3.688   0.455   3.264 -0.3997 -0.2932 -0.3584
 8029TIP3    H148282   3.685   0.551   3.262 -3.3276 -0.1941  1.8695
 8029TIP3    H248283   3.781   0.434   3.262  0.3235  2.4395 -2.7139
 8030TIP3   OH248284   5.377   3.201   1.648 -0.0824  0.0623  0.0141
 8030TIP3    H148285   5.433   3.151   1.589 -1.3510 -1.4925  0.0724
 8030TIP3    H248286   5.438   3.256   1.698  1.2668 -0.7316 -0.6980
 8031TIP3   OH248287   4.999   3.604   2.298  0.1774  0.1078  0.0229
 8031TIP3    H148288   5.073   3.598   2.237  0.1203  0.3963 -0.0764
 8031TIP3    H248289   5.003   3.694   2.331 -0.4830  0.3032 -0.4215
 8032TIP3   OH248290   1.736   4.920   2.337  0.2010 -0.2255 -0.1069
 8032TIP3    H148291   1.645   4.938   2.361  0.4297  0.8034  0.0310
 8032TIP3    H248292   1.761   4.992   2.279  2.1373  1.8352  2.9715
 8033TIP3   OH248293   3.230   7.319   2.876 -0.2837 -0.0803  0.0537
 8033TIP3    H148294   3.305   7.268   2.906 -0.2328  1.3338  2.5695
 8033TIP3    H248295   3.227   7.395   2.934 -1.5896  1.7457 -2.2209
 8034TIP3   OH248296   5.451   1.611   2.629  0.4171  0.1986 -0.2729
 8034TIP3    H148297   5.454   1.615   2.724  1.9371  0.1957 -0.3043
 8034TIP3    H248298   5.542   1.605   2.602 -0.0594 -1.7997 -1.6551
 8035TIP3   OH248299   0.710   1.815   2.610  0.1924  0.2248 -0.5341
 8035TIP3    H148300   0.655   1.787   2.684  3.1904 -2.1057  1.0393
 8035TIP3    H248301   0.690   1.754   2.540  1.2724 -1.1756  0.3270
 8036TIP3   OH248302   5.411   3.126   0.617 -0.2281 -0.1204 -0.2639
 8036TIP3    H148303   5.359   3.056   0.655 -2.0424  0.2347 -1.9233
 8036TIP3    H248304   5.355   3.203   0.621  0.9421  0.7630 -0.3190
 8037TIP3   OH248305   4.294   2.904   0.931 -0.4013  0.1494 -0.6011
 8037TIP3    H148306   4.322   2.951   0.852 -1.1321  0.2357 -0.8148
 8037TIP3    H248307   4.375   2.892   0.982 -0.0526  0.7927 -0.9911
 8038TIP3   OH248308   4.778   2.751   2.137  0.0220  0.2783 -0.0930
 8038TIP3    H148309   4.784   2.815   2.208 -1.3901 -0.7161  0.9614
 8038TIP3    H248310   4.697   2.703   2.154  0.5658 -1.1775 -1.3786
 8039TIP3   OH248311   7.034   6.389   1.882 -0.1380 -0.4661 -0.6351
 8039TIP3    H148312   7.001   6.400   1.793 -0.8437  1.1371 -0.2297
 8039TIP3    H248313   7.021   6.297   1.902 -1.6109 -0.4894 -1.5817
 8040TIP3   OH248314   0.940   2.041   1.523 -0.7889  0.7654  0.1940
 8040TIP3    H148315   0.989   2.122   1.507 -1.4491  1.0996 -0.2051
 8040TIP3    H248316   0.996   1.972   1.490 -0.5722  1.1447 -0.2547
 8041TIP3   OH248317   1.701   5.431   0.438  0.5986  0.1509  0.3216
 8041TIP3    H148318   1.688   5.450   0.531  0.3435  0.5967  0.1960
 8041TIP3    H248319   1.617   5.398   0.408  0.8107 -0.4250  0.3511
 8042TIP3   OH248320   4.604   1.286   1.310  0.5561 -0.1525 -0.4101
 8042TIP3    H148321   4.616   1.361   1.369 -1.5889 -0.7796  0.9484
 8042TIP3    H248322   4.528   1.309   1.256 -0.4376 -1.4551  0.3470
 8043TIP3   OH248323   7.493   1.299   1.351  0.2342 -0.2871  0.2143
 8043TIP3    H148324   7.433   1.300   1.427 -1.0867 -2.6380 -0.6895
 8043TIP3    H248325   7.545   1.220   1.363 -0.0015 -0.6983 -1.3136
 8044TIP3   OH248326   4.153   2.541   0.754 -0.1814 -0.2879 -0.2804
 8044TIP3    H148327   4.245   2.529   0.776 -0.1511 -0.1479 -0.3319
 8044TIP3    H248328   4.145   2.509   0.665  0.4190  2.3064 -1.3558
 8045TIP3   OH248329   1.773   3.399   2.549 -0.0551  0.1764  0.4466
 8045TIP3    H148330   1.775   3.472   2.488 -1.6224 -0.9477 -1.0294
 8045TIP3    H248331   1.780   3.440   2.636 -2.1380  2.2057 -0.2536
 8046TIP3   OH248332   6.712   3.178   2.593 -0.1456 -0.3752  0.2658
 8046TIP3    H148333   6.639   3.232   2.561 -0.7574 -0.1199  1.9823
 8046TIP3    H248334   6.756   3.234   2.657 -0.7831 -1.8780  2.0813
 8047TIP3   OH248335   3.975   7.150   2.760 -0.2089 -0.3320  0.3883
 8047TIP3    H148336   4.062   7.153   2.719 -0.3039 -1.6679  0.0156
 8047TIP3    H248337   3.929   7.226   2.725  0.5304 -0.1066 -0.1130
 8048TIP3   OH248338   3.202   4.459   0.604 -0.1491 -0.6312  0.0353
 8048TIP3    H148339   3.263   4.442   0.675  0.6042  1.2289 -0.1025
 8048TIP3    H248340   3.197   4.376   0.556  1.1806 -1.2312  0.8696
 8049TIP3   OH248341   5.374   0.703   3.162  0.3016 -0.1194  0.4511
 8049TIP3    H148342   5.417   0.684   3.245  0.2504  1.2371  0.8113
 8049TIP3    H248343   5.442   0.743   3.108  0.4074 -1.2401 -0.2797
 8050TIP3   OH248344   0.935   1.749   1.927  0.2692 -0.2423  0.0881
 8050TIP3    H148345   0.938   1.653   1.922  0.6977 -0.1690 -1.9561
 8050TIP3    H248346   0.874   1.774   1.857 -0.8036  0.9611  1.3903
 8051TIP3   OH248347   6.112   1.948   0.539  0.2874  0.4916 -0.1251
 8051TIP3    H148348   6.198   1.925   0.503 -0.4509 -0.5136 -1.3727
 8051TIP3    H248349   6.076   1.864   0.570 -0.5159  0.7724 -0.2756
 8052TIP3   OH248350   6.243   1.412   0.565 -0.2355  0.3575  0.1147
 8052TIP3    H148351   6.282   1.480   0.509 -1.2854  1.5248  0.7321
 8052TIP3    H248352   6.224   1.340   0.505  0.5099  0.7699 -0.6498
 8053TIP3   OH248353   2.212   6.525   1.098 -0.1420  0.2776 -0.1886
 8053TIP3    H148354   2.141   6.483   1.050 -1.1168  1.7557 -0.1044
 8053TIP3    H248355   2.242   6.596   1.041  0.3781  0.4854  0.3222
 8054TIP3   OH248356   5.838   6.965   2.841  0.2758  0.3924  0.0339
 8054TIP3    H148357   5.864   7.055   2.861 -2.0778  0.6876  2.3360
 8054TIP3    H248358   5.872   6.914   2.915 -0.6490 -0.1344  0.1098
 8055TIP3   OH248359   6.518   6.594   3.201  0.2510  0.3171 -0.0841
 8055TIP3    H148360   6.526   6.661   3.132 -0.8292 -0.4226 -0.9609
 8055TIP3    H248361   6.608   6.581   3.232  0.9590 -0.1610 -2.1712
 8056TIP3   OH248362   7.222   2.608   2.778  0.4920 -0.5361  0.8792
 8056TIP3    H148363   7.302   2.628   2.825  1.0425 -1.6725  0.4721
 8056TIP3    H248364   7.225   2.513   2.764 -0.6200 -0.5134  0.3146
 8057TIP3   OH248365   5.354   3.198   1.252 -0.2132  0.5456  0.9372
 8057TIP3    H148366   5.288   3.268   1.256 -0.2911  0.4198  2.0978
 8057TIP3    H248367   5.379   3.195   1.159 -0.2450  2.0764  0.8395
 8058TIP3   OH248368   4.697   4.514   1.727 -0.2756  0.1634 -0.3119
 8058TIP3    H148369   4.674   4.595   1.682 -1.3007 -0.0136 -0.1389
 8058TIP3    H248370   4.765   4.539   1.790 -0.7295  0.9264 -0.1215
 8059TIP3   OH248371   1.088   1.603   1.724  0.1846  0.0440  0.3445
 8059TIP3    H148372   1.044   1.536   1.776 -0.6688  0.7734  0.5866
 8059TIP3    H248373   1.134   1.658   1.788  1.9782 -1.0487  0.0560
 8060TIP3   OH248374   6.926   5.621   2.054  0.6908 -0.2306 -0.9808
 8060TIP3    H148375   6.871   5.588   1.983  0.0902  1.4674 -1.3712
 8060TIP3    H248376   6.898   5.573   2.131 -2.0989  1.2010 -0.9669
 8061TIP3   OH248377   0.385   0.936   2.019 -0.1825 -0.0496 -0.7590
 8061TIP3    H148378   0.389   1.030   2.039  0.3201  0.0966 -1.5006
 8061TIP3    H248379   0.459   0.921   1.959  0.4332 -1.1406  0.2220
 8062TIP3   OH248380   0.847   7.294   2.063 -0.0297 -0.7631 -0.5022
 8062TIP3    H148381   0.827   7.378   2.022 -3.2718 -1.5974 -0.8748
 8062TIP3    H248382   0.856   7.233   1.990  1.5336 -0.9470 -0.1966
 8063TIP3   OH248383   2.547   2.680   1.373 -0.2022  0.0001  0.3556
 8063TIP3    H148384   2.610   2.628   1.423 -0.3779 -1.3595 -0.7647
 8063TIP3    H248385   2.582   2.769   1.376  1.4345 -0.6039  0.2944
 8064TIP3   OH248386   7.293   3.828   1.275 -0.2122  0.3475  0.2328
 8064TIP3    H148387   7.340   3.765   1.330 -0.0041  0.2445 -0.0600
 8064TIP3    H248388   7.201   3.818   1.299 -0.2216 -0.3236 -0.0628
 8065TIP3   OH248389   4.779   2.951   2.373  0.3326 -0.2791  0.3163
 8065TIP3    H148390   4.710   3.016   2.378  0.1144 -0.4376 -0.4570
 8065TIP3    H248391   4.764   2.893   2.447 -0.0536 -0.0115  0.4451
 8066TIP3   OH248392   2.912   4.485   1.006  0.0720  0.0724  0.2953
 8066TIP3    H148393   2.835   4.542   1.000  0.2827  0.2800 -0.5737
 8066TIP3    H248394   2.981   4.541   1.043  0.1882  0.3057 -0.2538
 8067TIP3   OH248395   0.514   2.343   2.993 -0.0986  0.1549 -0.2368
 8067TIP3    H148396   0.588   2.351   2.932 -0.1895 -3.1114 -0.9746
 8067TIP3    H248397   0.542   2.277   3.056 -1.7401  0.1365  0.5163
 8068TIP3   OH248398   4.720   0.385   1.331 -0.7239 -0.6462 -0.5526
 8068TIP3    H148399   4.644   0.348   1.377 -0.2243 -1.3637 -0.2898
 8068TIP3    H248400   4.738   0.467   1.378 -1.8862  0.0112 -1.1881
 8069TIP3   OH248401   3.342   6.089   1.104  1.1209 -0.1640 -0.5837
 8069TIP3    H148402   3.270   6.084   1.167  0.3292 -3.5166 -1.5269
 8069TIP3    H248403   3.414   6.127   1.153 -0.7346  1.6866  0.9154
 8070TIP3   OH248404   5.623   3.278   0.809 -0.6438 -0.1494 -0.1178
 8070TIP3    H148405   5.599   3.271   0.717 -2.8640 -0.8690  0.4512
 8070TIP3    H248406   5.698   3.337   0.810 -0.6207 -0.0618 -2.3577
 8071TIP3   OH248407   3.726   0.089   2.728 -0.3097 -0.4867 -0.5442
 8071TIP3    H148408   3.791   0.030   2.690 -1.4189 -0.9071 -1.8706
 8071TIP3    H248409   3.759   0.176   2.709 -0.8623 -0.6769 -2.6683
 8072TIP3   OH248410   4.244   1.955   1.162 -0.3086  0.4772 -0.7375
 8072TIP3    H148411   4.267   2.006   1.085  1.5041 -0.0217 -0.5600
 8072TIP3    H248412   4.291   1.997   1.234 -0.0508 -0.4901 -0.3252
 8073TIP3   OH248413   6.457   2.008   2.979 -0.2007 -0.2715  0.0149
 8073TIP3    H148414   6.516   1.981   3.049 -1.4363 -0.7690  0.9141
 8073TIP3    H248415   6.392   1.938   2.974 -0.4533  0.0171 -1.2762
 8074TIP3   OH248416   6.495   0.864   0.686 -0.2685 -0.2862 -0.4648
 8074TIP3    H148417   6.576   0.855   0.635  0.5865  0.5686  0.6770
 8074TIP3    H248418   6.475   0.958   0.684 -0.6976 -0.3589  0.0519
 8075TIP3   OH248419   4.141   4.829   2.962  1.0208  0.3138  0.7265
 8075TIP3    H148420   4.131   4.754   3.020  0.9866  1.0241  1.6522
 8075TIP3    H248421   4.113   4.797   2.876  3.4825 -1.4800  0.5221
 8076TIP3   OH248422   6.715   5.731   1.218 -0.5203  0.1339  0.1272
 8076TIP3    H148423   6.799   5.705   1.256 -1.4120 -0.0493  2.0786
 8076TIP3    H248424   6.679   5.650   1.183 -0.7634 -0.1989  1.1137
 8077TIP3   OH248425   3.430   5.101   0.936 -0.0066  0.0442  0.3821
 8077TIP3    H148426   3.402   5.083   0.847 -0.9063  1.8088  0.2571
 8077TIP3    H248427   3.499   5.166   0.927  2.2188 -2.1034  0.8580
 8078TIP3   OH248428   0.949   2.389   2.501  0.5805 -0.6358  0.1910
 8078TIP3    H148429   0.969   2.314   2.557  1.6693 -2.1289 -2.0402
 8078TIP3    H248430   1.033   2.434   2.490  0.4408 -0.5068 -0.4147
 8079TIP3   OH248431   1.960   2.810   1.410  0.8564 -0.0513 -0.0072
 8079TIP3    H148432   2.023   2.865   1.458  0.6179  0.4200 -0.2218
 8079TIP3    H248433   1.951   2.853   1.325  1.1457 -0.7864 -0.4179
 8080TIP3   OH248434   4.618   5.403   1.418  0.2581 -0.1557  0.4586
 8080TIP3    H148435   4.653   5.396   1.329  0.1453  1.6940  0.2223
 8080TIP3    H248436   4.523   5.407   1.406  0.1259 -1.5623  0.8239
 8081TIP3   OH248437   6.413   5.996   2.930  0.0432 -0.4810  0.2639
 8081TIP3    H148438   6.372   6.001   2.844 -3.4167 -1.3404  1.6734
 8081TIP3    H248439   6.407   6.086   2.965 -0.6649 -0.6020  0.4597
 8082TIP3   OH248440   1.770   6.990   1.112 -0.4876 -0.0275 -0.2601
 8082TIP3    H148441   1.820   6.925   1.162  1.5093  0.7568 -1.1498
 8082TIP3    H248442   1.689   7.001   1.162 -0.6714 -2.7695  0.2132
 8083TIP3   OH248443   1.626   1.028   2.223 -0.1464 -0.5332 -0.2352
 8083TIP3    H148444   1.592   0.990   2.142  0.5356 -1.2487 -0.1990
 8083TIP3    H248445   1.655   0.952   2.275  0.8804  0.0050  0.0027
 8084TIP3   OH248446   2.898   4.502   2.783  0.0479 -0.0956 -0.3063
 8084TIP3    H148447   2.840   4.427   2.771 -0.2505  0.3537 -1.9138
 8084TIP3    H248448   2.900   4.516   2.878 -0.8216 -1.3944 -0.0695
 8085TIP3   OH248449   0.560   4.080   0.473  0.2328 -0.5334 -0.7452
 8085TIP3    H148450   0.511   4.032   0.406 -2.0408 -0.0208  0.4538
 8085TIP3    H248451   0.546   4.029   0.553 -0.0944  0.7790  0.0463
 8086TIP3   OH248452   6.968   3.639   0.433 -0.3912 -0.6477 -0.6301
 8086TIP3    H148453   6.893   3.618   0.489 -1.9837  2.1813 -1.4939
 8086TIP3    H248454   7.003   3.720   0.470  1.8071 -1.4638 -0.7587
 8087TIP3   OH248455   5.223   6.575   0.523 -0.2918  0.1016 -0.2311
 8087TIP3    H148456   5.248   6.532   0.605  0.2913  0.7085 -0.0849
 8087TIP3    H248457   5.166   6.511   0.480  1.3930 -1.2785 -0.5259
 8088TIP3   OH248458   5.691   5.566   1.603 -0.4196  0.3403  0.0942
 8088TIP3    H148459   5.656   5.502   1.541 -3.5074  0.6860  1.2978
 8088TIP3    H248460   5.737   5.630   1.549 -0.8350 -0.6958 -1.5472
 8089TIP3   OH248461   4.507   7.144   2.991 -0.8814  0.2459  0.0881
 8089TIP3    H148462   4.534   7.081   2.924 -0.7780  0.7538 -0.3482
 8089TIP3    H248463   4.443   7.096   3.044 -0.8319 -0.2156 -0.2672
 8090TIP3   OH248464   1.388   5.483   0.995 -0.2025  0.4101 -0.1082
 8090TIP3    H148465   1.436   5.555   0.955 -0.2371  0.1348 -0.6586
 8090TIP3    H248466   1.341   5.442   0.923 -2.5466  1.6162  0.6549
 8091TIP3   OH248467   1.176   6.147   0.594  0.3676  0.2457  0.3740
 8091TIP3    H148468   1.264   6.109   0.596  1.4287  2.5318 -0.0113
 8091TIP3    H248469   1.126   6.094   0.657  2.2578 -0.5096  1.3353
 8092TIP3   OH248470   3.625   3.625   1.214  0.3842 -0.0096  0.3706
 8092TIP3    H148471   3.596   3.646   1.125  2.1939  0.0240 -0.2710
 8092TIP3    H248472   3.545   3.604   1.261 -1.0984  3.3389 -0.2942
 8093TIP3   OH248473   5.202   5.697   2.310 -0.0819 -0.5075  0.3548
 8093TIP3    H148474   5.208   5.759   2.382 -0.2737 -1.3074  1.0845
 8093TIP3    H248475   5.268   5.725   2.248  0.8980 -0.4698  1.3825
 8094TIP3   OH248476   1.195   3.021   0.758 -0.1836  0.6345 -0.0200
 8094TIP3    H148477   1.122   2.972   0.720 -0.0091 -1.4751  2.0978
 8094TIP3    H248478   1.154   3.088   0.812 -0.6119 -0.4526  1.0527
 8095TIP3   OH248479   1.265   0.607   2.403  0.2151  0.1835 -0.3316
 8095TIP3    H148480   1.206   0.681   2.420  0.0399 -0.5071  2.3517
 8095TIP3    H248481   1.206   0.535   2.378  0.0939  0.0335  0.3845
 8096TIP3   OH248482   4.858   0.822   1.206  0.8248 -0.3735 -0.4491
 8096TIP3    H148483   4.853   0.916   1.225  0.4405 -0.1170 -1.7498
 8096TIP3    H248484   4.950   0.799   1.223  1.2529  0.5408 -1.4326
 8097TIP3   OH248485   6.689   5.850   0.824  0.2107 -0.8470 -0.0188
 8097TIP3    H148486   6.619   5.790   0.850 -0.7010 -0.6919 -1.9444
 8097TIP3    H248487   6.745   5.798   0.767  0.9508 -0.5921  0.4532
 8098TIP3   OH248488   7.183   7.016   0.568  0.6124 -0.3156  0.1671
 8098TIP3    H148489   7.175   7.105   0.532 -3.7693  0.1521  1.6940
 8098TIP3    H248490   7.202   7.030   0.661  0.0308 -0.9912  0.3898
 8099TIP3   OH248491   0.779   6.340   0.783  0.4588 -0.0111  0.0383
 8099TIP3    H148492   0.743   6.255   0.757  0.9675 -0.0806 -0.4398
 8099TIP3    H248493   0.712   6.403   0.757 -0.1465 -0.2980  0.8387
 8100TIP3   OH248494   5.691   2.216   1.613  0.6241 -0.1243 -0.1055
 8100TIP3    H148495   5.732   2.290   1.659  0.8146  0.6669 -1.4762
 8100TIP3    H248496   5.711   2.232   1.521 -0.4959 -1.1776 -0.5541
 8101TIP3   OH248497   1.971   3.646   1.023 -0.0433 -0.2566  0.2844
 8101TIP3    H148498   2.014   3.720   0.979 -0.3644 -0.3751 -0.2432
 8101TIP3    H248499   1.918   3.606   0.954  0.1809 -1.0213  0.5561
 8102TIP3   OH248500   2.804   1.040   3.034 -0.6758 -0.3652 -0.1549
 8102TIP3    H148501   2.771   1.126   3.060 -2.1885 -0.7331 -0.7665
 8102TIP3    H248502   2.899   1.049   3.039 -0.8054  1.2622  0.0262
 8103TIP3   OH248503   4.469   0.642   1.512 -0.0808 -0.0229  0.0746
 8103TIP3    H148504   4.560   0.635   1.484 -0.0641 -1.8596  0.5159
 8103TIP3    H248505   4.465   0.726   1.558  1.2618  0.3007 -0.3474
 8104TIP3   OH248506   2.692   2.583   1.811  0.4217 -0.0229  0.2288
 8104TIP3    H148507   2.602   2.571   1.840 -0.3705 -0.1266 -2.0607
 8104TIP3    H248508   2.745   2.530   1.871 -0.9790  0.2921  1.8047
 8105TIP3   OH248509   4.545   2.761   2.635  0.1454 -0.0365  0.6218
 8105TIP3    H148510   4.591   2.843   2.619 -1.7280  0.9054 -0.2017
 8105TIP3    H248511   4.551   2.749   2.730  2.6747 -0.3689  0.4857
 8106TIP3   OH248512   0.928   2.438   3.073  0.7144  0.3337  0.6617
 8106TIP3    H148513   0.891   2.526   3.086 -0.7249 -0.2357  0.6580
 8106TIP3    H248514   1.002   2.434   3.134  1.1100  1.7126  0.3055
 8107TIP3   OH248515   0.267   4.885   1.647 -0.2894  0.0641 -0.1143
 8107TIP3    H148516   0.314   4.805   1.622  0.7560  0.2558  1.1498
 8107TIP3    H248517   0.206   4.856   1.715  1.9291  0.7072  2.2952
 8108TIP3   OH248518   1.391   6.196   1.587 -0.1766  0.7306  0.2686
 8108TIP3    H148519   1.411   6.118   1.638 -0.5502  0.5515  0.1472
 8108TIP3    H248520   1.452   6.263   1.620  1.5197 -0.1316 -1.0105
 8109TIP3   OH248521   3.677   4.226   0.799 -0.2348 -0.4201  0.2149
 8109TIP3    H148522   3.677   4.146   0.853  0.3595 -0.6175 -0.0631
 8109TIP3    H248523   3.676   4.297   0.862  0.2475 -0.6519  0.4968
 8110TIP3   OH248524   7.139   4.610   0.915  0.9787 -0.3219  0.3693
 8110TIP3    H148525   7.095   4.567   0.988 -1.7443  0.8318 -0.4986
 8110TIP3    H248526   7.119   4.556   0.839 -1.7716  1.8151 -0.5810
 8111TIP3   OH248527   6.761   1.704   1.934 -0.3120  0.5552  0.0024
 8111TIP3    H148528   6.853   1.697   1.960 -0.5681  0.3558  0.8911
 8111TIP3    H248529   6.727   1.615   1.942 -0.8044  0.7840  0.5737
 8112TIP3   OH248530   4.402   5.598   1.567  0.0815 -0.0724  0.4926
 8112TIP3    H148531   4.401   5.512   1.608  0.0838 -0.2811  0.0584
 8112TIP3    H248532   4.479   5.642   1.605 -0.7916  0.3350  1.9012
 8113TIP3   OH248533   6.221   4.776   1.896 -0.5840 -0.2885 -0.1847
 8113TIP3    H148534   6.308   4.816   1.892 -1.4178  1.6381 -0.2605
 8113TIP3    H248535   6.231   4.702   1.955  0.5665  1.4395  1.9148
 8114TIP3   OH248536   4.062   2.459   1.131 -0.1202  0.2322 -0.1929
 8114TIP3    H148537   4.143   2.410   1.120 -0.1894 -0.3331  1.5756
 8114TIP3    H248538   4.087   2.550   1.113  2.0675  0.8110  4.2663
 8115TIP3   OH248539   7.524   0.516   2.565 -0.0099 -0.0164  0.7210
 8115TIP3    H148540   7.612   0.552   2.551  0.0665 -0.3853  0.2330
 8115TIP3    H248541   7.488   0.569   2.636  0.2224  0.8155  0.2360
 8116TIP3   OH248542   3.688   1.394   2.660  0.1132 -0.4501 -0.3424
 8116TIP3    H148543   3.680   1.323   2.597  1.0293 -1.1532  0.3201
 8116TIP3    H248544   3.730   1.465   2.611  0.7021 -0.9452 -0.5577
 8117TIP3   OH248545   5.646   3.334   1.757 -0.4572 -0.0382  0.3670
 8117TIP3    H148546   5.730   3.316   1.800  1.5416 -0.7553 -3.3711
 8117TIP3    H248547   5.598   3.388   1.820  2.6060  0.0603  2.8830
 8118TIP3   OH248548   2.026   7.169   1.495 -0.3542 -0.1145  0.0231
 8118TIP3    H148549   2.077   7.119   1.558 -1.2523  0.2474  1.0718
 8118TIP3    H248550   1.948   7.116   1.478 -0.6217  0.2648  0.0346
 8119TIP3   OH248551   5.181   1.446   2.755  0.4403 -0.0284  0.6585
 8119TIP3    H148552   5.228   1.454   2.673 -0.5824 -1.0573 -0.0676
 8119TIP3    H248553   5.236   1.390   2.810  1.5281  1.3568  1.0168
 8120TIP3   OH248554   1.741   1.370   1.682  0.2215 -0.2219 -0.4927
 8120TIP3    H148555   1.667   1.431   1.685 -0.8453 -1.2072 -3.4032
 8120TIP3    H248556   1.707   1.288   1.717  0.8867  0.0852  0.9602
 8121TIP3   OH248557   5.494   0.345   3.328 -0.6839 -0.0462 -0.3199
 8121TIP3    H148558   5.545   0.372   3.405  0.9571 -0.5795 -1.1845
 8121TIP3    H248559   5.508   0.251   3.322 -1.7904 -0.2058 -0.5941
 8122TIP3   OH248560   1.469   7.094   8.777  0.2769 -0.5421  0.1959
 8122TIP3    H148561   1.432   7.029   8.837 -0.3407 -0.7359 -0.3815
 8122TIP3    H248562   1.560   7.067   8.766  0.0016 -1.3802 -0.1119
 8123TIP3   OH248563   2.619   2.951   1.470 -0.5483 -0.5527 -0.4208
 8123TIP3    H148564   2.707   2.926   1.441 -0.6699 -0.4693 -0.8743
 8123TIP3    H248565   2.588   3.012   1.403 -0.8094 -0.2965 -0.0702
 8124TIP3   OH248566   6.276   7.035   2.498 -0.2675 -0.8837 -0.1244
 8124TIP3    H148567   6.364   7.067   2.517 -0.7673  0.3201  0.2791
 8124TIP3    H248568   6.236   7.024   2.584 -0.3019 -2.1059 -0.2770
 8125TIP3   OH248569   6.423   0.653   0.870 -0.4445  0.2894  0.2929
 8125TIP3    H148570   6.332   0.647   0.841 -0.4530 -0.2339  0.4001
 8125TIP3    H248571   6.448   0.744   0.855 -0.7240  0.2434 -0.5033
 8126TIP3   OH248572   3.074   3.689   1.403 -0.0989  0.1270 -0.1069
 8126TIP3    H148573   3.129   3.744   1.347  1.1223 -0.8137  0.1234
 8126TIP3    H248574   3.031   3.629   1.342 -0.8220  0.8018 -0.2776
 8127TIP3   OH248575   3.007   1.014   1.305 -0.4133 -0.0626  0.2306
 8127TIP3    H148576   2.976   1.063   1.229  1.0117 -0.4588 -0.6462
 8127TIP3    H248577   2.935   1.019   1.368 -0.9036  1.8449 -0.4144
 8128TIP3   OH248578   3.291   5.380   2.702 -0.6613  0.4385 -0.1849
 8128TIP3    H148579   3.285   5.288   2.726  1.2081  0.1277 -0.7658
 8128TIP3    H248580   3.362   5.414   2.756  0.2556  0.9396 -1.6452
 8129TIP3   OH248581   2.835   7.257   3.031  0.0027  0.1900  0.5240
 8129TIP3    H148582   2.888   7.237   2.954 -2.0434 -2.7262 -0.2837
 8129TIP3    H248583   2.798   7.344   3.013 -1.3080 -0.8637 -2.3951
 8130TIP3   OH248584   5.916   5.974   0.413  0.0834  0.3271  0.1168
 8130TIP3    H148585   5.891   6.053   0.365  0.3465  0.4191  0.1313
 8130TIP3    H248586   6.009   5.986   0.433 -0.0063  0.2644  0.5939
 8131TIP3   OH248587   0.461   5.408   2.924 -0.2184  0.2298  0.3937
 8131TIP3    H148588   0.531   5.371   2.978  0.3453 -1.6541 -1.4855
 8131TIP3    H248589   0.401   5.335   2.910 -0.8065  0.9159 -0.7913
 8132TIP3   OH248590   2.399   6.428   1.666 -0.6583  0.6033 -0.2209
 8132TIP3    H148591   2.432   6.514   1.690 -0.2021  0.1178  1.0155
 8132TIP3    H248592   2.312   6.444   1.629 -1.2423  1.4788  1.4253
 8133TIP3   OH248593   6.461   5.685   0.868 -0.1649  0.2927 -0.1382
 8133TIP3    H148594   6.409   5.631   0.927  0.7605 -0.2352  0.2059
 8133TIP3    H248595   6.476   5.630   0.791  0.0442  0.3778 -0.1590
 8134TIP3   OH248596   2.355   6.189   8.914  0.5949  0.2428  0.6096
 8134TIP3    H148597   2.265   6.156   8.916  0.2497  1.0309 -0.6457
 8134TIP3    H248598   2.408   6.118   8.951 -0.4859 -0.3996  0.9723
 8135TIP3   OH248599   4.721   2.984   2.659  0.0486 -0.1128  0.1218
 8135TIP3    H148600   4.797   3.039   2.638 -1.8472  2.2659 -1.1230
 8135TIP3    H248601   4.685   3.022   2.739 -1.5629  0.8798 -1.0112
 8136TIP3   OH248602   2.531   1.831   1.700 -0.0878  0.5748 -0.1492
 8136TIP3    H148603   2.601   1.808   1.638 -1.1504  0.1489 -1.2258
 8136TIP3    H248604   2.535   1.926   1.706  0.7662  0.5386  0.0273
 8137TIP3   OH248605   5.955   2.763   0.705  0.0185  0.1574  0.1854
 8137TIP3    H148606   5.966   2.668   0.711  1.6369  0.3430  0.5820
 8137TIP3    H248607   5.913   2.788   0.787 -1.2666 -0.2965 -0.3057
 8138TIP3   OH248608   0.627   1.121   1.902  0.0649  0.0844  0.0322
 8138TIP3    H148609   0.695   1.060   1.929 -0.3188 -1.3577 -1.9623
 8138TIP3    H248610   0.667   1.174   1.834 -0.4426  0.0219 -0.3274
 8139TIP3   OH248611   7.261   2.588   0.973 -0.1292  0.4085 -0.0896
 8139TIP3    H148612   7.199   2.554   0.908  0.2136 -0.4830  0.0375
 8139TIP3    H248613   7.245   2.683   0.974  1.1323  0.7709 -2.8688
 8140TIP3   OH248614   0.153   2.640   3.072 -0.1681 -0.1091 -0.7934
 8140TIP3    H148615   0.218   2.704   3.099 -1.2444  1.0011 -0.7175
 8140TIP3    H248616   0.079   2.655   3.132 -0.2781 -1.7278 -0.4912
 8141TIP3   OH248617   4.653   1.150   0.789 -0.0268 -0.2584  0.2878
 8141TIP3    H148618   4.653   1.173   0.882 -1.0386  0.7301  0.0602
 8141TIP3    H248619   4.573   1.189   0.754 -0.6634 -2.2121 -0.6284
 8142TIP3   OH248620   6.902   1.764   1.259 -0.1972 -0.5505 -0.1046
 8142TIP3    H148621   6.920   1.809   1.342  0.8662  0.8352 -1.0391
 8142TIP3    H248622   6.899   1.834   1.194  0.3928 -1.7367 -1.4547
 8143TIP3   OH248623   1.782   3.727   1.211 -0.3033  0.3455  0.9819
 8143TIP3    H148624   1.734   3.787   1.153 -1.6551  0.7862  2.4873
 8143TIP3    H248625   1.860   3.703   1.161 -1.8594 -0.0692 -1.4095
 8144TIP3   OH248626   3.482   6.910   0.928 -0.6361 -0.4260  0.1550
 8144TIP3    H148627   3.485   6.888   0.834 -0.3161  0.6088 -0.0952
 8144TIP3    H248628   3.520   6.834   0.971 -0.4743 -0.7837 -0.5923
 8145TIP3   OH248629   3.535   5.616   1.613  0.5151  0.0555  0.0820
 8145TIP3    H148630   3.462   5.628   1.551 -0.1815 -1.1763  0.6315
 8145TIP3    H248631   3.610   5.657   1.569  0.1059 -0.9668 -1.6819
 8146TIP3   OH248632   3.534   1.692   1.965  0.5053 -0.0118 -0.3941
 8146TIP3    H148633   3.480   1.620   1.998 -0.5875  1.0743  0.2197
 8146TIP3    H248634   3.613   1.648   1.933 -0.1488 -1.4968 -0.0856
 8147TIP3   OH248635   1.767   2.959   0.927  0.3421  0.3085  0.4877
 8147TIP3    H148636   1.809   3.044   0.914  1.6618 -0.2817  0.7761
 8147TIP3    H248637   1.805   2.903   0.859  1.3145 -0.6775  1.7909
 8148TIP3   OH248638   0.731   1.627   1.595 -0.1641  0.2731 -0.2935
 8148TIP3    H148639   0.811   1.584   1.565 -0.2154  1.1894 -1.8431
 8148TIP3    H248640   0.671   1.619   1.521 -2.0116 -1.5317  1.2978
 8149TIP3   OH248641   3.834   5.146   3.087  1.0876 -0.1749  0.0585
 8149TIP3    H148642   3.801   5.191   3.009  1.3076 -2.8047 -1.6695
 8149TIP3    H248643   3.929   5.164   3.085  1.0618 -0.0468 -0.1507
 8150TIP3   OH248644   5.131   1.838   3.216 -0.4610 -0.6340  0.2967
 8150TIP3    H148645   5.192   1.906   3.243 -0.0699 -0.8628 -0.0145
 8150TIP3    H248646   5.178   1.787   3.150 -0.5625 -1.5166  0.8821
 8151TIP3   OH248647   0.551   2.865   0.609 -0.2395  0.4006  0.5260
 8151TIP3    H148648   0.530   2.888   0.700  1.5980 -0.0120  1.1141
 8151TIP3    H248649   0.520   2.775   0.600 -2.5314  1.1976 -0.0407
 8152TIP3   OH248650   1.014   5.751   1.690  0.8754  1.1058 -0.7891
 8152TIP3    H148651   1.052   5.735   1.777  1.7994  2.2158 -0.9699
 8152TIP3    H248652   0.920   5.754   1.706  0.9524  0.1341 -0.0264
 8153TIP3   OH248653   5.458   1.006   0.644  0.2962  0.5775  0.4191
 8153TIP3    H148654   5.405   0.949   0.699  0.4372  0.2950  0.2647
 8153TIP3    H248655   5.533   0.952   0.619  0.8492  1.0919  0.9453
 8154TIP3   OH248656   3.509   2.232   2.825  0.3130  0.9918  0.1114
 8154TIP3    H148657   3.598   2.266   2.813  0.2291  1.0363 -0.4162
 8154TIP3    H248658   3.521   2.152   2.876  0.6485  1.0377  0.1099
 8155TIP3   OH248659   5.863   4.701   0.469  0.3259 -0.4390 -0.2101
 8155TIP3    H148660   5.791   4.731   0.524  0.0046  0.5225 -1.1137
 8155TIP3    H248661   5.911   4.781   0.446  1.3405 -0.9942 -0.1027
 8156TIP3   OH248662   5.765   6.703   3.213 -0.1777 -0.0797  0.4326
 8156TIP3    H148663   5.847   6.748   3.232  0.1291 -0.0738 -0.8221
 8156TIP3    H248664   5.787   6.610   3.221 -0.7702 -0.0994  2.8556
 8157TIP3   OH248665   7.524   7.381   0.986  0.6659 -0.5832  0.0943
 8157TIP3    H148666   7.483   7.300   0.956 -0.6949 -0.2466  0.9507
 8157TIP3    H248667   7.451   7.442   0.998  1.6465  0.7315 -0.3929
 8158TIP3   OH248668   4.502   5.635   0.502  0.0704  0.1543 -0.1317
 8158TIP3    H148669   4.569   5.678   0.448 -1.5530  1.5911 -1.0941
 8158TIP3    H248670   4.526   5.657   0.592  0.5874  1.1319 -0.4929
 8159TIP3   OH248671   7.189   3.565   1.107 -0.3252 -0.0323  0.1883
 8159TIP3    H148672   7.212   3.474   1.084  3.1414  0.6396  0.3526
 8159TIP3    H248673   7.190   3.612   1.024 -2.3010 -0.1254  0.0806
 8160TIP3   OH248674   0.625   1.656   1.345 -0.1895 -0.3442 -0.7877
 8160TIP3    H148675   0.534   1.687   1.355  0.0519  0.6961 -1.5802
 8160TIP3    H248676   0.678   1.736   1.350  0.8087 -1.0576  0.8325
 8161TIP3   OH248677   2.799   6.570   2.650 -0.3724 -0.2417 -0.3040
 8161TIP3    H148678   2.877   6.517   2.659  1.4795  1.8617 -2.4979
 8161TIP3    H248679   2.802   6.632   2.723 -0.8747 -1.1157  0.4823
 8162TIP3   OH248680   7.275   6.521   2.029 -0.1497  0.6993  0.4417
 8162TIP3    H148681   7.218   6.484   1.960  0.7618  0.6308 -0.2943
 8162TIP3    H248682   7.321   6.445   2.064 -1.2774  0.6037  1.7927
 8163TIP3   OH248683   3.724   4.106   1.549  0.4938  0.0939  0.0075
 8163TIP3    H148684   3.751   4.192   1.517 -0.2932  0.7011  0.9006
 8163TIP3    H248685   3.802   4.052   1.542  0.5085  0.3259 -2.3849
 8164TIP3   OH248686   4.767   6.757   2.655  0.4539  0.2140  0.5575
 8164TIP3    H148687   4.788   6.675   2.611 -3.0817 -0.6384  0.2142
 8164TIP3    H248688   4.769   6.737   2.748 -0.6601 -0.3722  0.4660
 8165TIP3   OH248689   3.048   4.615   2.595 -0.5588  0.1928  0.5180
 8165TIP3    H148690   2.993   4.563   2.654 -0.8403  0.0521  0.1353
 8165TIP3    H248691   2.993   4.630   2.518  0.4677 -1.3277 -0.5691
 8166TIP3   OH248692   3.298   6.831   1.922  0.7859  0.4577  0.3302
 8166TIP3    H148693   3.241   6.757   1.943  0.3087  0.4813 -0.8174
 8166TIP3    H248694   3.368   6.826   1.988 -0.6838  0.6278  1.9757
 8167TIP3   OH248695   1.825   2.336   1.840 -0.0071 -0.1023 -0.2357
 8167TIP3    H148696   1.764   2.395   1.886 -1.5596  0.9270 -3.3052
 8167TIP3    H248697   1.908   2.383   1.840 -0.2450  0.3506  0.5358
 8168TIP3   OH248698   6.127   6.488   3.170 -0.0837  0.0081 -0.2038
 8168TIP3    H148699   6.128   6.472   3.076 -0.1451 -0.9831 -0.0467
 8168TIP3    H248700   6.034   6.484   3.194  0.1050 -2.9088  0.3790
 8169TIP3   OH248701   1.238   0.459   0.814  0.0090 -0.5294  0.1067
 8169TIP3    H148702   1.190   0.517   0.873  1.2354  0.7229 -0.0947
 8169TIP3    H248703   1.251   0.510   0.735  0.0019 -1.5474 -0.5737
 8170TIP3   OH248704   5.689   1.101   0.524  0.6615 -0.0438  0.4310
 8170TIP3    H148705   5.741   1.136   0.595 -0.6305 -1.6973  2.3016
 8170TIP3    H248706   5.598   1.115   0.551  0.1278 -0.5051 -1.0046
 8171TIP3   OH248707   4.200   6.490   1.874  0.2189 -0.0730 -0.7752
 8171TIP3    H148708   4.283   6.469   1.918  0.6369  1.9732 -0.4941
 8171TIP3    H248709   4.226   6.514   1.785 -0.0382  0.6928 -0.6508
 8172TIP3   OH248710   6.768   0.429   0.927  0.2510  0.3450 -0.2725
 8172TIP3    H148711   6.694   0.402   0.874 -0.3381 -1.0807  1.1640
 8172TIP3    H248712   6.809   0.500   0.879 -1.4475  0.4748 -1.5889
 8173TIP3   OH248713   3.965   4.717   1.560  0.3011  0.0193 -0.0895
 8173TIP3    H148714   3.986   4.807   1.538 -0.8944  0.4939  0.6271
 8173TIP3    H248715   4.044   4.684   1.603  0.3267  1.1263  0.7595
 8174TIP3   OH248716   6.378   0.180   0.868 -0.0444 -0.3173 -0.0746
 8174TIP3    H148717   6.400   0.087   0.871 -1.4765 -0.7020 -0.5012
 8174TIP3    H248718   6.460   0.224   0.848  1.5083 -1.0974  3.6960
 8175TIP3   OH248719   4.044   2.777   3.037 -0.1777  0.0734  0.1695
 8175TIP3    H148720   3.969   2.833   3.020 -0.6858 -0.0588  1.7792
 8175TIP3    H248721   4.019   2.726   3.114  0.8576 -1.2888 -0.3478
 8176TIP3   OH248722   7.525   2.106   1.774 -0.1906  0.1996 -0.6300
 8176TIP3    H148723   7.489   2.025   1.740  0.0903 -0.5658  0.8263
 8176TIP3    H248724   7.599   2.126   1.717 -0.5547 -0.3112 -1.2788
 8177TIP3   OH248725   1.992   6.158   0.876  0.0333 -0.0877 -0.5365
 8177TIP3    H148726   2.083   6.176   0.856  0.1434 -0.5766 -0.4926
 8177TIP3    H248727   1.983   6.063   0.862 -0.5580  0.0214 -0.9230
 8178TIP3   OH248728   6.453   4.060   1.351 -0.1800 -0.0298  0.4560
 8178TIP3    H148729   6.498   4.113   1.416  1.5512  0.7597 -1.2748
 8178TIP3    H248730   6.484   3.971   1.366  1.5607  0.4105 -0.3190
 8179TIP3   OH248731   3.970   4.132   2.799 -0.0326 -0.0924  0.3307
 8179TIP3    H148732   3.880   4.164   2.788 -0.1764 -0.6105 -0.0193
 8179TIP3    H248733   3.960   4.054   2.854 -0.0161 -1.3016 -1.3309
 8180TIP3   OH248734   6.661   2.340   0.586  0.2731 -0.2426 -0.2263
 8180TIP3    H148735   6.585   2.396   0.572 -0.4689 -1.4177 -1.1938
 8180TIP3    H248736   6.638   2.258   0.542  1.4871 -1.1571  0.7576
 8181TIP3   OH248737   1.466   4.193   2.061 -0.3976  0.1305 -0.0897
 8181TIP3    H148738   1.423   4.135   1.999  1.7893 -0.5305 -1.0948
 8181TIP3    H248739   1.539   4.231   2.012 -0.1406  1.6345  1.3518
 8182TIP3   OH248740   5.310   1.301   0.785  0.0691  0.3787  0.1119
 8182TIP3    H148741   5.291   1.265   0.698 -0.6015 -1.1074  0.8456
 8182TIP3    H248742   5.225   1.316   0.824  0.3712  0.6255  0.6835
 8183TIP3   OH248743   4.283   0.573   3.044  0.5511 -0.1620 -0.2426
 8183TIP3    H148744   4.200   0.536   3.074  0.5055 -0.2440 -0.4631
 8183TIP3    H248745   4.348   0.541   3.107  0.5642 -0.8997 -0.6151
 8184TIP3   OH248746   5.636   2.241   0.952 -0.0833 -0.8222  0.0173
 8184TIP3    H148747   5.699   2.275   1.016 -0.9700 -0.2246  0.6139
 8184TIP3    H248748   5.646   2.146   0.957  0.3969 -0.7560  0.4910
 8185TIP3   OH248749   6.971   2.563   2.222  0.7374  0.3724 -0.2342
 8185TIP3    H148750   7.024   2.640   2.203  2.0483 -0.8353 -1.8420
 8185TIP3    H248751   6.888   2.598   2.255  2.1437  2.3588  1.4222
 8186TIP3   OH248752   3.465   5.720   0.596 -0.4031 -0.3525 -0.1748
 8186TIP3    H148753   3.418   5.687   0.673  0.2642 -2.0032 -0.4265
 8186TIP3    H248754   3.555   5.734   0.628 -0.0611 -1.2805 -0.6777
 8187TIP3   OH248755   5.187   3.630   3.369  0.3036  0.3159  0.0038
 8187TIP3    H148756   5.102   3.647   3.410  0.5970  1.2341  0.2451
 8187TIP3    H248757   5.248   3.618   3.442  0.3342 -0.6559 -0.1673
 8188TIP3   OH248758   0.807   5.279   1.145  0.5036  0.1870 -0.8385
 8188TIP3    H148759   0.850   5.238   1.070 -0.2664 -0.8872 -0.7219
 8188TIP3    H248760   0.752   5.209   1.182  0.0941  0.9900  0.1129
 8189TIP3   OH248761   3.129   6.887   1.140  0.4206  0.2714 -0.1851
 8189TIP3    H148762   3.184   6.809   1.134  1.9345  1.2282  0.7284
 8189TIP3    H248763   3.143   6.920   1.229 -1.5948  0.5949  0.0552
 8190TIP3   OH248764   4.840   0.912   0.883  0.1774 -0.0837  0.2277
 8190TIP3    H148765   4.790   0.834   0.905  1.5178 -1.1828 -0.4782
 8190TIP3    H248766   4.778   0.969   0.838 -0.6852 -0.9790  0.2713
 8191TIP3   OH248767   7.161   6.549   0.983 -0.1208 -0.0207  0.3225
 8191TIP3    H148768   7.184   6.542   1.076 -0.2956  0.9605  0.4539
 8191TIP3    H248769   7.197   6.634   0.956 -2.0426  0.7746  0.0847
 8192TIP3   OH248770   4.449   7.541   2.795  0.2464 -0.1166 -0.1316
 8192TIP3    H148771   4.476   7.473   2.857  1.2136 -1.5176 -1.9875
 8192TIP3    H248772   4.354   7.548   2.807  0.2700 -1.0740  0.7691
 8193TIP3   OH248773   1.560   0.669   1.652 -0.1142  0.5180 -0.0399
 8193TIP3    H148774   1.623   0.625   1.596 -0.5333  0.8201 -0.7643
 8193TIP3    H248775   1.612   0.705   1.724  0.3764 -0.1866 -0.0293
 8194TIP3   OH248776   5.827   0.442   2.155 -0.0877  0.4132  0.5057
 8194TIP3    H148777   5.764   0.370   2.151  0.1424  0.2522 -0.6347
 8194TIP3    H248778   5.820   0.485   2.070  1.6943  0.0627  0.1396
 8195TIP3   OH248779   1.672   0.442   2.365 -0.4143  0.4409 -0.2358
 8195TIP3    H148780   1.588   0.450   2.410 -0.5600 -2.1907  0.1074
 8195TIP3    H248781   1.657   0.478   2.278 -2.9502 -2.8287 -1.3435
 8196TIP3   OH248782   7.522   3.277   1.606 -0.0201  0.1465  0.9814
 8196TIP3    H148783   7.602   3.232   1.632  0.6718  1.6203  1.5356
 8196TIP3    H248784   7.524   3.359   1.655 -1.4713  0.5613  0.3896
 8197TIP3   OH248785   3.621   5.285   0.928 -0.7873 -0.1281 -0.2627
 8197TIP3    H148786   3.615   5.289   1.023 -0.5581 -2.0857 -0.1154
 8197TIP3    H248787   3.712   5.258   0.911 -0.6182  0.8916 -1.0857
 8198TIP3   OH248788   5.376   5.591   2.583  0.4673  0.6622  0.3254
 8198TIP3    H148789   5.302   5.653   2.580 -0.1848 -0.1052  0.1021
 8198TIP3    H248790   5.432   5.617   2.510  0.7614  1.6533  0.8819
 8199TIP3   OH248791   4.449   4.820   1.788 -0.1874  0.5466 -0.1152
 8199TIP3    H148792   4.395   4.843   1.713  0.5657  2.7313 -0.0682
 8199TIP3    H248793   4.525   4.877   1.781  1.7822 -1.8658  0.2573
 8200TIP3   OH248794   2.836   2.789   0.661 -0.3694  0.4147 -0.3044
 8200TIP3    H148795   2.899   2.851   0.624  0.7806 -0.8819 -0.5908
 8200TIP3    H248796   2.883   2.706   0.664 -1.6186 -0.2876  0.7999
 8201TIP3   OH248797   3.997   4.119   1.672  0.5122  0.2357  0.6799
 8201TIP3    H148798   3.973   4.034   1.636  0.3691  0.5526  0.0145
 8201TIP3    H248799   4.092   4.123   1.666  0.4021  1.0441 -1.4683
 8202TIP3   OH248800   1.315   3.661   1.164 -0.1088  0.4191 -0.2441
 8202TIP3    H148801   1.362   3.734   1.124 -0.6345  0.1838 -1.3313
 8202TIP3    H248802   1.384   3.599   1.189  0.2390  0.6068 -0.7209
 8203TIP3   OH248803   0.205   7.106   0.967 -0.4772  0.0656  0.2612
 8203TIP3    H148804   0.209   7.182   0.908  2.4006  0.0680  0.3351
 8203TIP3    H248805   0.183   7.143   1.052  1.4168  0.9575  0.4083
 8204TIP3   OH248806   5.635   1.682   0.915  0.4478 -0.3788  0.6888
 8204TIP3    H148807   5.684   1.709   0.992  0.4100 -2.1467  1.3772
 8204TIP3    H248808   5.680   1.724   0.842  1.2430  0.3142  1.5540
 8205TIP3   OH248809   0.965   4.310   0.647  0.4635  0.5543  0.4474
 8205TIP3    H148810   0.879   4.296   0.687  1.5075 -1.2616  2.2038
 8205TIP3    H248811   1.028   4.291   0.716  2.3616 -1.3492 -1.6242
 8206TIP3   OH248812   2.276   7.455   0.883 -0.7533 -0.2171 -0.2702
 8206TIP3    H148813   2.367   7.425   0.881 -0.0592  1.6131  1.3589
 8206TIP3    H248814   2.226   7.378   0.908  0.2641 -1.3770 -1.6596
 8207TIP3   OH248815   5.334   5.295   2.857  1.1653  0.5732 -0.2039
 8207TIP3    H148816   5.313   5.234   2.787 -1.2067 -0.6742  1.4384
 8207TIP3    H248817   5.346   5.240   2.934 -2.2414  2.0446  1.6259
 8208TIP3   OH248818   4.475   2.727   1.922 -0.3896 -0.0414  0.0217
 8208TIP3    H148819   4.438   2.764   1.842 -2.5522 -4.0457 -1.1398
 8208TIP3    H248820   4.566   2.708   1.900 -0.5037  0.4279 -0.9068
 8209TIP3   OH248821   1.386   6.071   1.073 -0.1936  0.0048 -0.3062
 8209TIP3    H148822   1.406   6.083   1.166 -2.1737 -1.1871  0.3192
 8209TIP3    H248823   1.321   6.138   1.053  0.8179  0.7929 -1.0889
 8210TIP3   OH248824   0.585   0.411   1.876 -0.2324  0.1608  0.0993
 8210TIP3    H148825   0.540   0.451   1.802  1.5277 -0.4359 -1.3906
 8210TIP3    H248826   0.545   0.325   1.885  0.2300 -0.1822 -0.9008
 8211TIP3   OH248827   1.533   0.089   1.560 -0.2364 -0.4380  0.0851
 8211TIP3    H148828   1.441   0.098   1.535 -0.2072  0.6520  0.3396
 8211TIP3    H248829   1.575   0.049   1.484 -0.3879  1.6916 -1.1971
 8212TIP3   OH248830   4.569   1.356   2.769 -0.2480 -0.5760 -0.2599
 8212TIP3    H148831   4.562   1.377   2.676  1.4236  1.3208 -0.0181
 8212TIP3    H248832   4.516   1.422   2.813 -0.2051 -0.8278  0.1730
 8213TIP3   OH248833   2.296   7.146   0.538 -0.2379  0.1926 -0.0439
 8213TIP3    H148834   2.244   7.088   0.483  0.1683 -0.3317  0.1220
 8213TIP3    H248835   2.235   7.180   0.603 -0.4614 -0.0819 -0.1111
 8214TIP3   OH248836   2.841   0.826   2.207 -0.4338  0.0910  0.2009
 8214TIP3    H148837   2.934   0.821   2.187 -0.5562 -0.7040 -0.2281
 8214TIP3    H248838   2.798   0.819   2.122 -0.8620  2.9287  0.0903
 8215TIP3   OH248839   7.564   0.006   2.273 -0.1642  0.0806  0.0237
 8215TIP3    H148840   7.619   0.084   2.278 -0.9453  0.7434 -1.3026
 8215TIP3    H248841   7.585  -0.033   2.187 -0.1959 -0.8569  0.4269
 8216TIP3   OH248842   4.603   6.265   0.633  0.5481  0.0803  0.5636
 8216TIP3    H148843   4.644   6.339   0.588  0.2591 -0.5592 -0.8294
 8216TIP3    H248844   4.580   6.299   0.719 -0.0498  1.7829 -0.2173
 8217TIP3   OH248845   4.580   5.350   1.989 -0.2628 -0.7105  0.1155
 8217TIP3    H148846   4.659   5.355   2.042  0.1383 -0.9186 -0.4469
 8217TIP3    H248847   4.512   5.321   2.049 -0.1129  0.3301  0.8199
 8218TIP3   OH248848   3.663   0.021   0.441 -0.6075  0.0093  0.0944
 8218TIP3    H148849   3.716  -0.058   0.440 -0.4809  0.0863  0.6164
 8218TIP3    H248850   3.714   0.086   0.392  0.0548  0.2585  1.0992
 8219TIP3   OH248851   3.804   0.471   2.192  0.1283  0.1927  0.4369
 8219TIP3    H148852   3.783   0.402   2.129 -0.4373 -0.6426  1.5062
 8219TIP3    H248853   3.862   0.428   2.256  0.3918  0.9243  0.6966
 8220TIP3   OH248854   4.336   1.829   2.900  0.0311  0.2994  0.3275
 8220TIP3    H148855   4.422   1.791   2.879 -0.2247 -1.3428  2.0001
 8220TIP3    H248856   4.277   1.754   2.903 -1.6122  1.4445 -1.2032
 8221TIP3   OH248857   7.339   3.786   2.666 -0.2844  0.1492  0.3617
 8221TIP3    H148858   7.305   3.699   2.689 -1.3056  0.7667  1.2675
 8221TIP3    H248859   7.260   3.838   2.651  0.3238  0.9412 -0.1169
 8222TIP3   OH248860   6.001   4.931   1.031  0.4442  0.2673  0.3025
 8222TIP3    H148861   5.968   5.005   0.982 -1.3010 -0.5685  0.1567
 8222TIP3    H248862   5.982   4.952   1.123  0.0785  0.0674  0.2733
 8223TIP3   OH248863   0.534   3.224   2.689 -0.4917  0.3134 -0.2827
 8223TIP3    H148864   0.545   3.300   2.746  1.2038  0.8986 -1.3113
 8223TIP3    H248865   0.482   3.257   2.615  1.2730  0.8721 -1.3359
 8224TIP3   OH248866   4.687   0.280   2.314 -0.3224 -0.0134 -0.2044
 8224TIP3    H148867   4.768   0.322   2.344 -0.0858 -1.0721  0.6907
 8224TIP3    H248868   4.618   0.322   2.366 -0.0825 -0.7374  0.7233
 8225TIP3   OH248869   1.507   6.484   1.998 -0.2766 -0.2554 -1.1831
 8225TIP3    H148870   1.542   6.395   2.002 -4.7850 -2.3153  3.4265
 8225TIP3    H248871   1.422   6.474   1.955 -1.0266  1.7516 -0.2756
 8226TIP3   OH248872   6.678   4.872   1.725  0.0840  0.0543 -0.4959
 8226TIP3    H148873   6.706   4.930   1.796 -1.0028  0.2673 -0.2331
 8226TIP3    H248874   6.589   4.847   1.747  0.1725 -0.8960 -1.1471
 8227TIP3   OH248875   1.803   6.885   2.643  0.3581 -0.6890 -0.3533
 8227TIP3    H148876   1.849   6.864   2.724  1.0734 -2.3465 -1.1499
 8227TIP3    H248877   1.716   6.914   2.672  1.4442  1.3441  1.0997
 8228TIP3   OH248878   1.513   1.513   1.710 -0.1537 -0.8593 -0.2093
 8228TIP3    H148879   1.479   1.507   1.799 -1.2362 -0.7040 -0.6004
 8228TIP3    H248880   1.554   1.599   1.706 -0.8492 -0.5147 -0.1004
 8229TIP3   OH248881   0.781   5.320   2.440 -0.3741 -0.3717  0.4455
 8229TIP3    H148882   0.756   5.376   2.366  0.9196 -1.6102 -1.0026
 8229TIP3    H248883   0.747   5.365   2.517 -0.6498  1.6299 -0.7876
 8230TIP3   OH248884   1.901   6.428   1.320 -0.0527 -0.5454  0.6052
 8230TIP3    H148885   1.831   6.494   1.324  0.5275  0.0455  1.5794
 8230TIP3    H248886   1.959   6.459   1.251 -0.1652 -0.4178  0.5677
 8231TIP3   OH248887   1.287   2.025   2.342  0.2955  0.0784  0.1028
 8231TIP3    H148888   1.250   1.940   2.365 -0.6547 -0.2207 -2.3180
 8231TIP3    H248889   1.330   2.011   2.258 -0.4894  2.1341 -0.7037
 8232TIP3   OH248890   5.300   1.956   0.834 -0.0311 -0.0609 -0.0088
 8232TIP3    H148891   5.383   1.986   0.796  0.1713 -0.1423  0.3686
 8232TIP3    H248892   5.302   1.861   0.824 -0.2833 -0.0304 -0.4050
 8233TIP3   OH248893   2.152   5.668   1.549  0.3456  0.1521  0.2071
 8233TIP3    H148894   2.057   5.675   1.564  0.5487  0.8927  1.2852
 8233TIP3    H248895   2.183   5.612   1.621  0.9540  1.3489  0.9015
 8234TIP3   OH248896   6.817   4.899   0.624 -0.3553 -0.5157  0.2645
 8234TIP3    H148897   6.826   4.807   0.599 -0.0065 -0.8209  1.4348
 8234TIP3    H248898   6.893   4.942   0.586 -0.4013 -0.7488 -0.0970
 8235TIP3   OH248899   5.022   4.968   0.815 -0.2552  0.2738  0.1661
 8235TIP3    H148900   5.030   5.053   0.859 -2.5418 -0.2625  1.7802
 8235TIP3    H248901   4.981   4.989   0.731 -1.4183  0.7601  0.8223
 8236TIP3   OH248902   3.348   1.427   1.779  0.0715  0.4968  0.4024
 8236TIP3    H148903   3.255   1.421   1.798 -0.0712 -1.5628 -0.6579
 8236TIP3    H248904   3.391   1.385   1.854  0.1074  0.8590  0.5854
 8237TIP3   OH248905   5.752   1.565   1.718 -0.1824 -0.1307  0.3134
 8237TIP3    H148906   5.783   1.487   1.763  0.7233 -0.2671 -0.5275
 8237TIP3    H248907   5.730   1.626   1.789 -0.6521 -1.0376  0.9720
 8238TIP3   OH248908   3.940   2.493   1.774 -0.1754 -0.0020 -0.1136
 8238TIP3    H148909   4.029   2.525   1.787 -0.9215  1.6590  1.2956
 8238TIP3    H248910   3.906   2.480   1.862 -1.1756 -1.1863 -0.6358
 8239TIP3   OH248911   7.419   4.669   1.112 -0.5107  0.0313 -0.0490
 8239TIP3    H148912   7.371   4.749   1.132  0.5071  0.5258  0.4910
 8239TIP3    H248913   7.363   4.599   1.145 -0.7459  0.6057  0.8085
 8240TIP3   OH248914   7.483   0.027   1.511 -0.4381  0.0730 -0.4359
 8240TIP3    H148915   7.482  -0.031   1.435 -3.1494 -0.3193 -0.1882
 8240TIP3    H248916   7.526   0.107   1.479  2.5077 -1.5992 -1.0374
 8241TIP3   OH248917   6.204   2.352   2.462 -0.0379 -0.6649 -0.5324
 8241TIP3    H148918   6.151   2.272   2.464 -2.8543  0.9275 -2.9335
 8241TIP3    H248919   6.208   2.377   2.370  2.1367  1.1394 -0.0468
 8242TIP3   OH248920   6.614   1.166   3.116  0.4977 -0.2049 -0.4627
 8242TIP3    H148921   6.537   1.217   3.088  0.0999 -1.1841 -1.2214
 8242TIP3    H248922   6.687   1.227   3.106 -0.0677  0.4847 -0.5413
 8243TIP3   OH248923   3.724   4.777   1.821  0.0464 -0.4473  0.4891
 8243TIP3    H148924   3.810   4.820   1.825 -0.8383  1.4726 -0.0306
 8243TIP3    H248925   3.743   4.690   1.785  1.7520 -0.0152  0.2234
 8244TIP3   OH248926   1.980   5.030   1.877 -0.0229 -0.5617  0.7889
 8244TIP3    H148927   2.045   4.961   1.889 -0.2594 -1.1196 -0.9970
 8244TIP3    H248928   1.947   5.018   1.789 -0.9027  1.1448  0.8406
 8245TIP3   OH248929   1.232   0.860   1.330 -0.2331 -0.5957 -0.0162
 8245TIP3    H148930   1.317   0.825   1.356  0.1629 -0.4849 -1.1230
 8245TIP3    H248931   1.223   0.838   1.237 -0.5040  1.1356 -0.4474
 8246TIP3   OH248932   4.722   1.830   1.831 -0.0155 -0.9370 -0.0031
 8246TIP3    H148933   4.679   1.759   1.880  0.0570  0.3153  2.0100
 8246TIP3    H248934   4.813   1.801   1.821  0.5036 -0.4011  2.5068
 8247TIP3   OH248935   7.554   2.454   1.376 -0.1135 -0.5721  0.4424
 8247TIP3    H148936   7.468   2.420   1.399 -0.9217  1.2125  0.2287
 8247TIP3    H248937   7.584   2.398   1.305 -1.9734 -0.0657 -0.8082
 8248TIP3   OH248938   4.280   3.540   1.541 -0.6113  0.3993  0.3487
 8248TIP3    H148939   4.336   3.465   1.517 -0.3248  1.1717 -1.6250
 8248TIP3    H248940   4.307   3.563   1.630 -0.3523 -1.5076  0.8080
 8249TIP3   OH248941   5.356   4.311   1.044  0.6312 -0.4768 -0.1642
 8249TIP3    H148942   5.382   4.301   0.952  0.9109  2.7513 -0.5550
 8249TIP3    H248943   5.434   4.284   1.094  0.9809 -0.9020 -0.9266
 8250TIP3   OH248944   6.953   6.219   1.081  0.6602  0.1312  0.2756
 8250TIP3    H148945   6.981   6.251   0.996  1.2084  0.0365  0.4167
 8250TIP3    H248946   6.930   6.127   1.066  0.5153  0.1846  0.1770
 8251TIP3   OH248947   2.927   7.421   2.238 -0.2386  0.1851  0.5320
 8251TIP3    H148948   2.866   7.481   2.197 -2.3960 -1.5043  1.0602
 8251TIP3    H248949   2.907   7.427   2.332  0.3863 -0.4292  0.7148
 8252TIP3   OH248950   4.762   7.255   1.317  0.1898  0.1746  0.0777
 8252TIP3    H148951   4.701   7.181   1.309  0.0469  0.3620 -0.7200
 8252TIP3    H248952   4.708   7.327   1.349 -0.1993  0.5373 -1.3148
 8253TIP3   OH248953   2.544   5.284   0.527  0.1351  0.0734  0.4847
 8253TIP3    H148954   2.456   5.320   0.540  0.0826  0.4654 -0.8930
 8253TIP3    H248955   2.603   5.351   0.563 -0.1316 -0.5522  2.1702
 8254TIP3   OH248956   2.285   3.056   3.312  0.2041 -0.0002  0.0936
 8254TIP3    H148957   2.340   3.110   3.255 -0.6292 -0.0004 -0.7319
 8254TIP3    H248958   2.208   3.110   3.329  0.2699 -0.1529  0.9247
 8255TIP3   OH248959   3.759   6.088   0.972 -0.0129 -0.1797 -0.3086
 8255TIP3    H148960   3.775   6.168   1.022 -1.8809  0.1717 -0.2059
 8255TIP3    H248961   3.664   6.083   0.964  0.1475 -1.2972 -2.1175
 8256TIP3   OH248962   3.095   5.479   2.972 -0.4973 -0.0777  0.0146
 8256TIP3    H148963   3.025   5.474   2.906 -1.0722  0.0452  0.6042
 8256TIP3    H248964   3.121   5.388   2.987 -0.4793 -0.1189 -0.2625
 8257TIP3   OH248965   0.226   0.713   1.760 -0.4961  0.2902  0.1027
 8257TIP3    H148966   0.186   0.763   1.689 -3.0777 -0.8701  0.5909
 8257TIP3    H248967   0.196   0.623   1.745 -0.5396 -0.1161  2.2274
 8258TIP3   OH248968   5.779   7.249   3.108 -0.2731  0.2964  0.7896
 8258TIP3    H148969   5.762   7.340   3.134  0.8302 -0.0772  3.0875
 8258TIP3    H248970   5.807   7.206   3.189  1.6480 -1.4942 -0.7158
 8259TIP3   OH248971   7.276   4.422   1.472  0.0255 -0.1334  0.5893
 8259TIP3    H148972   7.348   4.485   1.469 -0.3203  0.2635  0.6570
 8259TIP3    H248973   7.310   4.349   1.523  0.6802 -0.3197 -0.0936
 8260TIP3   OH248974   4.326   5.533   1.085  0.0174  0.0642 -1.0000
 8260TIP3    H148975   4.332   5.491   1.171  2.0172 -0.6225 -1.4166
 8260TIP3    H248976   4.328   5.627   1.104 -1.0223 -0.0435 -0.2485
 8261TIP3   OH248977   2.832   6.916   0.616 -0.1015 -0.4952  0.2708
 8261TIP3    H148978   2.910   6.970   0.605 -1.2681  1.3863  0.9167
 8261TIP3    H248979   2.786   6.954   0.690 -1.0859 -2.2899  0.6363
 8262TIP3   OH248980   4.280   3.853   1.668 -0.5735 -0.2702  0.4385
 8262TIP3    H148981   4.334   3.890   1.737 -1.0330  0.4416  0.4357
 8262TIP3    H248982   4.291   3.913   1.594 -0.0121 -1.0719 -0.1494
 8263TIP3   OH248983   5.441   2.042   2.508  0.5076  0.0487 -0.4886
 8263TIP3    H148984   5.408   1.952   2.506  2.3096 -0.6621 -0.3905
 8263TIP3    H248985   5.432   2.068   2.600  0.4565 -0.2284 -0.4129
 8264TIP3   OH248986   6.079   3.132   2.073 -0.0176  0.1096 -0.1350
 8264TIP3    H148987   6.080   3.128   2.168  0.5702 -1.0523 -0.1710
 8264TIP3    H248988   6.012   3.198   2.052 -0.5222 -0.0004  1.0655
 8265TIP3   OH248989   3.208   2.087   1.329 -0.1669 -0.0149  0.0873
 8265TIP3    H148990   3.261   2.049   1.399 -0.4570 -0.5128  0.0421
 8265TIP3    H248991   3.251   2.059   1.248  1.2803  2.1127  0.0245
 8266TIP3   OH248992   6.652   5.371   1.345  0.5846  0.5027 -0.3361
 8266TIP3    H148993   6.677   5.407   1.260  1.7616 -0.7176 -0.5442
 8266TIP3    H248994   6.660   5.276   1.334 -0.4927  0.2535  0.7693
 8267TIP3   OH248995   4.759   1.571   1.125  0.3224 -0.0816 -0.3056
 8267TIP3    H148996   4.812   1.493   1.138 -0.6893 -1.0498 -1.7087
 8267TIP3    H248997   4.765   1.618   1.208  1.1310 -1.5367  0.4972
 8268TIP3   OH248998   1.161   6.648   2.457 -0.3447  0.2059 -0.0734
 8268TIP3    H148999   1.256   6.640   2.462  0.0258  2.1934 -2.1539
 8268TIP3    H249000   1.129   6.601   2.534  2.3653  0.4755  1.3467
 8269TIP3   OH249001   5.634   3.970   0.696 -0.5025  0.1310  0.1053
 8269TIP3    H149002   5.639   4.019   0.614  1.2586 -2.2192 -1.3037
 8269TIP3    H249003   5.687   4.021   0.758 -3.7619  3.2098  0.6799
 8270TIP3   OH249004   1.737   0.174   1.032 -0.3636  0.0433 -0.3594
 8270TIP3    H149005   1.801   0.168   1.103 -1.9022  0.0029  1.0885
 8270TIP3    H249006   1.786   0.148   0.954  1.3776  0.0310  0.6743
 8271TIP3   OH249007   0.614   3.966   2.145  0.3598  0.3419  0.2862
 8271TIP3    H149008   0.650   3.914   2.073 -1.6518 -1.6328  0.5877
 8271TIP3    H249009   0.627   4.057   2.119  0.9603 -0.3136 -1.8782
 8272TIP3   OH249010   4.972   3.879   2.295 -0.0784 -0.2390 -0.8328
 8272TIP3    H149011   4.969   3.970   2.326 -1.0265 -0.4591 -0.2418
 8272TIP3    H249012   4.885   3.862   2.260 -0.3075 -1.2960  0.1944
 8273TIP3   OH249013   4.996   3.849   1.965 -0.1411  0.4231 -0.6291
 8273TIP3    H149014   4.947   3.855   2.047  0.2371 -4.4318  0.2522
 8273TIP3    H249015   4.929   3.836   1.898 -0.2856 -0.0939 -0.3852
 8274TIP3   OH249016   3.967   5.527   2.641 -0.3230  0.0000 -0.2121
 8274TIP3    H149017   4.018   5.608   2.652 -1.6527  0.7156  1.0332
 8274TIP3    H249018   3.910   5.525   2.718  0.7114 -2.9182  0.5917
 8275TIP3   OH249019   0.951   4.072   1.629 -0.0150 -0.4573 -0.2191
 8275TIP3    H149020   0.915   3.984   1.614  0.4881 -0.4574 -1.6036
 8275TIP3    H249021   0.894   4.130   1.578 -0.6229  0.1131  1.0485
 8276TIP3   OH249022   3.343   4.229   1.449 -0.1437  0.1962 -0.1559
 8276TIP3    H149023   3.248   4.241   1.449 -0.2070 -0.2589  0.1242
 8276TIP3    H249024   3.355   4.136   1.469  0.3334 -0.0166 -1.3274
 8277TIP3   OH249025   0.626   2.511   2.629  0.2586 -0.1651 -0.6206
 8277TIP3    H149026   0.664   2.492   2.715 -0.8455  1.4166  0.2950
 8277TIP3    H249027   0.627   2.607   2.624  2.5129 -0.1987 -3.4690
 8278TIP3   OH249028   5.091   6.372   0.429 -0.4879 -0.5979 -0.3778
 8278TIP3    H149029   5.153   6.343   0.362  2.1526  0.8752  1.2255
 8278TIP3    H249030   5.077   6.295   0.484  0.2451 -0.8593 -0.5496
 8279TIP3   OH249031   6.610   5.984   1.866  0.0779 -0.4902  0.0848
 8279TIP3    H149032   6.589   5.948   1.952 -1.4565 -0.3814 -0.2126
 8279TIP3    H249033   6.567   6.070   1.864  0.2942 -0.3874 -0.6911
 8280TIP3   OH249034   5.496   6.640   3.307 -0.2835  0.3621 -0.1494
 8280TIP3    H149035   5.589   6.642   3.286 -0.2668 -1.0165 -0.3042
 8280TIP3    H249036   5.483   6.713   3.367  1.0801  0.0111  0.6044
 8281TIP3   OH249037   4.722   2.575   2.519 -0.1264  0.2615 -0.4131
 8281TIP3    H149038   4.656   2.640   2.543 -0.9305 -0.7910  0.3251
 8281TIP3    H249039   4.671   2.500   2.488  0.7630 -0.2236 -0.7169
 8282TIP3   OH249040   6.199   0.411   2.751 -0.5117  0.2919  0.8354
 8282TIP3    H149041   6.142   0.341   2.782  0.0300 -0.0505  1.0647
 8282TIP3    H249042   6.213   0.391   2.659  0.0404 -0.1838  1.0162
 8283TIP3   OH249043   1.295   3.029   1.150  0.0654 -0.0509  0.5436
 8283TIP3    H149044   1.311   2.966   1.079 -2.1377  0.6735 -0.7051
 8283TIP3    H249045   1.286   3.113   1.105 -0.2082  0.6238  1.8261
 8284TIP3   OH249046   6.234   5.583   0.494 -0.3957 -0.7807  0.0214
 8284TIP3    H149047   6.191   5.557   0.412  0.6166 -0.7961 -0.5251
 8284TIP3    H249048   6.219   5.509   0.553  0.3698 -1.5754 -0.7367
 8285TIP3   OH249049   4.540   0.371   1.789  0.3949  0.0810  0.5574
 8285TIP3    H149050   4.617   0.427   1.792 -0.7251  1.6854  0.8916
 8285TIP3    H249051   4.477   0.421   1.737 -0.2830 -1.3835 -0.0812
 8286TIP3   OH249052   4.502   6.049   2.125 -0.2217  0.0304 -0.3502
 8286TIP3    H149053   4.518   6.069   2.217 -0.4561  0.5091 -0.4133
 8286TIP3    H249054   4.566   5.981   2.104  0.0712  0.1752  0.0684
 8287TIP3   OH249055   4.094   7.132   1.399 -0.5636 -0.2109  0.3537
 8287TIP3    H149056   4.165   7.100   1.454 -1.4131  1.2867  2.4368
 8287TIP3    H249057   4.021   7.071   1.415 -0.1625 -1.0765 -0.9070
 8288TIP3   OH249058   0.017   1.591   2.189  0.8122  0.3909  0.1331
 8288TIP3    H149059   0.026   1.666   2.131 -0.5501 -0.5890 -1.4155
 8288TIP3    H249060  -0.069   1.601   2.229 -0.2179 -1.2042 -1.4955
 8289TIP3   OH249061   2.067   3.534   2.873 -0.0735  0.0179  0.0321
 8289TIP3    H149062   2.069   3.479   2.952 -0.0027 -0.9215 -0.6076
 8289TIP3    H249063   2.026   3.615   2.902  0.6656 -0.0064  1.2223
 8290TIP3   OH249064   3.369   0.619   2.009  0.5036 -0.0365 -0.2713
 8290TIP3    H149065   3.296   0.670   2.043  0.9741  0.2146  0.3897
 8290TIP3    H249066   3.357   0.619   1.914  0.4114  1.1679 -0.2655
 8291TIP3   OH249067   1.927   2.694   1.872  0.3707  0.1980  0.6284
 8291TIP3    H149068   1.924   2.789   1.862 -1.4035 -0.0104 -1.6757
 8291TIP3    H249069   1.929   2.660   1.782  0.5012 -1.9603  1.3757
 8292TIP3   OH249070   2.553   2.842   1.717  0.1337  0.5420 -0.6348
 8292TIP3    H149071   2.539   2.851   1.623  0.1789 -0.2221 -0.7174
 8292TIP3    H249072   2.614   2.769   1.726 -0.3412  0.2157  0.0153
 8293TIP3   OH249073   6.740   1.602   0.994 -0.2659 -0.0873 -0.1133
 8293TIP3    H149074   6.661   1.651   0.972  0.2027  0.2751 -1.0634
 8293TIP3    H249075   6.811   1.664   0.977  0.2248 -0.4396  0.6391
 8294TIP3   OH249076   1.644   2.796   2.858 -0.2754 -0.5239  0.6425
 8294TIP3    H149077   1.734   2.781   2.886 -0.1367 -1.2646 -0.1563
 8294TIP3    H249078   1.591   2.743   2.917 -0.2438  0.2977  1.4331
 8295TIP3   OH249079   3.775   3.835   2.167  0.4601 -0.4436 -0.3147
 8295TIP3    H149080   3.817   3.844   2.252  0.3744 -2.9579  0.0432
 8295TIP3    H249081   3.848   3.820   2.106  0.6019  2.0974 -0.9138
 8296TIP3   OH249082   2.970   1.439   1.297 -0.5655 -0.3680 -0.0667
 8296TIP3    H149083   2.970   1.522   1.251  1.4214  0.5213  1.3813
 8296TIP3    H249084   2.881   1.405   1.288 -1.4074  1.8939 -0.7097
 8297TIP3   OH249085   2.415   2.232   1.377  0.2719  0.0385 -0.1156
 8297TIP3    H149086   2.496   2.247   1.426  1.3033 -0.9131 -1.4326
 8297TIP3    H249087   2.445   2.201   1.292 -1.4866  0.5397 -0.9524
 8298TIP3   OH249088   0.357   4.867   1.005 -0.0149  0.4753  0.1553
 8298TIP3    H149089   0.277   4.838   0.962 -0.4023  1.0803  0.4528
 8298TIP3    H249090   0.426   4.812   0.968 -0.6972 -0.7050  0.5882
 8299TIP3   OH249091   6.436   4.600   0.407 -0.0376  0.5536  0.1217
 8299TIP3    H149092   6.383   4.658   0.352  2.2955  2.1735 -0.5731
 8299TIP3    H249093   6.445   4.647   0.490 -4.5767 -2.4090  2.6860
 8300TIP3   OH249094   2.638   4.115   0.510  0.3807 -0.2429  0.2567
 8300TIP3    H149095   2.684   4.157   0.583  1.2042 -0.6718 -0.0061
 8300TIP3    H249096   2.584   4.185   0.473  0.3839  0.1249  0.9247
 8301TIP3   OH249097   3.580   5.966   1.457 -0.3026 -0.0468  0.9185
 8301TIP3    H149098   3.504   5.949   1.512 -0.2588 -1.4048  0.5986
 8301TIP3    H249099   3.631   5.886   1.461  1.0296  0.7743  0.9701
 8302TIP3   OH249100   1.626   1.756   1.754  0.0607  0.5914  0.0344
 8302TIP3    H149101   1.677   1.776   1.833 -1.2143  2.1176  0.5144
 8302TIP3    H249102   1.654   1.821   1.690  1.1864 -0.7225 -0.8636
 8303TIP3   OH249103   1.685   2.769   1.502 -0.4203  0.2219 -0.3607
 8303TIP3    H149104   1.770   2.781   1.460  1.4190 -0.4456  2.8381
 8303TIP3    H249105   1.634   2.720   1.439  1.2440  1.3309 -2.7234
 8304TIP3   OH249106   5.629   4.066   1.116 -0.3762 -0.2308  1.0036
 8304TIP3    H149107   5.676   4.127   1.059 -0.5035  0.9949  2.1564
 8304TIP3    H249108   5.679   3.985   1.113 -1.0719 -0.6511 -1.8341
 8305TIP3   OH249109   2.941   2.116   1.106  0.0498 -0.3634 -0.0927
 8305TIP3    H149110   2.915   2.029   1.076 -2.5033  0.3851 -0.2557
 8305TIP3    H249111   2.991   2.099   1.186  1.6339 -2.0492 -1.3555
 8306TIP3   OH249112   7.504   3.811   0.789  0.1677  0.4230  0.5074
 8306TIP3    H149113   7.548   3.891   0.760  0.9215 -0.5898 -1.2975
 8306TIP3    H249114   7.559   3.777   0.860  1.5865 -0.1115 -0.8147
 8307TIP3   OH249115   0.795   4.182   2.005  0.4465  0.6159  0.0158
 8307TIP3    H149116   0.802   4.276   2.020  0.1005  0.3232  2.2778
 8307TIP3    H249117   0.864   4.163   1.941 -0.3891  2.5865 -1.5682
 8308TIP3   OH249118   7.190   3.533   1.989  0.0049 -0.3569 -0.1864
 8308TIP3    H149119   7.157   3.490   2.068  0.4508  1.3448  0.9719
 8308TIP3    H249120   7.281   3.554   2.010  0.0048  0.4984 -0.9911
 8309TIP3   OH249121   6.904   3.795   2.801  0.0758 -0.4597  0.2081
 8309TIP3    H149122   6.946   3.880   2.814  0.1650 -0.6256  1.0679
 8309TIP3    H249123   6.940   3.740   2.870  1.2261 -1.6799 -1.2815
 8310TIP3   OH249124   1.451   4.870   0.709  0.4938  0.0075  0.2416
 8310TIP3    H149125   1.385   4.936   0.727  0.1752 -0.6377  1.5532
 8310TIP3    H249126   1.487   4.895   0.624 -2.3001 -0.3071 -1.1635
 8311TIP3   OH249127   0.421   4.015   3.321  0.2981 -0.4384  0.0438
 8311TIP3    H149128   0.486   3.946   3.307 -0.3858 -1.1059  0.1357
 8311TIP3    H249129   0.338   3.976   3.295 -0.0053  0.5965 -0.6345
 8312TIP3   OH249130   7.018   1.426   3.392  0.1305  0.2005  0.4238
 8312TIP3    H149131   6.996   1.371   3.316 -0.4687  0.9046  0.0742
 8312TIP3    H249132   7.095   1.384   3.430  0.1815 -0.4114 -0.3200
 8313TIP3   OH249133   3.660   3.649   2.905 -0.0908  0.1908  0.5410
 8313TIP3    H149134   3.723   3.588   2.865 -1.0655 -0.3900 -0.1415
 8313TIP3    H249135   3.715   3.716   2.945  0.9781 -0.4412  0.1849
 8314TIP3   OH249136   1.140   5.236   1.133  0.1490 -0.1330  0.0558
 8314TIP3    H149137   1.089   5.240   1.052 -0.9489  1.3412  0.7754
 8314TIP3    H249138   1.112   5.312   1.183  0.5138 -1.2219  2.0212
 8315TIP3   OH249139   2.831   7.278   1.774  0.5162 -0.2027 -0.0193
 8315TIP3    H149140   2.777   7.355   1.794 -3.0506 -2.0288 -1.6575
 8315TIP3    H249141   2.852   7.241   1.860 -0.6526  0.7517  0.7154
 8316TIP3   OH249142   0.161   1.282   3.445  0.1423  0.1521 -0.6081
 8316TIP3    H149143   0.151   1.370   3.409 -0.8925  0.7899  1.1332
 8316TIP3    H249144   0.072   1.247   3.451  0.3365 -0.2055  0.6047
 8317TIP3   OH249145   1.045   2.241   2.704 -0.0377  0.0553 -0.2289
 8317TIP3    H149146   1.135   2.220   2.732 -0.2709  0.2448  0.6941
 8317TIP3    H249147   0.990   2.211   2.777 -0.6300  0.9861 -0.2818
 8318TIP3   OH249148   6.783   3.567   0.680 -0.3486  0.2669  0.7528
 8318TIP3    H149149   6.820   3.551   0.767 -2.8749  1.4140  2.1769
 8318TIP3    H249150   6.730   3.489   0.662  0.1636  0.0371  0.2538
 8319TIP3   OH249151   3.376   1.303   0.702 -0.5849 -0.2976  0.2826
 8319TIP3    H149152   3.447   1.351   0.659  0.2988 -0.0648  1.9082
 8319TIP3    H249153   3.297   1.352   0.680  0.1095  1.0591  0.7039
 8320TIP3   OH249154   5.252   2.669   1.652 -0.3453  0.0794  0.3783
 8320TIP3    H149155   5.194   2.677   1.577 -1.7657 -0.7479  1.3299
 8320TIP3    H249156   5.232   2.745   1.706  1.9249  1.6434 -0.8237
 8321TIP3   OH249157   2.928   2.240   2.328 -0.1274  0.1810 -0.5002
 8321TIP3    H149158   3.011   2.280   2.353 -0.4911  1.2708 -0.9532
 8321TIP3    H249159   2.952   2.166   2.272  0.5238  0.8112 -1.0628
 8322TIP3   OH249160   3.262   7.116   2.255 -0.1214 -0.0674  0.1419
 8322TIP3    H149161   3.347   7.119   2.299  0.5090  1.4784 -1.0876
 8322TIP3    H249162   3.198   7.122   2.325  0.8237  0.5595  0.9667
 8323TIP3   OH249163   1.945   2.285   0.464 -0.1089  0.1113 -0.3186
 8323TIP3    H149164   1.895   2.207   0.439  0.3091  0.0893 -1.0862
 8323TIP3    H249165   1.888   2.358   0.440 -0.6672  0.0640  0.7462
 8324TIP3   OH249166   0.450   3.763   1.301  0.1501  0.7695 -0.5790
 8324TIP3    H149167   0.423   3.671   1.301 -2.0336  1.3121  1.3883
 8324TIP3    H249168   0.368   3.813   1.300  1.2651  2.6926 -1.0012
 8325TIP3   OH249169   2.829   0.011   2.459  0.2710 -0.1747 -0.1919
 8325TIP3    H149170   2.885   0.079   2.422 -1.3509  1.3470  0.0245
 8325TIP3    H249171   2.742   0.051   2.464 -0.4469 -1.7730  1.3018
 8326TIP3   OH249172   3.717   6.475   2.398  0.0713  0.3571 -0.2805
 8326TIP3    H149173   3.645   6.436   2.448  1.3688 -0.1883  1.2202
 8326TIP3    H249174   3.775   6.512   2.464  1.0571  1.0351 -1.4791
 8327TIP3   OH249175   7.047   5.251   1.388  0.3770  0.1502  0.2139
 8327TIP3    H149176   7.076   5.319   1.327  0.4113 -0.7138 -0.7591
 8327TIP3    H249177   7.127   5.223   1.432  0.0838  2.2898  2.3244
 8328TIP3   OH249178   4.839   5.912   2.254 -0.2930  0.4001 -0.7193
 8328TIP3    H149179   4.886   5.839   2.213  0.9135  1.1326 -0.6964
 8328TIP3    H249180   4.862   5.906   2.347 -0.4956  0.5936 -0.6560
 8329TIP3   OH249181   6.100   1.431   1.287  0.1835 -0.4644  0.3451
 8329TIP3    H149182   6.109   1.526   1.295  0.4986 -0.3768 -0.8596
 8329TIP3    H249183   6.069   1.418   1.197 -1.1211 -1.4250  0.9037
 8330TIP3   OH249184   6.236   4.208   0.611 -0.4005  0.5304 -0.1991
 8330TIP3    H149185   6.254   4.122   0.649  0.8327  0.5723 -0.6245
 8330TIP3    H249186   6.322   4.240   0.584 -1.1483  0.6442 -2.7177
 8331TIP3   OH249187   5.599   0.701   1.989  0.3950 -0.2896  1.2189
 8331TIP3    H149188   5.637   0.745   2.066  0.7111  0.7737  0.4791
 8331TIP3    H249189   5.663   0.635   1.965  0.2589 -0.6830  1.9125
 8332TIP3   OH249190   1.538   3.034   1.808  0.1110 -0.2018  0.0819
 8332TIP3    H149191   1.563   3.094   1.878 -1.8881  2.6561 -1.4389
 8332TIP3    H249192   1.580   3.070   1.730 -1.1153 -0.7782 -0.8842
 8333TIP3   OH249193   1.146   0.365   2.605  0.1088  0.3127 -0.6853
 8333TIP3    H149194   1.137   0.340   2.513 -1.4128  0.1259 -0.5177
 8333TIP3    H249195   1.084   0.309   2.652  0.8315  0.4289  0.4591
 8334TIP3   OH249196   4.143   6.644   0.728 -0.4673 -0.2120 -0.2556
 8334TIP3    H149197   4.155   6.565   0.675  1.1406  0.2589 -0.6512
 8334TIP3    H249198   4.202   6.632   0.803 -1.5553 -0.1663  0.6455
 8335TIP3   OH249199   1.811   5.581   1.830  0.1892  0.2448  0.3873
 8335TIP3    H149200   1.746   5.516   1.856  0.7187 -1.0645 -1.3835
 8335TIP3    H249201   1.791   5.599   1.738  2.2218 -0.1067 -0.1774
 8336TIP3   OH249202   0.254   0.999   9.320  0.1635  0.5429  0.3788
 8336TIP3    H149203   0.187   1.067   9.323 -0.1109  0.2916  0.0127
 8336TIP3    H249204   0.229   0.937   9.389 -1.8160 -1.2311 -1.7874
 8337TIP3   OH249205   4.306   2.277   2.399  0.5353  0.3136  0.0710
 8337TIP3    H149206   4.358   2.198   2.415 -0.2717 -0.6574 -1.6687
 8337TIP3    H249207   4.239   2.275   2.467  1.3730  0.3062  0.9202
 8338TIP3   OH249208   2.740   7.071   0.825 -0.1081 -0.2378  0.7312
 8338TIP3    H149209   2.786   7.046   0.905  0.7169  1.1124  0.7093
 8338TIP3    H249210   2.765   7.162   0.810 -1.1975 -0.0953 -0.4142
 8339TIP3   OH249211   6.755   2.359   3.255 -0.1898  0.1315  0.5493
 8339TIP3    H149212   6.810   2.410   3.314  0.2704 -1.5034  1.6001
 8339TIP3    H249213   6.667   2.363   3.293 -0.1773  0.2018  0.5711
 8340TIP3   OH249214   4.929   1.919   2.405  0.0366  0.0212  0.1721
 8340TIP3    H149215   5.001   1.955   2.353 -0.4339  1.8105  0.6855
 8340TIP3    H249216   4.852   1.968   2.375 -1.0811 -2.1393 -0.6620
 8341TIP3   OH249217   7.516   4.212   3.937 -0.0590 -0.6326 -0.2811
 8341TIP3    H149218   7.441   4.155   3.956 -1.8750  1.8709  0.6020
 8341TIP3    H249219   7.563   4.219   4.019 -1.4159  1.2298  0.3843
 8342TIP3   OH249220   2.429   3.360   2.861  0.0609  0.6988 -0.2641
 8342TIP3    H149221   2.523   3.364   2.841  0.0878  1.0962 -0.0643
 8342TIP3    H249222   2.402   3.451   2.870 -0.5333  0.6176 -1.1472
 8343TIP3   OH249223   5.975   4.524   1.224 -0.3183 -0.2483 -0.9954
 8343TIP3    H149224   5.949   4.596   1.167 -0.3444  0.7003  0.1686
 8343TIP3    H249225   6.066   4.505   1.199  0.4140  1.6227  0.0454
 8344TIP3   OH249226   0.100   3.816   1.937  0.0540 -0.2833 -1.0418
 8344TIP3    H149227   0.138   3.747   1.882  0.5601  0.5000 -1.7033
 8344TIP3    H249228   0.174   3.852   1.985 -0.0250  0.4662 -1.4592
 8345TIP3   OH249229   2.118   3.837   2.678 -0.0457 -0.1253  0.1096
 8345TIP3    H149230   2.089   3.921   2.644 -0.7774 -0.2840  0.3339
 8345TIP3    H249231   2.082   3.832   2.766  0.5837 -0.3718  0.3655
 8346TIP3   OH249232   3.855   4.677   1.010 -0.0383 -0.6277  0.4219
 8346TIP3    H149233   3.936   4.654   0.964  1.2405  0.0203  2.2128
 8346TIP3    H249234   3.840   4.769   0.988 -0.5503 -0.8623 -0.2445
 8347TIP3   OH249235   1.951   3.836   0.594  0.7054  0.1093 -0.0765
 8347TIP3    H149236   1.994   3.803   0.673  0.6307  0.4648  0.1152
 8347TIP3    H249237   1.907   3.916   0.622  2.3490  1.3630 -0.9366
 8348TIP3   OH249238   2.233   6.524   9.625  0.0921 -0.1366  0.1906
 8348TIP3    H149239   2.308   6.486   9.672 -1.2104 -1.8240  1.0076
 8348TIP3    H249240   2.212   6.603   9.675  0.0832 -0.7480  1.1786
 8349TIP3   OH249241   5.909   6.625   1.357 -0.2045 -0.1486  0.0294
 8349TIP3    H149242   5.999   6.605   1.382 -0.9363 -1.9173  1.5027
 8349TIP3    H249243   5.907   6.614   1.262  0.6598 -2.3369  0.2013
 8350TIP3   OH249244   7.346   1.334   2.459  0.3323 -0.7692  0.5594
 8350TIP3    H149245   7.268   1.283   2.481 -0.4056  0.7044  1.5057
 8350TIP3    H249246   7.402   1.325   2.536  0.1005 -0.0074  0.8274
 8351TIP3   OH249247   2.472   2.094   1.754 -0.5911 -0.0589 -0.1510
 8351TIP3    H149248   2.408   2.150   1.709 -0.0893  0.7983  0.1853
 8351TIP3    H249249   2.468   2.122   1.845  0.4634  0.1976 -0.1755
 8352TIP3   OH249250   1.259   5.906   2.817 -0.0270  0.0817 -0.3210
 8352TIP3    H149251   1.174   5.869   2.841  0.2007 -0.0332  0.3321
 8352TIP3    H249252   1.252   5.999   2.841  1.0487 -0.4824  2.6959
 8353TIP3   OH249253   3.364   6.053   2.341  0.3231  0.4990  0.1332
 8353TIP3    H149254   3.347   6.108   2.264  1.1337  0.9033  0.2316
 8353TIP3    H249255   3.358   6.114   2.415 -3.2141 -0.3508  0.7375
 8354TIP3   OH249256   1.548   3.087   1.318  0.1673  0.1539  0.4558
 8354TIP3    H149257   1.567   2.997   1.292 -0.3702 -0.0506  0.7515
 8354TIP3    H249258   1.468   3.109   1.271  0.5232  0.6282  0.0562
 8355TIP3   OH249259   4.278   4.364   1.235  0.7637  0.0904  0.1423
 8355TIP3    H149260   4.355   4.389   1.183  0.1581  2.7534  0.3851
 8355TIP3    H249261   4.221   4.320   1.173  1.2812  0.6560 -0.7667
 8356TIP3   OH249262   1.226   6.084   1.951 -0.2840 -0.3230 -0.1780
 8356TIP3    H149263   1.161   6.154   1.946 -0.0998 -0.0685  0.7502
 8356TIP3    H249264   1.197   6.029   2.023  1.2527  0.5983  1.2279
 8357TIP3   OH249265   4.715   6.585   1.059 -0.0634 -0.1416 -0.2221
 8357TIP3    H149266   4.736   6.574   0.966  1.5029  2.9855 -0.3768
 8357TIP3    H249267   4.635   6.638   1.059  1.3156  2.0598  0.0748
 8358TIP3   OH249268   0.627   3.220   3.456 -0.7699 -0.3242 -0.1064
 8358TIP3    H149269   0.631   3.183   3.368  0.0636 -2.3143  0.6836
 8358TIP3    H249270   0.611   3.144   3.513  5.0878 -0.4038  2.0908
 8359TIP3   OH249271   6.196   3.072   1.663  0.2936  0.8657  0.2767
 8359TIP3    H149272   6.211   3.150   1.716  0.0565  0.7170  0.5672
 8359TIP3    H249273   6.109   3.085   1.625  1.1046  1.7299 -1.4029
 8360TIP3   OH249274   6.474   4.999   2.563 -0.1919 -0.3821  0.5911
 8360TIP3    H149275   6.539   5.067   2.574 -1.6416  0.8841  1.8285
 8360TIP3    H249276   6.458   4.966   2.652  0.5652 -2.4713  0.0186
 8361TIP3   OH249277   7.331   3.689   2.256 -0.6781 -0.1389  0.1227
 8361TIP3    H149278   7.236   3.698   2.259 -0.6977 -0.4850  0.5132
 8361TIP3    H249279   7.364   3.762   2.309 -0.7325 -0.2163  0.2613
 8362TIP3   OH249280   2.240   4.534   1.917 -0.1742 -0.2216  0.3152
 8362TIP3    H149281   2.329   4.498   1.916 -0.0688  0.0186  0.9173
 8362TIP3    H249282   2.209   4.523   1.827  0.5179 -0.1708  0.0644
 8363TIP3   OH249283   2.074   2.198   0.972  0.0823  0.2903  0.2097
 8363TIP3    H149284   1.987   2.162   0.988  0.0977 -1.2766 -2.6813
 8363TIP3    H249285   2.131   2.147   1.030 -0.5038 -1.2308 -0.4967
 8364TIP3   OH249286   3.481   4.888   0.513 -0.5277  0.3147 -0.7009
 8364TIP3    H149287   3.570   4.874   0.546 -0.9239 -0.6264  0.0160
 8364TIP3    H249288   3.429   4.818   0.552 -1.7554  1.3068 -0.4533
 8365TIP3   OH249289   0.150   2.229   1.112  0.3129 -0.3124  0.4457
 8365TIP3    H149290   0.158   2.161   1.045  0.2061  0.1707 -0.0628
 8365TIP3    H249291   0.183   2.308   1.069  2.9114 -0.5480  1.8383
 8366TIP3   OH249292   6.748   4.080   1.171 -0.5149 -0.1219  0.3057
 8366TIP3    H149293   6.676   4.020   1.191 -0.6313  0.3072  1.2416
 8366TIP3    H249294   6.762   4.128   1.253 -1.1060  1.8399 -0.6709
 8367TIP3   OH249295   7.473   4.783   1.940  0.1535  0.1451  0.2137
 8367TIP3    H149296   7.443   4.850   1.879 -1.0142 -1.0258 -0.5556
 8367TIP3    H249297   7.567   4.798   1.949  0.1351  1.0683 -0.9409
 8368TIP3   OH249298   4.528   2.621   2.157  0.9375  0.2527 -0.1593
 8368TIP3    H149299   4.521   2.526   2.150 -0.7859  0.2348  1.2866
 8368TIP3    H249300   4.483   2.654   2.079 -0.6030 -0.1276  0.5323
 8369TIP3   OH249301   3.455   2.371   1.198 -0.6177 -0.8499 -0.4684
 8369TIP3    H149302   3.529   2.413   1.153 -0.3993 -1.1490 -0.3917
 8369TIP3    H249303   3.378   2.402   1.150 -0.5089  0.1292 -0.0279
 8370TIP3   OH249304   1.832   3.351   2.985 -0.5598  0.3879  0.2400
 8370TIP3    H149305   1.802   3.411   2.916 -1.2748  0.6212  0.7495
 8370TIP3    H249306   1.759   3.292   2.999 -0.0043 -0.3657  0.0253
 8371TIP3   OH249307   4.114   5.221   3.059 -0.4652  0.1124  0.1149
 8371TIP3    H149308   4.209   5.226   3.070 -0.6645  0.2987  2.2293
 8371TIP3    H249309   4.090   5.307   3.025  0.0694  0.2851  0.1527
 8372TIP3   OH249310   6.510   4.967   1.330  0.5348  0.9637  0.5428
 8372TIP3    H149311   6.539   4.881   1.299  1.0421  1.0940  0.6426
 8372TIP3    H249312   6.582   5.026   1.305  0.6641  1.1807  1.4038
 8373TIP3   OH249313   4.430   1.461   0.538  0.0508  0.4871  0.0427
 8373TIP3    H149314   4.513   1.444   0.582 -0.8201  1.2016  2.0745
 8373TIP3    H249315   4.455   1.504   0.456  1.6910 -0.0286  0.2326
 8374TIP3   OH249316   1.401   2.876   0.929  0.7174  0.3698  0.0257
 8374TIP3    H149317   1.343   2.934   0.879 -0.5984 -0.9887 -0.1181
 8374TIP3    H249318   1.398   2.793   0.881 -0.3424 -0.8939  2.1491
 8375TIP3   OH249319   6.374   0.961   2.197 -0.1389  0.1962  0.3260
 8375TIP3    H149320   6.382   0.882   2.249  0.3076  0.0341  0.0222
 8375TIP3    H249321   6.446   0.956   2.134 -1.1941 -0.0688 -0.9108
 8376TIP3   OH249322   1.773   1.100   0.691 -0.0349  0.8664 -0.2089
 8376TIP3    H149323   1.684   1.132   0.703 -0.2546 -0.3821  1.8190
 8376TIP3    H249324   1.819   1.125   0.772  0.1362 -2.6076  0.9110
 8377TIP3   OH249325   1.973   7.109   2.582 -0.1267  0.1769  0.0192
 8377TIP3    H149326   1.910   7.177   2.604  1.6802  1.3407  1.9160
 8377TIP3    H249327   1.924   7.027   2.590 -1.4552  1.0501  1.2095
 8378TIP3   OH249328   7.066   1.907   2.671  0.1039  0.3502 -0.5055
 8378TIP3    H149329   7.140   1.925   2.728 -0.5164 -0.8018  0.7099
 8378TIP3    H249330   7.033   1.994   2.647 -0.4068  0.8936  1.9409
 8379TIP3   OH249331   5.715   0.694   1.232  0.3590 -0.0484  0.0779
 8379TIP3    H149332   5.719   0.601   1.254 -0.5687 -0.2655 -0.5909
 8379TIP3    H249333   5.636   0.726   1.277  0.4879  0.3372  0.0333
 8380TIP3   OH249334   3.615   1.332   1.287 -0.0040 -0.5244  0.6484
 8380TIP3    H149335   3.570   1.249   1.301  0.0791 -0.4557  1.3351
 8380TIP3    H249336   3.545   1.393   1.261 -0.3309 -0.4078  1.7432
 8381TIP3   OH249337   2.159   5.973   2.879 -0.3347  0.5865 -0.2179
 8381TIP3    H149338   2.197   6.039   2.820 -1.3402  2.0655  0.7151
 8381TIP3    H249339   2.089   6.019   2.924  0.0158 -0.6518  1.7162
 8382TIP3   OH249340   6.955   0.760   0.829 -0.6636  0.0855  0.0822
 8382TIP3    H149341   6.986   0.688   0.884 -0.9942 -0.1013  0.0270
 8382TIP3    H249342   6.879   0.794   0.875  0.4719  1.5237  1.0010
 8383TIP3   OH249343   0.548   5.558   2.522  0.7886  0.1783 -0.4122
 8383TIP3    H149344   0.605   5.608   2.581  1.9130 -1.4949 -0.0282
 8383TIP3    H249345   0.489   5.510   2.580 -0.1870  0.8967 -0.7765
 8384TIP3   OH249346   2.003   2.596   1.231  0.6581 -0.0808  0.0455
 8384TIP3    H149347   1.965   2.663   1.287 -0.8544 -0.1459 -0.8451
 8384TIP3    H249348   2.029   2.526   1.291  3.1661  1.5991  1.1131
 8385TIP3   OH249349   5.567   0.520   0.643  0.0781  0.2311 -0.0123
 8385TIP3    H149350   5.488   0.485   0.685  0.1019  0.2737  0.0684
 8385TIP3    H249351   5.592   0.454   0.579 -0.1996  0.3517 -0.2516
 8386TIP3   OH249352   2.278   7.117   1.215  0.0467  0.7691  0.0459
 8386TIP3    H149353   2.369   7.088   1.211  0.2326  1.4075 -0.7503
 8386TIP3    H249354   2.267   7.153   1.303  0.7824  1.3437 -0.0872
 8387TIP3   OH249355   3.518   1.216   1.632 -0.2401 -0.1296 -0.0357
 8387TIP3    H149356   3.470   1.148   1.584  1.6344 -1.1170 -0.6305
 8387TIP3    H249357   3.450   1.268   1.674 -1.8058 -1.5850 -0.6306
 8388TIP3   OH249358   4.053   5.594   2.346  0.2655 -0.6452  0.1689
 8388TIP3    H149359   4.063   5.508   2.386  1.6511 -0.3969  0.4247
 8388TIP3    H249360   4.011   5.577   2.262  0.9535 -1.6299  0.0080
 8389TIP3   OH249361   2.569   7.296   0.773 -0.5044 -0.0156 -0.2147
 8389TIP3    H149362   2.516   7.258   0.842 -1.6369  0.4449 -0.8087
 8389TIP3    H249363   2.634   7.350   0.818 -0.1898 -0.9971  0.5393
 8390TIP3   OH249364   3.200   3.813   0.778  0.1804  0.5073 -0.1085
 8390TIP3    H149365   3.137   3.831   0.708  0.4760 -0.3504 -0.6200
 8390TIP3    H249366   3.153   3.834   0.859 -0.9071 -0.4692 -0.4550
 8391TIP3   OH249367   5.554   6.639   0.649  0.3710 -0.0167  0.3569
 8391TIP3    H149368   5.483   6.664   0.707 -0.9865 -1.4450 -0.6104
 8391TIP3    H249369   5.573   6.719   0.599 -1.2409  0.1551 -0.0420
 8392TIP3   OH249370   2.318   2.854   1.854 -0.0844 -0.0859 -0.3045
 8392TIP3    H149371   2.280   2.767   1.843 -0.3987 -0.1347  1.0531
 8392TIP3    H249372   2.400   2.850   1.804 -0.7789 -0.6753 -1.4510
 8393TIP3   OH249373   2.948   5.437   3.369  0.0563  0.4965 -0.7226
 8393TIP3    H149374   3.010   5.478   3.430 -2.0588  2.6781  0.1676
 8393TIP3    H249375   2.942   5.499   3.296  0.0754 -0.4674 -1.5599
 8394TIP3   OH249376   1.964   5.702   2.021 -0.5288  0.1684 -0.4176
 8394TIP3    H149377   1.949   5.794   2.003  1.2513  0.7315  0.7851
 8394TIP3    H249378   1.908   5.656   1.958 -0.3080  2.0468 -2.0764
 8395TIP3   OH249379   3.948   1.886   2.428  0.6988  0.2536  0.2784
 8395TIP3    H149380   3.901   1.891   2.512  2.2347  1.7481  1.1294
 8395TIP3    H249381   3.952   1.793   2.408 -1.3607 -0.0101  0.8712
 8396TIP3   OH249382   3.402   4.089   2.674  0.7121  0.2382  0.4730
 8396TIP3    H149383   3.466   4.156   2.649  0.3248  1.0059  1.4845
 8396TIP3    H249384   3.318   4.124   2.646  0.6226 -0.3783 -0.0682
 8397TIP3   OH249385   4.270   1.025   0.877 -0.6231  0.1502  0.3428
 8397TIP3    H149386   4.261   0.971   0.955 -1.1239  1.5312  1.2739
 8397TIP3    H249387   4.293   1.112   0.910 -1.5497  0.9376 -0.9898
 8398TIP3   OH249388   3.863   2.858   0.974  0.3704 -1.0186 -0.5005
 8398TIP3    H149389   3.899   2.818   1.053  2.1439  0.1070 -0.6862
 8398TIP3    H249390   3.789   2.910   1.005  0.6963 -1.0436  0.3434
 8399TIP3   OH249391   1.400   4.890   2.995  0.5554 -0.1576 -0.3969
 8399TIP3    H149392   1.340   4.959   2.966  0.3151 -0.9138 -1.7498
 8399TIP3    H249393   1.353   4.846   3.066  0.2807  0.4143 -0.2218
 8400TIP3   OH249394   3.156   2.373   1.336  0.0115  0.7740  0.4030
 8400TIP3    H149395   3.168   2.279   1.321  1.1635  0.7218  1.4748
 8400TIP3    H249396   3.211   2.414   1.269 -0.5422  0.7068 -0.1080
 8401TIP3   OH249397   0.786   3.833   1.581 -0.0918  0.2920  0.2749
 8401TIP3    H149398   0.722   3.761   1.581 -0.7992  0.9132  0.6282
 8401TIP3    H249399   0.869   3.790   1.561 -0.5772 -0.5630  0.0184
 8402TIP3   OH249400   1.336   2.127   1.637  0.3728 -0.5879 -0.2322
 8402TIP3    H149401   1.291   2.172   1.566  0.1152  0.6524  0.6649
 8402TIP3    H249402   1.368   2.045   1.599 -0.2410 -0.2090 -1.6024
 8403TIP3   OH249403   1.184   4.828   1.800  0.1895  0.4196  0.2539
 8403TIP3    H149404   1.168   4.741   1.764  0.8240  0.0491  0.8210
 8403TIP3    H249405   1.215   4.811   1.889  1.1898  1.1796  0.0715
 8404TIP3   OH249406   2.064   4.186   2.152 -0.0540 -0.5199 -0.5604
 8404TIP3    H149407   2.158   4.190   2.134 -0.1331 -0.3282 -0.9526
 8404TIP3    H249408   2.023   4.199   2.066 -0.4567  1.0954 -0.1612
 8405TIP3   OH249409   4.468   6.080   0.515  0.0715  0.1273  0.3709
 8405TIP3    H149410   4.496   6.150   0.574 -1.6517 -0.0377  1.4647
 8405TIP3    H249411   4.387   6.114   0.477  1.1934  0.2854 -2.0558
 8406TIP3   OH249412   6.058   2.358   0.871 -0.5772  0.3557  0.0417
 8406TIP3    H149413   6.082   2.277   0.826 -1.7915  0.6197 -1.1382
 8406TIP3    H249414   6.063   2.336   0.964  0.4472 -0.6660 -0.2288
 8407TIP3   OH249415   6.414   2.741   1.013  0.2302  0.1531 -0.3557
 8407TIP3    H149416   6.464   2.734   1.094  0.2186  0.9496 -0.2708
 8407TIP3    H249417   6.324   2.720   1.038  0.3905 -0.6066 -0.3756
 8408TIP3   OH249418   2.995   0.689   1.762 -0.0618 -0.1283  0.1510
 8408TIP3    H149419   2.922   0.720   1.814  0.8430 -1.6874  2.5242
 8408TIP3    H249420   3.073   0.711   1.814  1.1183  0.5881 -1.8173
 8409TIP3   OH249421   0.060   0.758   1.260  0.1337  0.1833 -0.2620
 8409TIP3    H149422   0.081   0.665   1.275 -0.7260 -0.6508 -3.4832
 8409TIP3    H249423  -0.035   0.759   1.248  0.0525  1.6234  0.3884
 8410TIP3   OH249424   3.933   6.457   2.191  0.0508 -0.3559 -0.0094
 8410TIP3    H149425   3.879   6.464   2.270 -0.3777  0.2548 -0.3466
 8410TIP3    H249426   3.933   6.545   2.153 -0.4299 -0.8039 -1.1229
 8411TIP3   OH249427   4.816   5.103   2.605 -0.5971 -0.5770  0.3897
 8411TIP3    H149428   4.769   5.112   2.522 -1.7086 -1.5197  0.8890
 8411TIP3    H249429   4.752   5.130   2.672 -0.2248 -1.2499  1.0327
 8412TIP3   OH249430   2.225   0.681   2.006 -0.0271 -0.2419 -0.4803
 8412TIP3    H149431   2.158   0.685   1.937  0.3325  2.3254 -0.7793
 8412TIP3    H249432   2.209   0.759   2.059  1.0939 -1.0070  1.0454
 8413TIP3   OH249433   4.897   2.437   2.000  0.4046 -0.2599 -0.3938
 8413TIP3    H149434   4.936   2.354   2.028  0.4404  0.0137  0.3632
 8413TIP3    H249435   4.863   2.476   2.080 -1.5332 -0.5327 -1.0152
 8414TIP3   OH249436   0.574   1.597   1.082  0.2102  0.1516  0.4995
 8414TIP3    H149437   0.654   1.550   1.057  1.5734  1.7405  1.6287
 8414TIP3    H249438   0.590   1.626   1.172 -1.9077  0.0252  0.9789
 8415TIP3   OH249439   5.000   4.892   1.860  0.7205  0.1547 -0.4069
 8415TIP3    H149440   5.068   4.849   1.913  1.5194 -1.6247 -2.6958
 8415TIP3    H249441   5.049   4.938   1.792 -0.2914  2.0822  0.1083
 8416TIP3   OH249442   3.725   3.650   1.626  0.2068 -0.6722 -0.7083
 8416TIP3    H149443   3.787   3.584   1.596 -1.3322 -1.6701 -1.8340
 8416TIP3    H249444   3.737   3.653   1.721  1.9864 -0.7860 -0.9006
 8417TIP3   OH249445   5.899   5.744   1.029  0.1060  0.4800 -0.3167
 8417TIP3    H149446   5.955   5.785   1.095  0.5818 -1.7837  0.7914
 8417TIP3    H249447   5.810   5.768   1.055  0.3607  0.8015  0.2893
 8418TIP3   OH249448   6.106   6.919   0.602 -0.4199 -0.1590  0.2342
 8418TIP3    H149449   6.177   6.859   0.626 -0.4435  0.1512  1.1389
 8418TIP3    H249450   6.026   6.869   0.617 -0.3976 -0.6207 -1.1068
 8419TIP3   OH249451   3.445   0.102   0.575 -0.2360  0.2780  0.1466
 8419TIP3    H149452   3.516   0.070   0.520  0.0321  0.2130  0.5365
 8419TIP3    H249453   3.404   0.171   0.522 -0.5582 -0.4072 -0.5213
 8420TIP3   OH249454   4.471   2.753   1.321 -0.1385 -0.1525  0.7393
 8420TIP3    H149455   4.549   2.771   1.374 -0.7406  0.7887  1.3320
 8420TIP3    H249456   4.506   2.722   1.237  1.0493  3.3214 -0.2032
 8421TIP3   OH249457   0.210   0.909   0.787 -0.4207 -0.1892 -0.7233
 8421TIP3    H149458   0.240   0.911   0.878  1.5017  2.6143 -1.3102
 8421TIP3    H249459   0.233   0.821   0.756  1.8275 -0.1614  0.6380
 8422TIP3   OH249460   4.551   0.412   2.513  0.0312 -0.1506  0.4062
 8422TIP3    H149461   4.461   0.379   2.511 -0.2560  0.5754  0.9117
 8422TIP3    H249462   4.552   0.474   2.586  0.4863  1.1741 -0.6962
 8423TIP3   OH249463   2.061   0.360   1.644  0.0196 -0.0804 -0.0063
 8423TIP3    H149464   2.145   0.332   1.680  0.8237  0.6021 -1.2798
 8423TIP3    H249465   2.053   0.310   1.563  0.5339  1.8324 -1.3026
 8424TIP3   OH249466   1.625   6.489   1.417  0.2072 -0.4779 -1.1175
 8424TIP3    H149467   1.565   6.491   1.491 -1.1789 -0.8161 -2.2008
 8424TIP3    H249468   1.712   6.504   1.456 -0.8239  3.6079  0.1363
 8425TIP3   OH249469   6.178   3.549   3.106 -0.1264  0.3437 -0.0241
 8425TIP3    H149470   6.087   3.574   3.116  0.2260  1.5567  0.3360
 8425TIP3    H249471   6.227   3.630   3.118  1.0252 -0.3484  0.1702
 8426TIP3   OH249472   5.891   6.715   1.650 -0.3011  0.0033  0.3011
 8426TIP3    H149473   5.896   6.620   1.635  4.5619 -0.3852  2.3898
 8426TIP3    H249474   5.933   6.753   1.573  1.8789 -0.0241  1.4065
 8427TIP3   OH249475   5.598   4.590   2.315  0.4463 -0.8884  0.5776
 8427TIP3    H149476   5.626   4.660   2.256 -0.2569  0.5696  1.8819
 8427TIP3    H249477   5.509   4.569   2.287  0.4034 -0.7595  0.6154
 8428TIP3   OH249478   3.341   0.476   1.200 -0.8012 -0.1120  0.1221
 8428TIP3    H149479   3.295   0.560   1.202  0.2401  0.4710  0.2625
 8428TIP3    H249480   3.336   0.443   1.289 -2.4675 -0.9331 -0.2231
 8429TIP3   OH249481   6.373   4.470   1.791 -0.2853 -0.1847 -0.3577
 8429TIP3    H149482   6.315   4.456   1.866  1.8668 -1.6637  1.1552
 8429TIP3    H249483   6.416   4.385   1.778  2.5959  1.1546 -0.4090
 8430TIP3   OH249484   4.849   2.750   3.294  0.1984 -0.0158 -0.0025
 8430TIP3    H149485   4.827   2.792   3.211  0.2536 -0.1908 -0.1063
 8430TIP3    H249486   4.795   2.671   3.296  0.5068 -0.2337 -0.0686
 8431TIP3   OH249487   5.272   4.815   1.708 -0.0957 -0.1078  0.0493
 8431TIP3    H149488   5.227   4.739   1.669  3.0635 -1.7595 -0.7047
 8431TIP3    H249489   5.329   4.777   1.774 -1.4654  2.1657  2.7496
 8432TIP3   OH249490   2.165   2.412   3.046 -0.0508 -0.1790  0.1982
 8432TIP3    H149491   2.078   2.409   3.086 -0.2989 -0.5363 -0.3529
 8432TIP3    H249492   2.218   2.462   3.108 -0.6913  0.1996  0.4505
 8433TIP3   OH249493   4.029   2.864   0.767 -0.5923  0.2035  0.4785
 8433TIP3    H149494   3.952   2.843   0.819  0.6176 -0.6967  1.9673
 8433TIP3    H249495   4.082   2.921   0.823 -0.5289  1.4839 -0.8306
 8434TIP3   OH249496   4.679   3.876   1.404  0.2769  0.7400 -0.6024
 8434TIP3    H149497   4.747   3.812   1.425 -0.2009  0.6867  0.9043
 8434TIP3    H249498   4.623   3.878   1.482 -1.5902  0.6208 -1.8517
 8435TIP3   OH249499   3.552   2.455   0.931 -0.7865 -0.5582  0.5012
 8435TIP3    H149500   3.623   2.493   0.982 -0.7007 -1.3837  1.0200
 8435TIP3    H249501   3.486   2.524   0.926  0.0012  0.1767  0.1100
 8436TIP3   OH249502   3.160   4.517   3.147  0.3985 -0.3990  0.0371
 8436TIP3    H149503   3.216   4.534   3.223  0.5209 -1.7287  0.2664
 8436TIP3    H249504   3.212   4.459   3.091  0.1621  0.2615 -0.8980
 8437TIP3   OH249505   7.520   0.361   1.536  0.2373 -0.6584  0.1740
 8437TIP3    H149506   7.452   0.339   1.600 -0.7926 -3.5896 -1.7322
 8437TIP3    H249507   7.477   0.419   1.474 -0.2354 -1.6239 -0.4205
 8438TIP3   OH249508   6.459   2.855   2.672  0.3346  0.2734  0.0407
 8438TIP3    H149509   6.440   2.945   2.645 -1.5444 -0.1992 -0.3433
 8438TIP3    H249510   6.375   2.810   2.666  0.6222 -0.8215  3.0094
 8439TIP3   OH249511   4.912   6.417   2.045 -0.3543 -0.5287 -0.1335
 8439TIP3    H149512   4.849   6.347   2.059  0.4558 -1.1805  0.3225
 8439TIP3    H249513   4.862   6.485   1.999 -1.7956 -0.3796  1.5357
 8440TIP3   OH249514   4.633   3.622   1.162 -0.2685  0.0626 -0.0048
 8440TIP3    H149515   4.636   3.718   1.163 -0.5215  0.0691  0.2014
 8440TIP3    H249516   4.724   3.595   1.171  0.0852  0.2873 -2.2084
 8441TIP3   OH249517   5.633   5.176   1.166  0.2279 -0.1252  0.1508
 8441TIP3    H149518   5.701   5.230   1.208 -0.8019  1.4829 -0.1413
 8441TIP3    H249519   5.645   5.191   1.072  1.4674 -2.3928 -0.1142
 8442TIP3   OH249520   6.763   3.732   2.416  0.5458  0.2902 -0.2226
 8442TIP3    H149521   6.810   3.683   2.484 -0.1227 -0.4193 -0.2626
 8442TIP3    H249522   6.793   3.694   2.334 -1.7220 -1.7313 -0.2008
 8443TIP3   OH249523   3.281   3.424   1.012 -0.0273  0.1547  0.5703
 8443TIP3    H149524   3.308   3.350   1.067 -0.9673  0.3036  1.2484
 8443TIP3    H249525   3.270   3.387   0.925  0.6642 -0.2527  0.6466
 8444TIP3   OH249526   1.655   5.561   1.250 -0.1070  0.3472 -0.0489
 8444TIP3    H149527   1.700   5.547   1.167  1.1569  0.3708  0.6187
 8444TIP3    H249528   1.615   5.647   1.241  0.2063  0.4459 -0.5503
 8445TIP3   OH249529   2.190   5.648   0.524  0.2310  0.3641  0.1341
 8445TIP3    H149530   2.212   5.692   0.607  0.5469  0.3693  0.0486
 8445TIP3    H249531   2.124   5.705   0.484  0.6008  0.7391  0.0461
 8446TIP3   OH249532   4.026   3.833   0.543 -0.4066  0.0393  0.2175
 8446TIP3    H149533   4.077   3.755   0.521 -0.6357  0.6016 -2.6514
 8446TIP3    H249534   3.988   3.814   0.629  0.8212 -2.3246  0.2983
 8447TIP3   OH249535   1.669   5.942   0.613  0.6518  0.0200 -0.0127
 8447TIP3    H149536   1.750   5.990   0.599  1.2679 -1.3160 -1.2477
 8447TIP3    H249537   1.676   5.865   0.556 -0.9046 -0.8059  0.8415
 8448TIP3   OH249538   6.160   2.142   0.734 -0.1586 -0.0687  0.2799
 8448TIP3    H149539   6.255   2.144   0.746 -0.2362  0.5087  0.9064
 8448TIP3    H249540   6.146   2.095   0.652  0.6525 -0.3995  0.3287
 8449TIP3   OH249541   6.859   3.541   2.213 -0.2504  0.1857  0.6988
 8449TIP3    H149542   6.804   3.527   2.135 -0.4455 -1.5588  1.1159
 8449TIP3    H249543   6.857   3.457   2.259 -0.7360  1.3879  2.9923
 8450TIP3   OH249544   4.891   2.284   1.769  0.2978 -0.2959 -0.3540
 8450TIP3    H149545   4.901   2.314   1.859  0.1044  2.7684 -1.2320
 8450TIP3    H249546   4.971   2.313   1.725 -0.0249 -0.9137 -1.3838
 8451TIP3   OH249547   2.017   6.685   1.705  0.3116  0.4264  0.3941
 8451TIP3    H149548   1.970   6.766   1.721  0.1855  0.1217  1.6402
 8451TIP3    H249549   2.047   6.692   1.614 -2.1655  0.5841 -0.4678
 8452TIP3   OH249550   3.568   5.543   1.151  0.2592  0.4850  0.2799
 8452TIP3    H149551   3.611   5.628   1.163  1.4114 -0.2166  1.2985
 8452TIP3    H249552   3.633   5.479   1.179 -0.8180 -0.7180  0.1117
 8453TIP3   OH249553   2.472   2.628   2.418 -0.1444  0.2344  0.5984
 8453TIP3    H149554   2.522   2.546   2.416  1.3681  1.1246  0.2046
 8453TIP3    H249555   2.384   2.602   2.445  0.0493 -1.6448 -0.3824
 8454TIP3   OH249556   6.788   4.672   2.161  0.1729  0.1780  0.4371
 8454TIP3    H149557   6.864   4.711   2.204  0.5938  1.4075 -1.3443
 8454TIP3    H249558   6.821   4.642   2.076 -0.9122 -1.0544  0.4158
 8455TIP3   OH249559   1.381   4.562   2.603 -0.2515 -0.0501  0.2875
 8455TIP3    H149560   1.392   4.490   2.665 -0.6690  0.4467  0.9651
 8455TIP3    H249561   1.399   4.641   2.655  3.1256  0.2691 -1.0969
 8456TIP3   OH249562   3.711   3.714   2.562  0.2157  0.3263 -0.5741
 8456TIP3    H149563   3.804   3.726   2.543  0.0202  1.8093 -0.7089
 8456TIP3    H249564   3.688   3.790   2.616 -0.9177 -0.0345 -0.5316
 8457TIP3   OH249565   1.609   5.946   0.896  0.1754  0.3709  0.4179
 8457TIP3    H149566   1.618   5.973   0.804  0.2964 -1.3553 -0.1227
 8457TIP3    H249567   1.538   6.000   0.930  0.9459  1.9036 -0.3324
 8458TIP3   OH249568   2.370   1.363   1.600  0.1569 -0.3313  0.2199
 8458TIP3    H149569   2.398   1.381   1.511 -0.7344 -1.3916 -0.2952
 8458TIP3    H249570   2.275   1.363   1.596  0.0470  1.2337  1.5286
 8459TIP3   OH249571   0.213   6.146   2.108 -0.2228 -0.4276 -0.0286
 8459TIP3    H149572   0.168   6.169   2.027 -1.3446  0.0756  0.7058
 8459TIP3    H249573   0.296   6.193   2.103 -0.1909 -0.5572 -0.9645
 8460TIP3   OH249574   6.482   5.518   0.679  0.0487  1.4350  0.0023
 8460TIP3    H149575   6.562   5.467   0.667  0.5253  1.9482  0.9249
 8460TIP3    H249576   6.473   5.568   0.597 -0.2289  0.1793 -0.7656
 8461TIP3   OH249577   7.367   3.703   0.574  0.4139 -0.2215 -0.0641
 8461TIP3    H149578   7.443   3.681   0.520  0.5938  0.8829 -0.2909
 8461TIP3    H249579   7.405   3.738   0.655  0.1593  0.4556 -0.2297
 8462TIP3   OH249580   6.565   5.114   1.579 -0.5385  0.1591 -0.6535
 8462TIP3    H149581   6.543   5.033   1.625  0.2258  0.0538 -0.4572
 8462TIP3    H249582   6.558   5.093   1.486  1.4083 -0.6606 -0.6468
 8463TIP3   OH249583   3.451   7.080   2.496 -0.4063 -0.1739  0.1606
 8463TIP3    H149584   3.503   7.043   2.566 -0.9085  0.9554  1.1674
 8463TIP3    H249585   3.500   7.158   2.468 -1.2904  0.6556  0.8263
 8464TIP3   OH249586   2.846   2.998   1.816 -0.1945  0.2156  0.2689
 8464TIP3    H149587   2.779   3.003   1.884 -0.6538 -0.3584 -0.1254
 8464TIP3    H249588   2.823   3.067   1.754 -1.2079 -0.8058 -0.5353
 8465TIP3   OH249589   0.892   2.484   0.755  0.2578  0.2295 -0.6779
 8465TIP3    H149590   0.927   2.477   0.844  0.1864  0.1338 -0.6576
 8465TIP3    H249591   0.897   2.395   0.720  2.1054  0.5880 -1.4589
 8466TIP3   OH249592   5.784   1.734   1.158  0.1996  0.2014  0.4902
 8466TIP3    H149593   5.823   1.779   1.233 -0.5828  0.8011  0.5469
 8466TIP3    H249594   5.775   1.643   1.188  0.4209  0.3128  0.9118
 8467TIP3   OH249595   3.997   7.376   1.497 -1.0607 -0.1256  0.0066
 8467TIP3    H149596   4.026   7.445   1.437  1.1585  0.2467  1.3926
 8467TIP3    H249597   4.043   7.298   1.467  1.2611  0.3776  1.9762
 8468TIP3   OH249598   0.284   1.951   3.316  0.6629 -0.0277 -0.1369
 8468TIP3    H149599   0.379   1.961   3.322  0.6420  1.0798 -1.2690
 8468TIP3    H249600   0.260   2.002   3.239 -0.8771 -0.1620  0.2356
 8469TIP3   OH249601   6.028   1.905   1.853 -0.0207  0.3139  0.5891
 8469TIP3    H149602   5.951   1.895   1.798  0.1846  0.2757  0.3027
 8469TIP3    H249603   6.041   2.000   1.858 -1.2289  0.4301  2.2656
 8470TIP3   OH249604   1.079   3.245   1.505 -0.2095 -0.0779  0.4342
 8470TIP3    H149605   0.986   3.240   1.530 -0.0534  1.5109  1.5073
 8470TIP3    H249606   1.113   3.157   1.522 -1.2471 -0.3390  1.2910
 8471TIP3   OH249607   3.579   1.416   0.536  0.3519  0.5665  0.0504
 8471TIP3    H149608   3.611   1.499   0.503  0.5410 -0.2491 -1.9368
 8471TIP3    H249609   3.640   1.351   0.502 -0.7827 -0.5546  0.0833
 8472TIP3   OH249610   1.116   1.825   1.529 -0.1680  0.1369 -0.3084
 8472TIP3    H149611   1.199   1.868   1.510 -0.0973 -0.0261 -0.3721
 8472TIP3    H249612   1.133   1.772   1.607  0.2122 -1.0731 -1.1728
 8473TIP3   OH249613   6.286   2.532   0.770  0.6264 -0.2538  0.7295
 8473TIP3    H149614   6.281   2.627   0.767  0.5683 -0.2710 -1.2624
 8473TIP3    H249615   6.209   2.505   0.820 -0.2150  0.7161 -0.0122
 8474TIP3   OH249616   0.428   3.302   2.416 -0.2120  0.5433  0.1389
 8474TIP3    H149617   0.338   3.275   2.397  0.0870  0.5044 -1.3289
 8474TIP3    H249618   0.478   3.275   2.339  1.2761 -0.3659  1.3649
 8475TIP3   OH249619   0.608   2.105   0.759  0.5000 -0.1910  0.4676
 8475TIP3    H149620   0.520   2.139   0.742  0.2471 -0.2631  1.6043
 8475TIP3    H249621   0.629   2.053   0.681 -0.0562  0.6194 -0.2520
 8476TIP3   OH249622   7.430   5.025   1.739 -0.0111  0.2196  0.1325
 8476TIP3    H149623   7.377   5.000   1.663 -0.1838 -0.8234  0.5779
 8476TIP3    H249624   7.511   5.059   1.702 -0.8034  1.4380 -0.5497
 8477TIP3   OH249625   2.387   7.032   2.709  0.3126 -0.3729  0.0229
 8477TIP3    H149626   2.377   7.103   2.773  2.6458  0.8526 -0.8250
 8477TIP3    H249627   2.412   6.956   2.761  0.1825  0.0685  0.7495
 8478TIP3   OH249628   4.547   3.592   2.396  0.0734 -0.3504 -0.6242
 8478TIP3    H149629   4.576   3.570   2.308  1.3523 -1.8803  0.1494
 8478TIP3    H249630   4.627   3.609   2.445 -0.6591  1.4691  0.0442
 8479TIP3   OH249631   1.160   2.990   1.585  0.0311 -0.8103 -0.1087
 8479TIP3    H149632   1.242   2.987   1.635  1.1741  0.5935 -1.8112
 8479TIP3    H249633   1.104   2.926   1.629  2.2969 -2.4469  0.6199
 8480TIP3   OH249634   5.095   3.385   2.542 -0.4471  0.7778 -0.6355
 8480TIP3    H149635   5.039   3.313   2.570  0.1434  0.4320 -0.3226
 8480TIP3    H249636   5.182   3.346   2.535  0.2832  1.8519  1.4362
 8481TIP3   OH249637   6.661   4.597   2.375 -0.1211  0.0834  0.1814
 8481TIP3    H149638   6.700   4.631   2.294  1.6803 -1.1207  0.4811
 8481TIP3    H249639   6.725   4.620   2.443 -0.2447 -1.3723  0.8120
 8482TIP3   OH249640   5.125   3.143   1.740  0.2423 -0.1401 -0.5805
 8482TIP3    H149641   5.212   3.162   1.706  0.4038  1.2984  0.5193
 8482TIP3    H249642   5.070   3.133   1.663  1.3894 -1.2502 -1.2960
 8483TIP3   OH249643   4.615   2.250   1.441  0.3255  0.1057  0.4584
 8483TIP3    H149644   4.639   2.176   1.495  1.8097  1.7417  2.1507
 8483TIP3    H249645   4.639   2.327   1.492  2.7379  1.7876 -2.8587
 8484TIP3   OH249646   1.014   1.824   2.410 -0.2499  0.1550 -0.1166
 8484TIP3    H149647   0.933   1.851   2.366  0.4913  1.1229 -0.9159
 8484TIP3    H249648   1.067   1.785   2.341 -0.9913 -2.8602  0.8563
 8485TIP3   OH249649   2.542   0.142   2.751  0.0657  0.3239 -0.2792
 8485TIP3    H149650   2.516   0.235   2.755 -0.1102  0.3531 -1.6980
 8485TIP3    H249651   2.559   0.126   2.659  2.3755 -0.4713  0.2379
 8486TIP3   OH249652   5.010   7.500   3.074  0.1224 -0.2568 -0.1188
 8486TIP3    H149653   5.004   7.404   3.073  0.8957 -0.3132 -0.3307
 8486TIP3    H249654   5.094   7.517   3.117  0.1624  0.3132 -0.4221
 8487TIP3   OH249655   4.440   7.091   1.041 -0.2834 -0.3829 -0.1013
 8487TIP3    H149656   4.357   7.088   0.994  0.0664  0.5303 -0.7964
 8487TIP3    H249657   4.468   7.182   1.036  0.5237 -0.5772  0.5512
 8488TIP3   OH249658   0.953   0.785   2.033 -0.2148  0.1470  0.2413
 8488TIP3    H149659   0.948   0.816   1.942 -0.8372  0.1697  0.2774
 8488TIP3    H249660   0.972   0.691   2.025 -1.2241 -0.0584  0.0498
 8489TIP3   OH249661   3.984   0.337   2.402  0.0405  0.4853 -0.1252
 8489TIP3    H149662   4.010   0.248   2.428  0.6914  0.6025 -0.3506
 8489TIP3    H249663   4.027   0.394   2.466  2.9458  0.8839 -2.2320
 8490TIP3   OH249664   5.732   1.166   1.488 -0.6104  0.1128  0.0087
 8490TIP3    H149665   5.749   1.093   1.548  0.2026 -0.6324 -1.0702
 8490TIP3    H249666   5.759   1.244   1.536  2.9284 -0.7141 -0.3654
 8491TIP3   OH249667   4.318   3.336   1.002 -0.1760  0.0582  0.3238
 8491TIP3    H149668   4.377   3.339   1.077 -0.3544 -1.2100  0.5359
 8491TIP3    H249669   4.369   3.294   0.933 -0.9124 -1.4224  0.6291
 8492TIP3   OH249670   2.450   6.690   1.781 -0.8639 -0.3188  0.4507
 8492TIP3    H149671   2.440   6.758   1.714  0.2647 -2.0421 -1.6104
 8492TIP3    H249672   2.516   6.725   1.841  0.1127  0.2240 -0.8898
 8493TIP3   OH249673   0.640   2.265   1.868 -0.0733 -0.5810  0.6595
 8493TIP3    H149674   0.733   2.273   1.888  0.2647 -1.7709 -0.2532
 8493TIP3    H249675   0.615   2.182   1.908 -1.0818  0.3359  1.9962
 8494TIP3   OH249676   4.723   1.103   1.928  0.3999  0.3855 -0.2220
 8494TIP3    H149677   4.662   1.147   1.986  1.2938 -0.3990  1.3792
 8494TIP3    H249678   4.792   1.168   1.911  1.0418  0.0678  1.0668
 8495TIP3   OH249679   4.166   1.884   2.253 -0.0746 -0.6608 -0.0376
 8495TIP3    H149680   4.089   1.901   2.307 -0.9271 -1.5795 -0.9046
 8495TIP3    H249681   4.240   1.903   2.310 -0.9390  0.1234  0.8632
 8496TIP3   OH249682   6.993   3.077   2.664 -0.7487  0.0874 -0.3225
 8496TIP3    H149683   6.962   3.162   2.695 -2.4449 -1.1494  1.7022
 8496TIP3    H249684   6.963   3.015   2.731  2.3078 -1.8795 -0.5712
 8497TIP3   OH249685   6.703   0.524   1.244 -0.0259 -0.4663 -0.6583
 8497TIP3    H149686   6.757   0.596   1.277  0.9531 -1.6129  0.2715
 8497TIP3    H249687   6.749   0.445   1.270 -2.7260 -1.5433  1.2465
 8498TIP3   OH249688   0.141   6.331   0.594  0.0074 -0.3478  0.3837
 8498TIP3    H149689   0.162   6.294   0.680 -0.5358 -0.0775  0.6311
 8498TIP3    H249690   0.217   6.386   0.573 -0.8508  1.4694  1.7553
 8499TIP3   OH249691   4.882   6.818   1.092 -0.0756  0.9359  0.3482
 8499TIP3    H149692   4.846   6.737   1.127 -0.3162  0.4352 -0.9703
 8499TIP3    H249693   4.820   6.886   1.118 -0.5080  0.5030  0.4599
 8500TIP3   OH249694   3.894   6.799   3.424 -0.1334 -0.5644  0.0050
 8500TIP3    H149695   3.825   6.832   3.481  0.9341  0.2211  0.8855
 8500TIP3    H249696   3.851   6.785   3.340 -1.1306  1.0108  0.2058
 8501TIP3   OH249697   2.280   5.382   0.533  0.5753  0.3580  0.4858
 8501TIP3    H149698   2.245   5.465   0.502  2.1502  0.2197 -1.9881
 8501TIP3    H249699   2.210   5.319   0.516  0.2853  0.8027 -0.0177
 8502TIP3   OH249700   2.906   4.234   0.355 -0.5834  0.0238 -0.8570
 8502TIP3    H149701   2.841   4.270   0.416  0.3755  1.4654 -0.6326
 8502TIP3    H249702   2.898   4.288   0.277  0.3836  0.2628 -0.7965
 8503TIP3   OH249703   2.923   5.536   1.575 -0.0699  0.1825  0.1714
 8503TIP3    H149704   2.925   5.549   1.480 -1.5144 -0.3049  0.0519
 8503TIP3    H249705   2.954   5.619   1.610  3.5715 -0.6376 -0.7030
 8504TIP3   OH249706   4.549   3.807   1.640 -0.4565 -0.1830  0.1644
 8504TIP3    H149707   4.578   3.825   1.729  0.0347 -2.5229  0.5405
 8504TIP3    H249708   4.464   3.765   1.650  0.5053 -2.3367 -0.2950
 8505TIP3   OH249709   7.264   4.932   2.686  0.2990  0.4329 -0.0357
 8505TIP3    H149710   7.250   4.944   2.780 -0.2480  1.0200 -0.1777
 8505TIP3    H249711   7.337   4.990   2.665  0.5161  0.1922  0.0501
 8506TIP3   OH249712   7.271   3.356   1.466 -0.9540  0.4844  0.0364
 8506TIP3    H149713   7.346   3.317   1.511 -0.1067  1.1884 -0.7500
 8506TIP3    H249714   7.275   3.320   1.378 -1.6986  0.3462  0.0477
 8507TIP3   OH249715   0.382   2.623   0.623 -0.4321 -0.3508  0.6420
 8507TIP3    H149716   0.312   2.563   0.650  0.1651 -1.1440  0.4287
 8507TIP3    H249717   0.463   2.582   0.655  0.3259 -1.3088 -2.2648
 8508TIP3   OH249718   0.816   0.619   1.276 -0.1404 -0.8054  0.2911
 8508TIP3    H149719   0.853   0.537   1.242 -1.0439 -1.8952  1.8164
 8508TIP3    H249720   0.840   0.620   1.368  0.2437  0.9111  0.2100
 8509TIP3   OH249721   7.568   3.005   2.772 -0.0103 -0.3346  0.0326
 8509TIP3    H149722   7.588   3.036   2.860  2.7091 -0.9616 -0.2685
 8509TIP3    H249723   7.481   3.040   2.753 -0.4972  0.1604  2.7794
 8510TIP3   OH249724   0.145   3.054   1.784  0.1913  0.5459 -0.4466
 8510TIP3    H149725   0.102   2.981   1.739 -0.6165 -0.0935  1.2495
 8510TIP3    H249726   0.227   3.067   1.737  0.3863 -1.5286 -0.7620
 8511TIP3   OH249727   3.976   6.755   1.703  0.3245  0.0166 -0.4897
 8511TIP3    H149728   3.947   6.842   1.676  1.1998 -0.2077 -2.3053
 8511TIP3    H249729   3.914   6.695   1.663 -1.2632 -0.2128  2.1004
 8512TIP3   OH249730   6.031   0.859   0.600 -0.2640  0.1746 -0.4607
 8512TIP3    H149731   6.012   0.836   0.691 -0.7700  3.0370  0.2640
 8512TIP3    H249732   5.946   0.858   0.556 -0.0140 -1.2625 -0.9758
 8513TIP3   OH249733   3.906   2.487   0.844  0.0877  0.5235 -0.6381
 8513TIP3    H149734   3.924   2.395   0.863 -0.8544  0.2556 -0.9469
 8513TIP3    H249735   3.991   2.525   0.824  0.5154 -0.2351 -0.2931
 8514TIP3   OH249736   5.447   5.029   2.674  0.5724  0.1755  0.2690
 8514TIP3    H149737   5.403   5.026   2.589  1.2243 -0.6216 -0.0497
 8514TIP3    H249738   5.381   4.996   2.735 -0.1239  1.3633  0.1868
 8515TIP3   OH249739   6.961   0.419   1.903 -0.1680 -0.3187 -0.0085
 8515TIP3    H149740   6.963   0.356   1.975  0.6818  0.4466  0.6573
 8515TIP3    H249741   7.015   0.492   1.933  2.8485 -1.2591 -2.5855
 8516TIP3   OH249742   3.031   6.293   1.987  0.9583  0.1965  0.2366
 8516TIP3    H149743   2.987   6.369   1.949  0.6203  0.7549  1.6873
 8516TIP3    H249744   3.123   6.306   1.966  0.5609 -0.9630 -2.7994
 8517TIP3   OH249745   6.468   6.006   0.721 -0.6414  0.4000 -0.3108
 8517TIP3    H149746   6.490   6.029   0.631  0.8956  0.0599 -0.0609
 8517TIP3    H249747   6.542   5.952   0.750 -0.9852  0.7149  1.2267
 8518TIP3   OH249748   1.467   1.791   0.504 -0.0661  0.0836 -0.1278
 8518TIP3    H149749   1.444   1.715   0.452  0.3081  0.5657 -1.0252
 8518TIP3    H249750   1.558   1.776   0.531 -0.4084 -0.3884  0.8167
 8519TIP3   OH249751   6.176   6.957   2.098  0.5006  0.0755 -0.0475
 8519TIP3    H149752   6.160   7.030   2.158 -0.0872  0.2505 -0.4171
 8519TIP3    H249753   6.249   6.986   2.044  1.1971 -0.1798  0.7345
 8520TIP3   OH249754   7.340   5.654   1.117  0.2169  0.8219 -0.5001
 8520TIP3    H149755   7.387   5.574   1.094 -0.7334  0.6054 -1.7535
 8520TIP3    H249756   7.409   5.719   1.132  0.9923 -0.1564  0.3458
 8521TIP3   OH249757   4.796   6.133   2.088  0.4650 -0.2432  0.2026
 8521TIP3    H149758   4.833   6.109   2.003  1.3146  1.5875 -0.0011
 8521TIP3    H249759   4.819   6.060   2.146  1.2551 -0.7996 -0.7763
 8522TIP3   OH249760   2.722   0.632   2.556  0.0917 -0.5622  0.8409
 8522TIP3    H149761   2.755   0.651   2.644  3.7776  0.2697 -0.5720
 8522TIP3    H249762   2.741   0.539   2.543 -0.3543 -0.6588  0.8469
 8523TIP3   OH249763   6.643   2.381   1.460 -0.2633 -0.1152 -0.0683
 8523TIP3    H149764   6.562   2.360   1.506 -0.8432  0.6849 -0.6802
 8523TIP3    H249765   6.618   2.454   1.402  1.1033  0.7395  0.3796
 8524TIP3   OH249766   6.721   1.579   2.262  0.2813 -0.0959  0.2907
 8524TIP3    H149767   6.747   1.571   2.354 -0.8351 -0.7286  0.5625
 8524TIP3    H249768   6.801   1.558   2.213  0.7217 -0.3648  1.1041
 8525TIP3   OH249769   3.970   3.547   2.186  0.0058  0.0637  0.4401
 8525TIP3    H149770   4.005   3.567   2.273 -1.0189 -0.2270  0.9370
 8525TIP3    H249771   4.010   3.611   2.128  0.0021  0.8466  1.2888
 8526TIP3   OH249772   6.720   5.233   1.772 -0.2311 -0.0053 -0.6075
 8526TIP3    H149773   6.812   5.235   1.747  0.0154 -1.2877  0.1383
 8526TIP3    H249774   6.676   5.190   1.699  0.2704 -2.3847  0.4146
 8527TIP3   OH249775   1.184   3.158   3.590 -0.0356  0.4178 -0.5928
 8527TIP3    H149776   1.134   3.198   3.520 -0.1068  1.2758 -0.0608
 8527TIP3    H249777   1.118   3.128   3.653 -0.0167 -0.9880 -1.1886
 8528TIP3   OH249778   6.494   3.779   2.512 -0.2676 -0.4909  0.1170
 8528TIP3    H149779   6.579   3.749   2.481 -0.8390  0.1740 -2.3579
 8528TIP3    H249780   6.515   3.850   2.573  0.9941  0.4226 -1.2953
 8529TIP3   OH249781   0.889   6.256   2.135  0.3559  0.1995  0.2912
 8529TIP3    H149782   0.931   6.243   2.220 -1.2162 -0.3630  1.0267
 8529TIP3    H249783   0.827   6.184   2.128  1.2814 -0.4761 -1.9104
 8530TIP3   OH249784   3.149   0.571   2.188  0.6971 -0.4336 -0.7322
 8530TIP3    H149785   3.121   0.533   2.272  0.8783  1.2038  0.1159
 8530TIP3    H249786   3.077   0.552   2.128  0.2498 -1.0318 -0.0291
 8531TIP3   OH249787   2.152   7.509   0.655  0.2420 -0.4805  0.7790
 8531TIP3    H149788   2.214   7.489   0.585  1.0366 -1.4668  1.7141
 8531TIP3    H249789   2.204   7.501   0.735 -0.6733  0.4849  1.4954
 8532TIP3   OH249790   4.974   5.529   1.447 -0.1684 -0.5603 -0.1457
 8532TIP3    H149791   5.053   5.508   1.398  0.7474  1.1322  0.5404
 8532TIP3    H249792   4.926   5.590   1.390 -0.0006 -0.0367  0.2673
 8533TIP3   OH249793   5.758   2.004   1.023 -0.2427 -0.0759 -0.0753
 8533TIP3    H149794   5.841   2.025   0.980  0.6072 -1.4621  0.7962
 8533TIP3    H249795   5.770   1.914   1.055 -1.5003  0.2622  1.4492
 8534TIP3   OH249796   4.586   5.690   1.238 -0.0725 -0.5011  0.5736
 8534TIP3    H149797   4.510   5.670   1.293  1.9349 -1.7730  3.0872
 8534TIP3    H249798   4.550   5.741   1.166 -3.3218 -1.2016  1.5307
 8535TIP3   OH249799   4.644   1.180   3.740  0.1091  0.1117 -0.4105
 8535TIP3    H149800   4.617   1.261   3.783  0.3572 -0.6938  1.3484
 8535TIP3    H249801   4.633   1.198   3.647  1.4638  2.6539 -0.1739
 8536TIP3   OH249802   5.590   0.819   1.595  0.1819 -0.5268 -0.1306
 8536TIP3    H149803   5.514   0.762   1.607 -1.3026  1.1997 -0.8757
 8536TIP3    H249804   5.665   0.759   1.594 -1.3218 -2.5083 -1.3131
 8537TIP3   OH249805   6.116   1.260   1.986 -0.0542  0.3098 -0.8743
 8537TIP3    H149806   6.178   1.220   1.924 -1.4719 -1.3007 -1.3516
 8537TIP3    H249807   6.088   1.187   2.042  0.0778  1.4448  0.7059
 8538TIP3   OH249808   5.690   0.529   2.844 -0.0388  0.0394  0.2176
 8538TIP3    H149809   5.719   0.616   2.870  0.3569 -0.2864  0.9268
 8538TIP3    H249810   5.596   0.528   2.862  0.3742 -0.5208  2.8160
 8539TIP3   OH249811   6.679   4.490   1.848 -0.3963  0.1645  0.6611
 8539TIP3    H149812   6.675   4.507   1.754 -1.2006 -0.4136  0.5774
 8539TIP3    H249813   6.587   4.490   1.876 -0.1293  1.2757  1.6295
 8540TIP3   OH249814   6.379   7.427   1.660 -0.3532  0.0157 -0.0117
 8540TIP3    H149815   6.451   7.463   1.711  1.0535 -0.9698 -1.1956
 8540TIP3    H249816   6.408   7.434   1.569 -1.3084 -1.3560 -0.4601
 8541TIP3   OH249817   2.814   5.802   1.269  0.5354 -0.7104  0.3621
 8541TIP3    H149818   2.795   5.721   1.221  1.4024 -2.1662  2.3533
 8541TIP3    H249819   2.728   5.842   1.282 -0.0374 -1.8095  0.1697
 8542TIP3   OH249820   5.310   3.887   2.350 -0.0269 -0.0442  0.9527
 8542TIP3    H149821   5.339   3.815   2.407  0.1245 -0.9220 -0.1927
 8542TIP3    H249822   5.220   3.865   2.327 -0.3812  0.7536  1.5152
 8543TIP3   OH249823   1.017   6.050   2.797  0.1101 -0.3794 -0.7448
 8543TIP3    H149824   0.979   5.962   2.789 -1.4117  0.0562  1.0382
 8543TIP3    H249825   0.946   6.105   2.830  1.6378  0.9999  0.4619
 8544TIP3   OH249826   0.162   1.876   0.709 -0.1292 -0.1402  0.3520
 8544TIP3    H149827   0.218   1.800   0.694 -1.2000 -0.5563 -1.9751
 8544TIP3    H249828   0.077   1.849   0.676 -1.0758  1.3619  1.4744
 8545TIP3   OH249829   5.202   0.429   2.072  0.1089  0.4333 -0.3180
 8545TIP3    H149830   5.167   0.475   2.149  0.3207 -0.5266  0.3659
 8545TIP3    H249831   5.124   0.408   2.020  0.1137  3.1026 -1.5802
 8546TIP3   OH249832   6.135   5.211   1.863  0.2499  0.2095  0.4728
 8546TIP3    H149833   6.096   5.124   1.872 -0.2706  0.3006 -0.7578
 8546TIP3    H249834   6.204   5.200   1.798 -1.9357  1.3014 -2.2547
 8547TIP3   OH249835   1.910   2.502   2.881  0.5524 -0.1510 -0.7163
 8547TIP3    H149836   1.863   2.578   2.914  0.3457 -0.4760 -0.2386
 8547TIP3    H249837   1.936   2.454   2.960  1.6322 -0.0098 -0.9726
 8548TIP3   OH249838   6.516   5.609   2.077  0.5392 -0.3186 -0.9844
 8548TIP3    H149839   6.499   5.580   2.167  0.8709  0.9583 -0.4887
 8548TIP3    H249840   6.528   5.527   2.028 -0.7170 -1.0704 -0.1063
 8549TIP3   OH249841   1.327   0.932   1.730  0.2714 -0.0237 -0.0976
 8549TIP3    H149842   1.412   0.898   1.701 -0.5802 -0.7719 -1.8615
 8549TIP3    H249843   1.319   0.901   1.820  0.6573 -2.4308 -0.8187
 8550TIP3   OH249844   0.525   3.939   9.057 -0.0679 -0.4275 -0.2878
 8550TIP3    H149845   0.607   3.957   9.010 -0.2030  0.0789 -0.3339
 8550TIP3    H249846   0.526   3.998   9.132 -0.5800 -0.1253 -0.5115
 8551TIP3   OH249847   4.142   0.952   1.412 -0.7578 -0.3982 -0.2670
 8551TIP3    H149848   4.102   0.892   1.349 -0.9643  1.1189 -1.6871
 8551TIP3    H249849   4.087   0.946   1.490 -2.8706  0.4289 -1.5859
 8552TIP3   OH249850   2.193   1.246   2.442 -0.2644 -0.3024 -0.0651
 8552TIP3    H149851   2.222   1.285   2.524 -0.3999 -0.7059  0.1773
 8552TIP3    H249852   2.226   1.156   2.445 -1.8406 -0.8920  0.3906
 8553TIP3   OH249853   1.394   1.953   2.100 -0.3251 -0.2046  0.4653
 8553TIP3    H149854   1.434   1.869   2.120 -1.3602 -1.4943 -2.3554
 8553TIP3    H249855   1.454   1.995   2.039 -0.8319  0.1385  0.1909
 8554TIP3   OH249856   2.069   4.215   1.297 -0.5490  0.4179 -0.6973
 8554TIP3    H149857   2.122   4.291   1.271  2.5970 -1.5803 -0.6398
 8554TIP3    H249858   2.006   4.250   1.360  0.6366  2.9798 -0.8029
 8555TIP3   OH249859   1.054   0.488   2.101 -0.3210 -0.1785  0.6692
 8555TIP3    H149860   1.127   0.426   2.095 -0.7964 -0.7492  0.7340
 8555TIP3    H249861   0.988   0.454   2.041  0.3816  1.6433 -1.2593
 8556TIP3   OH249862   2.327   2.225   2.642  0.2460  0.1974 -0.1391
 8556TIP3    H149863   2.282   2.147   2.675 -0.8585  0.7228 -0.3476
 8556TIP3    H249864   2.411   2.226   2.688 -0.8457  0.3969  1.9793
 8557TIP3   OH249865   3.741   3.208   3.246 -0.4213  0.1914 -0.2155
 8557TIP3    H149866   3.762   3.115   3.246  0.6047  0.4101  0.4213
 8557TIP3    H249867   3.663   3.215   3.191 -1.2047 -1.1972  0.6669
 8558TIP3   OH249868   1.906   0.114   0.807  0.2172 -0.0783  0.0041
 8558TIP3    H149869   1.982   0.095   0.863  0.4241  1.3981  0.2649
 8558TIP3    H249870   1.897   0.209   0.811 -0.0144  0.0444 -2.1630
 8559TIP3   OH249871   2.047   4.560   2.350  0.0252  0.2391 -0.1020
 8559TIP3    H149872   2.083   4.551   2.261  0.0683  0.5312 -0.1148
 8559TIP3    H249873   1.956   4.586   2.336 -0.3793 -1.0679 -0.0803
 8560TIP3   OH249874   4.029   0.753   1.240  0.0918  0.9202  0.2726
 8560TIP3    H149875   4.101   0.707   1.196  1.3659  2.2393  0.8772
 8560TIP3    H249876   3.950   0.723   1.194  0.7816 -1.9763  0.7530
 8561TIP3   OH249877   1.253   2.065   3.385 -0.2083  0.6808 -0.4437
 8561TIP3    H149878   1.299   1.988   3.420 -0.1287  1.1717  0.5596
 8561TIP3    H249879   1.217   2.109   3.462 -0.7131  1.3694 -1.0540
 8562TIP3   OH249880   4.459   3.531   8.087  0.1023  0.0473 -0.2202
 8562TIP3    H149881   4.398   3.535   8.161 -1.0353 -0.5784 -1.0825
 8562TIP3    H249882   4.447   3.614   8.041 -1.0340 -0.5479 -1.0618
 8563TIP3   OH249883   1.541   6.479   0.925  0.0702 -0.2181 -0.6083
 8563TIP3    H149884   1.445   6.479   0.930  0.0015  2.3805 -0.3561
 8563TIP3    H249885   1.570   6.481   1.016  0.3510 -0.3747 -0.6922
 8564TIP3   OH249886   2.325   5.859   0.662  0.2094  0.2597  0.4645
 8564TIP3    H149887   2.387   5.801   0.705 -0.6716 -1.6499 -0.7325
 8564TIP3    H249888   2.377   5.906   0.597  0.7036 -0.1115  0.5864
 8565TIP3   OH249889   0.323   2.819   0.437 -0.1765  0.1062 -0.3005
 8565TIP3    H149890   0.305   2.761   0.511  1.1738 -0.3610 -0.3107
 8565TIP3    H249891   0.393   2.877   0.468  0.4378 -0.1224 -1.2230
 8566TIP3   OH249892   1.559   6.685   1.668  0.2364 -0.4316  0.8758
 8566TIP3    H149893   1.504   6.700   1.746  0.7551  1.6265  0.9199
 8566TIP3    H249894   1.647   6.674   1.703  0.1416 -1.8263  0.6945
 8567TIP3   OH249895   2.778   5.003   2.252 -0.7292  0.1161 -0.3285
 8567TIP3    H149896   2.688   4.999   2.221 -1.2431 -0.3759  1.1645
 8567TIP3    H249897   2.821   4.928   2.211 -1.3550 -0.4394  0.0301
 8568TIP3   OH249898   4.031   1.142   0.655 -0.5389 -0.0622 -0.1394
 8568TIP3    H149899   4.110   1.191   0.678 -1.0536  0.5396  0.3567
 8568TIP3    H249900   4.032   1.138   0.559 -0.5669  1.0554 -0.1988
 8569TIP3   OH249901   4.623   7.356   1.923 -0.5829  0.1660 -0.5681
 8569TIP3    H149902   4.704   7.398   1.896  0.0639 -1.0375 -0.6076
 8569TIP3    H249903   4.638   7.332   2.015 -0.5597 -0.7612 -0.7979
 8570TIP3   OH249904   1.484   5.431   1.411 -0.1497  0.2577  0.2202
 8570TIP3    H149905   1.555   5.483   1.373 -0.9138  0.7668 -0.5538
 8570TIP3    H249906   1.529   5.363   1.461  0.8787  1.3444  0.8434
 8571TIP3   OH249907   5.910   0.139   3.412 -0.3365  0.0988  0.0488
 8571TIP3    H149908   5.866   0.192   3.345 -0.7103 -2.3471 -1.7902
 8571TIP3    H249909   5.890   0.048   3.387  0.6278 -0.9520  2.7667
 8572TIP3   OH249910   5.839   2.101   2.314  0.0755 -0.2885  0.3922
 8572TIP3    H149911   5.754   2.095   2.271 -0.3571  2.4832  0.6622
 8572TIP3    H249912   5.892   2.155   2.255 -0.0375  2.2930  2.4646
 8573TIP3   OH249913   3.426   3.022   0.962 -0.0503 -0.4973 -0.2117
 8573TIP3    H149914   3.372   3.083   1.011  1.1053  0.4609 -0.0930
 8573TIP3    H249915   3.416   3.048   0.870  0.2865 -0.2514 -0.1798
 8574TIP3   OH249916   5.390   0.212   2.047 -0.0249  0.3792  0.3010
 8574TIP3    H149917   5.331   0.288   2.047 -1.2092 -0.5105 -0.2383
 8574TIP3    H249918   5.449   0.228   2.121 -1.3469  1.0130  1.2644
 8575TIP3   OH249919   0.417   7.329   2.937 -0.6174 -0.1875  0.5571
 8575TIP3    H149920   0.445   7.239   2.949 -1.6539 -0.7007 -0.6635
 8575TIP3    H249921   0.499   7.378   2.929 -0.0430 -0.9831  1.3624
 8576TIP3   OH249922   4.642   5.002   1.753 -0.6760  0.1897 -0.2744
 8576TIP3    H149923   4.636   5.086   1.706  2.5824  1.5393  1.3962
 8576TIP3    H249924   4.706   4.951   1.702 -0.7151 -0.2496  0.1108
 8577TIP3   OH249925   3.861   3.212   2.252 -1.1584 -0.2248 -0.1165
 8577TIP3    H149926   3.947   3.230   2.292 -2.4975 -0.8559  3.4546
 8577TIP3    H249927   3.870   3.123   2.218 -0.3628 -0.2614  0.1516
 8578TIP3   OH249928   1.278   7.479   1.863  0.2530 -0.1715 -0.1757
 8578TIP3    H149929   1.273   7.574   1.863  1.6979 -0.0719  0.1737
 8578TIP3    H249930   1.358   7.459   1.813  0.4274 -1.1589  0.4659
 8579TIP3   OH249931   0.518   2.545   1.177  0.3814 -0.2743 -0.1243
 8579TIP3    H149932   0.609   2.524   1.153  0.5620  2.4083 -2.3115
 8579TIP3    H249933   0.527   2.607   1.249  0.1545 -1.6480  1.1178
 8580TIP3   OH249934   7.462   2.968   1.967 -0.0670 -0.1928  0.0619
 8580TIP3    H149935   7.410   3.045   1.990  3.1866  2.0942  0.2910
 8580TIP3    H249936   7.480   2.978   1.873  0.0775 -0.8902  0.0095
 8581TIP3   OH249937   1.232   1.270   2.355  0.0218 -0.1711  0.7245
 8581TIP3    H149938   1.282   1.347   2.382 -0.0085  0.1778 -0.1963
 8581TIP3    H249939   1.171   1.255   2.427  0.2424  0.4751  1.0545
 8582TIP3   OH249940   3.050   3.875   1.015  0.3363  0.2185 -0.2898
 8582TIP3    H149941   3.066   3.784   1.041 -0.7836 -0.6943 -2.5090
 8582TIP3    H249942   3.074   3.926   1.092 -0.0871 -2.0144  1.4432
 8583TIP3   OH249943   4.924   3.698   3.340 -0.3842 -0.6553  0.1083
 8583TIP3    H149944   4.919   3.679   3.246  2.6697  3.5554 -1.1742
 8583TIP3    H249945   4.889   3.786   3.349 -0.0788 -0.7346  2.8846
 8584TIP3   OH249946   6.931   7.391   0.490  0.8573 -0.0788 -0.3369
 8584TIP3    H149947   6.889   7.475   0.472 -0.0070 -0.3754  0.2443
 8584TIP3    H249948   7.025   7.411   0.486  0.6824  1.1699  0.8412
 8585TIP3   OH249949   3.869   1.875   0.362 -0.0356  0.8318  0.5997
 8585TIP3    H149950   3.884   1.896   0.270  1.0636 -1.1183  0.2933
 8585TIP3    H249951   3.943   1.914   0.408  0.3804  0.2604  0.4202
 8586TIP3   OH249952   7.393   2.230   1.300 -0.5472  0.2285 -0.1699
 8586TIP3    H149953   7.332   2.229   1.374 -0.9752  1.0279 -0.4985
 8586TIP3    H249954   7.346   2.184   1.230  0.8481 -2.8998  0.7522
 8587TIP3   OH249955   7.228   5.836   1.663 -0.5218 -0.1358 -0.2532
 8587TIP3    H149956   7.280   5.866   1.737  0.0186 -0.5452 -0.4627
 8587TIP3    H249957   7.153   5.896   1.660  0.0152  0.5516 -0.0500
 8588TIP3   OH249958   6.329   2.664   2.068  0.1958 -0.7718  0.1139
 8588TIP3    H149959   6.419   2.692   2.050  0.3607  0.0280  1.8880
 8588TIP3    H249960   6.276   2.739   2.042  0.1208 -0.9285 -0.1833
 8589TIP3   OH249961   1.855   7.559   2.674  0.0271 -0.3169  0.1785
 8589TIP3    H149962   1.934   7.611   2.659 -0.7512  0.8369 -0.0740
 8589TIP3    H249963   1.785   7.623   2.680 -1.0621 -1.3726 -0.6673
 8590TIP3   OH249964   4.135   3.177   1.429 -0.6458  0.0417 -0.2652
 8590TIP3    H149965   4.123   3.271   1.438  0.9260  0.2619 -0.0601
 8590TIP3    H249966   4.138   3.162   1.335 -2.9690 -0.1456 -0.3587
 8591TIP3   OH249967   4.217   6.801   2.423 -1.0076  0.1612 -0.1872
 8591TIP3    H149968   4.306   6.788   2.390 -1.7753 -1.5716 -1.7603
 8591TIP3    H249969   4.171   6.848   2.353 -1.6906 -0.2116 -0.0024
 8592TIP3   OH249970   0.042   1.895   3.045  0.9711  0.3308  0.1829
 8592TIP3    H149971   0.107   1.966   3.053  2.6493 -1.2045  0.9621
 8592TIP3    H249972  -0.029   1.921   3.103  2.0918  0.8618  1.3730
 8593TIP3   OH249973   4.148   1.524   2.155  0.3251 -0.3098 -0.2020
 8593TIP3    H149974   4.082   1.461   2.126 -0.8813  0.7341  0.1576
 8593TIP3    H249975   4.104   1.575   2.224  1.3655  0.6986 -0.2480
 8594TIP3   OH249976   5.199   2.042   2.312 -0.4044 -0.1879  0.1214
 8594TIP3    H149977   5.154   2.125   2.303  0.9113  0.2978 -3.6538
 8594TIP3    H249978   5.262   2.056   2.383 -2.0264  1.0719  1.3780
 8595TIP3   OH249979   5.994   1.875   3.020 -0.3307  0.0057 -0.6564
 8595TIP3    H149980   5.913   1.912   2.985 -1.6087 -1.9371  0.0752
 8595TIP3    H249981   5.965   1.802   3.076  1.7868  0.7252  1.5653
 8596TIP3   OH249982   0.393   2.724   1.993 -0.7116  0.3632  0.6081
 8596TIP3    H149983   0.322   2.661   1.993 -0.2798 -0.1381 -0.2903
 8596TIP3    H249984   0.471   2.672   1.974 -0.1167  0.9246  1.4203
 8597TIP3   OH249985   5.551   7.001   2.820  0.3685  0.3529  0.1633
 8597TIP3    H149986   5.646   6.998   2.832  0.3747  0.3492  0.1104
 8597TIP3    H249987   5.522   6.912   2.838  0.4592  0.1690 -0.5612
 8598TIP3   OH249988   3.142   0.841   2.848 -0.4165  0.2455 -0.3424
 8598TIP3    H149989   3.176   0.851   2.937  0.1623 -0.3218 -0.4894
 8598TIP3    H249990   3.137   0.930   2.814  1.3567  0.3525 -0.4569
 8599TIP3   OH249991   1.027   4.305   0.379  0.4980  0.2721 -0.1452
 8599TIP3    H149992   0.946   4.257   0.363  1.4370 -1.7438  0.7784
 8599TIP3    H249993   1.017   4.341   0.468  1.1294 -1.2029  0.5582
 8600TIP3   OH249994   7.524   4.414   2.369  0.0120  0.1445 -0.2817
 8600TIP3    H149995   7.437   4.435   2.404  0.0800  0.2203 -0.1567
 8600TIP3    H249996   7.585   4.448   2.435  0.2066  1.9972 -1.3293
 8601TIP3   OH249997   2.250   0.742   1.729 -0.1263  0.6575  0.6649
 8601TIP3    H149998   2.272   0.830   1.700 -1.4073  0.6373 -0.4731
 8601TIP3    H249999   2.166   0.723   1.687 -0.3308 -0.7527  1.6314
 8602TIP3   OH250000   4.691   7.380   0.531  0.0828  0.2076  0.1252
 8602TIP3    H150001   4.613   7.353   0.580 -0.8586  0.2250 -1.3147
 8602TIP3    H250002   4.742   7.300   0.521 -1.6502 -0.7369 -2.2415
 8603TIP3   OH250003   1.880   4.473   3.165  0.0886  0.1175  0.6630
 8603TIP3    H150004   1.847   4.516   3.087  2.2600 -0.7242 -0.8250
 8603TIP3    H250005   1.866   4.380   3.149  0.2746 -0.0513  1.4314
 8604TIP3   OH250006   4.596   5.676   0.759 -0.3500 -0.2659  0.1048
 8604TIP3    H150007   4.574   5.767   0.777  0.6866  0.2953 -1.3655
 8604TIP3    H250008   4.690   5.677   0.739 -0.8992 -1.1382 -2.9487
 8605TIP3   OH250009   3.071   4.166   2.320 -0.0752 -0.3513 -0.3822
 8605TIP3    H150010   3.019   4.119   2.384  0.5209 -0.2908  0.1618
 8605TIP3    H250011   3.093   4.249   2.362 -1.0051  0.3772 -1.2823
 8606TIP3   OH250012   3.260   6.954   1.357 -0.5774 -0.4782 -0.1921
 8606TIP3    H150013   3.288   7.046   1.361 -0.1659 -0.5886 -0.3726
 8606TIP3    H250014   3.334   6.910   1.315 -1.7008 -0.5035 -2.2882
 8607TIP3   OH250015   5.952   5.399   1.741  0.0776 -0.0187 -0.7157
 8607TIP3    H150016   5.974   5.314   1.777 -0.5044  0.0126 -0.2668
 8607TIP3    H250017   5.925   5.451   1.817 -0.6878  0.2046 -1.1271
 8608TIP3   OH250018   4.869   2.258   3.126  0.4048 -0.3222  0.1976
 8608TIP3    H150019   4.856   2.346   3.162  0.8626 -0.4188  0.6038
 8608TIP3    H250020   4.897   2.206   3.201  4.8643  0.2182 -0.8342
 8609TIP3   OH250021   0.275   0.123   2.141  0.4388  0.4248  0.5376
 8609TIP3    H150022   0.241   0.117   2.052 -1.5179  0.4621  1.2232
 8609TIP3    H250023   0.326   0.043   2.153 -0.3017 -0.1768 -0.2241
 8610TIP3   OH250024   6.426   6.531   1.198 -0.3862 -0.1368  0.3852
 8610TIP3    H150025   6.422   6.520   1.293  0.4047  0.0715  0.4499
 8610TIP3    H250026   6.415   6.443   1.163 -0.0632 -0.3022  0.6949
 8611TIP3   OH250027   4.475   6.430   2.658 -0.2279 -0.1424  0.2089
 8611TIP3    H150028   4.409   6.491   2.692  1.2158  0.0157  3.0675
 8611TIP3    H250029   4.551   6.486   2.640 -0.3282 -0.5333 -1.5948
 8612TIP3   OH250030   7.066   4.441   1.947 -0.4591 -0.5451  0.5233
 8612TIP3    H150031   7.122   4.503   1.994 -0.0596 -0.8991  0.5128
 8612TIP3    H250032   7.125   4.372   1.918 -0.7559 -0.4733 -0.2582
 8613TIP3   OH250033   3.825   6.143   1.498  0.2754 -0.0263  0.0491
 8613TIP3    H150034   3.769   6.219   1.482 -0.8748 -0.1682  2.7762
 8613TIP3    H250035   3.763   6.070   1.506  0.4706  0.0078  4.4291
 8614TIP3   OH250036   4.583   1.804   2.759  0.8620  0.4019 -0.1485
 8614TIP3    H150037   4.621   1.718   2.739  2.0409  0.9126 -0.1756
 8614TIP3    H250038   4.642   1.867   2.716  0.3447  1.2476  0.3598
 8615TIP3   OH250039   5.237   6.416   2.271 -0.2681  0.1675  0.3161
 8615TIP3    H150040   5.197   6.493   2.230 -0.8615 -0.1755  0.2364
 8615TIP3    H250041   5.261   6.359   2.199  0.6052  0.4712  0.3501
 8616TIP3   OH250042   5.722   1.248   2.570 -0.3376 -0.0531 -0.7709
 8616TIP3    H150043   5.730   1.329   2.519 -0.7042  0.5089  0.0512
 8616TIP3    H250044   5.811   1.228   2.597 -0.2710  0.1766 -0.8198
 8617TIP3   OH250045   5.734   1.701   2.007 -0.0689  0.0051  0.0073
 8617TIP3    H150046   5.705   1.789   1.984 -0.0937  0.0610  0.2535
 8617TIP3    H250047   5.829   1.705   2.003  0.0113  0.5377  1.8068
 8618TIP3   OH250048   7.065   7.522   0.833  0.1601 -0.3206 -0.0850
 8618TIP3    H150049   6.991   7.515   0.893 -0.2682 -1.1001 -0.6879
 8618TIP3    H250050   7.073   7.616   0.815 -1.1616 -0.2868 -0.5940
 8619TIP3   OH250051   0.272   1.320   1.780 -0.6095 -0.7193 -0.4181
 8619TIP3    H150052   0.196   1.371   1.752 -0.9268 -0.2752  1.1710
 8619TIP3    H250053   0.347   1.373   1.754 -0.7954 -1.3673 -2.4000
 8620TIP3   OH250054   1.953   3.013   3.100  0.4178  0.1611  0.0500
 8620TIP3    H150055   1.865   3.032   3.131 -0.5960 -0.0992 -2.4190
 8620TIP3    H250056   2.010   3.065   3.157 -1.1128 -0.9508  2.8248
 8621TIP3   OH250057   2.547   3.278   1.476 -0.3731 -0.0809  0.1023
 8621TIP3    H150058   2.568   3.227   1.398 -1.3747 -1.2802  0.5825
 8621TIP3    H250059   2.453   3.295   1.468 -0.4571 -0.1217  0.9845
 8622TIP3   OH250060   0.508   3.328   1.622  0.0517  0.3729  0.7609
 8622TIP3    H150061   0.426   3.372   1.643 -0.1041  0.7445 -0.5619
 8622TIP3    H250062   0.507   3.249   1.677 -1.7280 -0.2145 -0.0327
 8623TIP3   OH250063   6.738   2.081   0.784  0.5505 -0.3113  0.4473
 8623TIP3    H150064   6.832   2.071   0.769  1.0135  3.7856 -0.4943
 8623TIP3    H250065   6.724   2.175   0.789 -3.7424 -0.6494 -0.8333
 8624TIP3   OH250066   5.624   3.910   1.365 -0.4101 -0.4271 -0.9157
 8624TIP3    H150067   5.687   3.856   1.317 -1.3743 -0.0205 -2.7171
 8624TIP3    H250068   5.649   4.000   1.345  0.0116 -0.1940  0.5170
 8625TIP3   OH250069   0.909   1.818   0.944  0.3429 -1.2510 -0.0130
 8625TIP3    H150070   0.878   1.908   0.952  0.5233 -1.1819 -0.0803
 8625TIP3    H250071   1.005   1.826   0.942  0.3497 -1.4082 -0.4345
 8626TIP3   OH250072   1.716   1.477   0.539  1.1865  0.1299 -0.1859
 8626TIP3    H150073   1.746   1.392   0.506  0.8583  0.0512 -0.2871
 8626TIP3    H250074   1.644   1.455   0.599 -0.4416  0.4270 -1.9122
 8627TIP3   OH250075   5.536   3.520   2.904  0.3062  0.2667 -0.8801
 8627TIP3    H150076   5.571   3.609   2.895 -0.3506  0.3599 -3.5336
 8627TIP3    H250077   5.453   3.531   2.950  0.5940  0.9202 -0.5099
 8628TIP3   OH250078   0.561   7.444   0.777 -0.1414 -0.0366  0.4904
 8628TIP3    H150079   0.620   7.424   0.850 -1.0374  2.1571  1.9344
 8628TIP3    H250080   0.474   7.425   0.811 -0.6625  2.0364  0.4723
 8629TIP3   OH250081   0.995   5.172   0.640  0.4556 -0.1578  0.6456
 8629TIP3    H150082   1.040   5.228   0.575  1.2819 -1.8399 -0.2905
 8629TIP3    H250083   0.910   5.154   0.601  0.1089  0.5736  1.0401
 8630TIP3   OH250084   6.631   7.294   1.245  0.3956  0.3148  0.3047
 8630TIP3    H150085   6.716   7.253   1.230 -0.7386 -2.2366  0.2779
 8630TIP3    H250086   6.638   7.380   1.204  1.5956 -1.4089 -3.5154
 8631TIP3   OH250087   0.564   3.988   1.554  0.1140  0.1733  0.1216
 8631TIP3    H150088   0.656   3.969   1.538  0.3111  2.1249 -1.3236
 8631TIP3    H250089   0.529   4.014   1.469 -1.7816 -0.4261  0.6513
 8632TIP3   OH250090   0.419   4.773   3.095  0.0030 -0.3336  0.0720
 8632TIP3    H150091   0.444   4.681   3.103  1.3978 -0.0544 -0.7674
 8632TIP3    H250092   0.502   4.821   3.091 -0.6938  0.9446  0.1738
 8633TIP3   OH250093   2.591   6.492   2.840  0.0074  0.5544 -0.3722
 8633TIP3    H150094   2.539   6.415   2.818  2.2187 -1.5876  1.3020
 8633TIP3    H250095   2.648   6.506   2.764  0.1870 -0.0289 -0.3475
 8634TIP3   OH250096   6.300   6.122   3.366 -0.3558 -0.0932 -0.5468
 8634TIP3    H150097   6.219   6.164   3.395  0.0361 -0.2123  0.8080
 8634TIP3    H250098   6.357   6.195   3.342 -0.8339 -0.0071 -1.4642
 8635TIP3   OH250099   4.931   5.206   1.696  0.0429 -0.1700  0.4133
 8635TIP3    H150100   4.852   5.187   1.645 -0.4277 -1.0877  1.4320
 8635TIP3    H250101   4.999   5.220   1.631 -0.2814 -2.3878 -0.4862
 8636TIP3   OH250102   5.894   1.825   2.414 -0.5123  0.1865 -0.0063
 8636TIP3    H150103   5.844   1.875   2.351  0.1127 -0.1170 -0.7618
 8636TIP3    H250104   5.905   1.884   2.489  1.3496  1.7209 -1.3861
 8637TIP3   OH250105   3.590   7.378   1.429 -0.2800  0.0006 -0.1302
 8637TIP3    H150106   3.649   7.327   1.485 -0.6787 -0.1722  0.1379
 8637TIP3    H250107   3.612   7.351   1.340  0.2722  0.1823 -0.0525
 8638TIP3   OH250108   3.144   6.035   1.773 -0.0375  0.0602  0.7099
 8638TIP3    H150109   3.080   6.097   1.807  0.1655  0.1097  1.0046
 8638TIP3    H250110   3.214   6.035   1.838  1.1817  1.4449 -0.5228
 8639TIP3   OH250111   5.686   3.248   2.515  0.1469  0.0710  0.1900
 8639TIP3    H150112   5.612   3.202   2.475  0.7028 -0.6285 -0.0638
 8639TIP3    H250113   5.662   3.340   2.513  0.5124  0.1788 -2.5930
 8640TIP3   OH250114   2.697   2.531   1.552  0.3934 -0.6001  0.0061
 8640TIP3    H150115   2.688   2.532   1.648 -1.4630  0.0586 -0.1334
 8640TIP3    H250116   2.710   2.439   1.530 -2.2332 -1.2096  0.7054
 8641TIP3   OH250117   3.058   5.052   2.048  0.1661 -0.3837 -0.1215
 8641TIP3    H150118   3.020   5.140   2.053 -1.1567 -0.7490 -2.3236
 8641TIP3    H250119   3.134   5.056   2.106  0.3779  2.3278 -0.4241
 8642TIP3   OH250120   0.127   2.975   0.997  0.2124  0.2521  0.1000
 8642TIP3    H150121   0.169   2.957   1.081 -1.3397 -0.3790  0.7948
 8642TIP3    H250122   0.037   2.999   1.020 -0.1486  0.4366 -1.3699
 8643TIP3   OH250123   2.504   5.603   2.043 -0.4216  0.5755  0.0534
 8643TIP3    H150124   2.409   5.589   2.039 -0.3883  0.5180 -2.6662
 8643TIP3    H250125   2.517   5.686   1.996  0.9280  0.2070 -0.2543
 8644TIP3   OH250126   0.933   5.818   2.309  0.5233 -0.1939  0.6126
 8644TIP3    H150127   0.917   5.867   2.389 -0.4843 -0.3248  0.4969
 8644TIP3    H250128   0.895   5.731   2.325 -0.0784 -0.0860 -0.1589
 8645TIP3   OH250129   3.865   3.869   1.005  0.4063  0.1547 -0.3365
 8645TIP3    H150130   3.786   3.907   0.967 -1.3596 -0.7281  2.2102
 8645TIP3    H250131   3.878   3.916   1.087  3.1553  0.9200 -1.0829
 8646TIP3   OH250132   3.552   2.562   0.560  0.6006  0.0894  0.0678
 8646TIP3    H150133   3.591   2.597   0.640  0.2718 -2.0708  1.2534
 8646TIP3    H250134   3.458   2.568   0.575  0.5099  0.7996 -0.7107
 8647TIP3   OH250135   5.338   6.346   1.864  0.1898  0.0850  0.1964
 8647TIP3    H150136   5.386   6.429   1.872 -0.5390  0.4985  0.4336
 8647TIP3    H250137   5.251   6.372   1.832  0.5508 -0.7857 -1.6351
 8648TIP3   OH250138   4.821   4.269   1.719  0.5285 -0.2651 -0.1745
 8648TIP3    H150139   4.879   4.312   1.782 -0.6308  0.5795  0.3634
 8648TIP3    H250140   4.743   4.323   1.718 -0.6067 -1.8283 -0.2332
 8649TIP3   OH250141   5.759   2.970   1.957 -0.2844  0.0469  0.2375
 8649TIP3    H150142   5.805   3.045   1.996  1.2596 -0.2146 -0.9996
 8649TIP3    H250143   5.826   2.902   1.949 -1.2492 -0.8690 -0.2886
 8650TIP3   OH250144   1.881   4.670   1.867  0.5991 -0.5441 -0.0195
 8650TIP3    H150145   1.927   4.586   1.870 -1.4452 -1.7098  0.3088
 8650TIP3    H250146   1.945   4.733   1.901  1.3226 -2.3717  2.2874
 8651TIP3   OH250147   2.275   4.808   2.471  0.1565 -0.3271 -0.0984
 8651TIP3    H150148   2.229   4.812   2.387 -0.9564  0.6260  0.5205
 8651TIP3    H250149   2.215   4.762   2.529 -1.1843  2.8762  1.3298
 8652TIP3   OH250150   6.612   7.507   1.081 -0.0243 -0.2604  0.3336
 8652TIP3    H150151   6.594   7.600   1.098  1.5193  0.3977 -1.2058
 8652TIP3    H250152   6.540   7.479   1.025  0.9437  0.8983 -1.6215
 8653TIP3   OH250153   7.532   3.473   3.563 -0.0299  0.7505 -0.5516
 8653TIP3    H150154   7.593   3.399   3.558 -0.3991  0.4726 -0.9585
 8653TIP3    H250155   7.488   3.474   3.479  0.2955  1.7263 -0.7226
 8654TIP3   OH250156   2.148   1.568   1.816  0.3645 -0.5140 -0.0028
 8654TIP3    H150157   2.172   1.568   1.908 -0.0491  2.1596  0.1751
 8654TIP3    H250158   2.053   1.581   1.816  0.3636 -0.4611 -0.8162
 8655TIP3   OH250159   3.150   7.474   1.500  0.1501  0.4744  0.0725
 8655TIP3    H150160   3.178   7.475   1.409  0.3837  1.6228  0.1397
 8655TIP3    H250161   3.056   7.491   1.497  0.2658  1.1386  0.0685
 8656TIP3   OH250162   3.466   6.573   1.518  0.1701  0.0354 -0.2396
 8656TIP3    H150163   3.453   6.651   1.571  2.3612  0.1224  0.2279
 8656TIP3    H250164   3.425   6.502   1.568 -1.4740  0.7605 -0.4838
 8657TIP3   OH250165   4.090   4.680   2.736  0.0871  0.3529 -0.2118
 8657TIP3    H150166   4.185   4.669   2.735  0.0466 -0.0693  0.0825
 8657TIP3    H250167   4.060   4.628   2.662 -0.0102 -0.6021  0.4725
 8658TIP3   OH250168   5.535   5.182   2.322 -0.1557  0.1340  0.1883
 8658TIP3    H150169   5.475   5.231   2.378 -2.2066 -2.6095  0.6213
 8658TIP3    H250170   5.526   5.222   2.236 -1.1644  0.9478  0.6502
 8659TIP3   OH250171   3.929   6.188   0.404 -0.7652  0.0269  0.1585
 8659TIP3    H150172   3.898   6.105   0.440  0.4570 -0.3403  0.3838
 8659TIP3    H250173   3.884   6.195   0.319  0.0953 -1.5183 -0.4734
 8660TIP3   OH250174   3.921   4.261   2.518  0.2875  0.3409 -0.3521
 8660TIP3    H150175   3.830   4.242   2.496 -0.2901  0.6187  1.6000
 8660TIP3    H250176   3.931   4.233   2.609  2.3270 -0.2157 -0.6894
 8661TIP3   OH250177   0.151   7.169   1.223 -0.4911 -0.3508 -0.9486
 8661TIP3    H150178   0.074   7.118   1.249  0.3303 -0.7585  0.7929
 8661TIP3    H250179   0.197   7.188   1.304  0.1334  1.7670 -1.7282
 8662TIP3   OH250180   1.030   6.185   2.375  0.2476 -0.4571 -0.1120
 8662TIP3    H150181   1.120   6.189   2.341  0.7048 -1.9738  0.8158
 8662TIP3    H250182   1.037   6.131   2.454 -1.3286  0.2212  0.5320
 8663TIP3   OH250183   7.417   4.875   0.881 -0.2844  0.1170  0.3643
 8663TIP3    H150184   7.423   4.796   0.828  0.8454 -0.5256  1.3882
 8663TIP3    H250185   7.366   4.849   0.958  3.6030 -1.0428  2.8963
 8664TIP3   OH250186   1.026   6.751   0.925  0.2837  0.3543 -0.0635
 8664TIP3    H150187   1.015   6.679   0.863 -0.7035 -0.3454  0.9027
 8664TIP3    H250188   1.116   6.781   0.911  0.5543 -0.7477 -0.7993
 8665TIP3   OH250189   2.235   2.434   1.096  0.3741 -0.2474  0.3435
 8665TIP3    H150190   2.282   2.466   1.019  0.0222 -0.1116  0.1828
 8665TIP3    H250191   2.155   2.394   1.061 -0.0554  0.2984  0.6724
 8666TIP3   OH250192   1.683   6.572   2.379 -0.1010 -0.2805  0.0388
 8666TIP3    H150193   1.610   6.523   2.341 -0.6488 -0.9218  1.8029
 8666TIP3    H250194   1.641   6.633   2.440  0.8306 -2.6466  3.3337
 8667TIP3   OH250195   2.696   3.342   2.736 -0.0547  0.2053  0.1210
 8667TIP3    H150196   2.654   3.321   2.652 -0.1391 -0.6692  0.3651
 8667TIP3    H250197   2.789   3.328   2.719 -0.1121 -0.4437  0.2877
 8668TIP3   OH250198   6.126   2.772   1.771 -0.1116  0.2559  0.5605
 8668TIP3    H150199   6.108   2.788   1.864  0.4620  0.0721  0.7041
 8668TIP3    H250200   6.157   2.856   1.737 -2.5092  0.9885 -0.0242
 8669TIP3   OH250201   1.798   2.901   0.651  0.4324 -0.0223  0.2019
 8669TIP3    H150202   1.742   2.945   0.587  0.1462 -2.5643 -1.4193
 8669TIP3    H250203   1.879   2.881   0.603  0.4674 -1.3924  0.7844
 8670TIP3   OH250204   3.418   0.815   0.777  0.5520  0.0189 -0.2496
 8670TIP3    H150205   3.459   0.730   0.796  2.8423  0.7914 -1.3445
 8670TIP3    H250206   3.401   0.853   0.863  1.5545 -0.6664  0.2735
 8671TIP3   OH250207   4.352   0.645   1.906 -0.7774  0.2859 -0.1409
 8671TIP3    H150208   4.311   0.621   1.823  2.5240  0.2457 -1.9510
 8671TIP3    H250209   4.366   0.740   1.899  0.3531  0.1408 -0.1123
 8672TIP3   OH250210   5.201   3.704   2.953 -0.3227  0.4302 -0.4270
 8672TIP3    H150211   5.143   3.658   2.892  1.1360 -0.9005 -0.8670
 8672TIP3    H250212   5.161   3.791   2.962 -1.9977 -0.2099 -1.2226
 8673TIP3   OH250213   3.184   1.119   1.503 -0.5195 -0.7272  0.4020
 8673TIP3    H150214   3.132   1.102   1.425  0.4523 -0.9312 -0.2253
 8673TIP3    H250215   3.205   1.033   1.538  0.2251 -0.6908  0.0710
 8674TIP3   OH250216   3.436   5.338   1.786 -0.0710  0.2305 -0.2418
 8674TIP3    H150217   3.477   5.418   1.754  0.3044  0.4230  0.6960
 8674TIP3    H250218   3.347   5.364   1.810 -0.3230  0.1057 -0.9974
 8675TIP3   OH250219   3.477   5.685   2.071  0.1386 -0.1790 -0.0819
 8675TIP3    H150220   3.542   5.743   2.110  0.2468 -0.5002  0.2149
 8675TIP3    H250221   3.403   5.687   2.133 -0.2531  0.4039 -0.5518
 8676TIP3   OH250222   2.516   2.997   0.572  0.0041 -0.2021  0.6816
 8676TIP3    H150223   2.449   3.056   0.538 -0.3219 -0.7040  0.4470
 8676TIP3    H250224   2.583   3.056   0.608 -0.3523  0.3080  0.5280
 8677TIP3   OH250225   3.570   2.160   1.356  0.1450  0.4895  0.1255
 8677TIP3    H150226   3.543   2.247   1.328  0.4736  0.3425 -0.6724
 8677TIP3    H250227   3.644   2.138   1.300 -0.0496 -0.3837  0.1858
 8678TIP3   OH250228   1.387   1.146   0.879 -0.6374  0.4962  0.2408
 8678TIP3    H150229   1.324   1.075   0.886 -1.3797  1.1765  0.5519
 8678TIP3    H250230   1.366   1.205   0.951  1.5054 -0.1314  1.4954
 8679TIP3   OH250231   6.789   1.070   0.978 -0.2215 -0.5797  0.1953
 8679TIP3    H150232   6.735   1.127   1.032  0.1249 -1.4086  1.4641
 8679TIP3    H250233   6.864   1.125   0.952 -0.8064  0.0658 -0.1578
 8680TIP3   OH250234   3.458   4.752   2.357 -0.7125 -0.0492 -0.5068
 8680TIP3    H150235   3.396   4.742   2.430  0.5973 -0.5600  0.5879
 8680TIP3    H250236   3.466   4.846   2.345 -1.0922  0.0382 -0.1041
 8681TIP3   OH250237   5.638   2.477   3.307  0.2463  0.3678 -0.5638
 8681TIP3    H150238   5.592   2.535   3.247  1.2661  0.3497 -1.4035
 8681TIP3    H250239   5.588   2.395   3.304  0.9188 -0.0397 -2.3611
 8682TIP3   OH250240   2.025   6.424   0.566  0.2274  0.1093 -0.2701
 8682TIP3    H150241   1.977   6.494   0.522  0.0055  0.9248  1.2159
 8682TIP3    H250242   2.093   6.468   0.616  0.4765 -0.7749  0.1998
 8683TIP3   OH250243   6.210   6.364   2.638 -0.4902 -0.1214 -0.0398
 8683TIP3    H150244   6.218   6.282   2.590 -0.9797 -1.1406  1.5499
 8683TIP3    H250245   6.121   6.395   2.619 -0.1031  0.3812 -1.1164
 8684TIP3   OH250246   5.991   1.561   2.324  0.6658  0.1069 -0.2220
 8684TIP3    H150247   6.063   1.565   2.387  0.6966  0.9982 -0.2940
 8684TIP3    H250248   5.947   1.645   2.333 -0.7950 -0.6940  0.3052
 8685TIP3   OH250249   5.401   1.059   3.078 -0.2234  0.2578  0.5083
 8685TIP3    H150250   5.461   0.985   3.086 -0.4469 -0.3435 -2.3737
 8685TIP3    H250251   5.322   1.031   3.124  0.5899 -0.2295  1.6376
 8686TIP3   OH250252   2.468   6.554   1.205  0.1099 -0.1374  0.0278
 8686TIP3    H150253   2.375   6.564   1.187  0.2875  2.7417  0.3361
 8686TIP3    H250254   2.506   6.527   1.120 -0.5794  2.1482 -1.0762
 8687TIP3   OH250255   0.934   4.849   0.963  0.1146  0.0218  0.3604
 8687TIP3    H150256   1.010   4.902   0.943  1.0188 -1.7114 -1.1204
 8687TIP3    H250257   0.887   4.842   0.880 -0.4819 -0.7060  0.7475
 8688TIP3   OH250258   1.433   2.573   2.223  0.2898 -0.0467 -0.5447
 8688TIP3    H150259   1.481   2.504   2.177  0.6832 -0.1411  0.0062
 8688TIP3    H250260   1.342   2.543   2.226  0.6500 -1.0665  0.6857
 8689TIP3   OH250261   0.658   1.619   2.419 -0.0104  0.0194 -0.1575
 8689TIP3    H150262   0.566   1.614   2.392 -0.7599  0.0007  2.1024
 8689TIP3    H250263   0.674   1.535   2.463  1.6595 -0.6822 -1.9634
 8690TIP3   OH250264   5.706   1.528   2.491  0.0707 -0.1247  0.4576
 8690TIP3    H150265   5.673   1.587   2.424 -3.5031  1.0081  2.9252
 8690TIP3    H250266   5.773   1.579   2.537 -0.4407  0.6574  0.3425
 8691TIP3   OH250267   5.883   2.098   0.764 -0.4729  1.0182  0.1716
 8691TIP3    H150268   5.971   2.132   0.749 -0.9578  2.1038 -0.3334
 8691TIP3    H250269   5.825   2.161   0.722 -1.5146  0.4447  0.6907
 8692TIP3   OH250270   1.976   4.402   1.949 -0.2343 -0.1097  0.1781
 8692TIP3    H150271   1.970   4.310   1.923  0.1192 -0.2817  0.6809
 8692TIP3    H250272   2.061   4.431   1.918 -0.1549 -0.0842  0.4156
 8693TIP3   OH250273   0.804   1.121   2.495 -0.3229  0.1159 -0.3886
 8693TIP3    H150274   0.845   1.038   2.517  0.6572  0.5460 -0.5374
 8693TIP3    H250275   0.733   1.098   2.434  0.0101 -0.5984 -0.5109
 8694TIP3   OH250276   4.359   1.897   2.607 -0.2137 -0.0808 -0.5715
 8694TIP3    H150277   4.279   1.872   2.652 -1.0392  0.6855 -1.5660
 8694TIP3    H250278   4.429   1.872   2.667 -1.1645 -1.2253  0.0972
 8695TIP3   OH250279   2.940   3.263   0.488  0.1600  0.3374 -0.3157
 8695TIP3    H150280   2.948   3.271   0.583  0.7514  1.4755 -0.4392
 8695TIP3    H250281   3.030   3.270   0.455 -0.1346  1.1361 -1.0133
 8696TIP3   OH250282   7.310   0.020   2.648 -0.4688 -0.4205  0.0436
 8696TIP3    H150283   7.220   0.041   2.623 -0.4497 -0.3668  0.0180
 8696TIP3    H250284   7.306  -0.067   2.686 -0.4910 -0.5194 -0.1894
 8697TIP3   OH250285   5.046   6.676   3.466  0.0016 -0.0882 -0.1154
 8697TIP3    H150286   4.955   6.654   3.446  0.1716 -1.4532  0.5222
 8697TIP3    H250287   5.052   6.770   3.447 -0.7063 -0.5723 -3.2012
 8698TIP3   OH250288   6.136   7.000   2.748 -0.3782 -0.3114 -0.0561
 8698TIP3    H150289   6.105   6.944   2.819 -0.3493  0.6951  0.7680
 8698TIP3    H250290   6.095   7.085   2.765  1.9042  0.7628  0.4292
 8699TIP3   OH250291   1.704   5.226   2.190 -0.3297 -0.5606 -0.1819
 8699TIP3    H150292   1.799   5.232   2.183 -0.3000  0.6006  0.8759
 8699TIP3    H250293   1.674   5.210   2.100  0.7198  1.3591 -0.9263
 8700TIP3   OH250294   1.461   4.974   2.386 -0.2229  0.0835  0.2531
 8700TIP3    H150295   1.406   4.996   2.311 -0.9484 -0.5700  0.5763
 8700TIP3    H250296   1.442   5.041   2.451  1.2223  1.2944 -0.5124
 8701TIP3   OH250297   3.751   0.634   1.905 -0.1268 -0.1223  0.1575
 8701TIP3    H150298   3.773   0.566   1.841  1.7693  1.0898 -0.5338
 8701TIP3    H250299   3.778   0.597   1.989  2.3396  0.2984 -0.3821
 8702TIP3   OH250300   0.423   0.420   0.881  0.0392 -0.1581 -0.2881
 8702TIP3    H150301   0.472   0.425   0.962 -0.2844  0.0913 -0.1056
 8702TIP3    H250302   0.352   0.483   0.892  0.5185  0.5489 -1.1178
 8703TIP3   OH250303   5.693   7.490   2.795  0.0636 -0.1158  0.1953
 8703TIP3    H150304   5.654   7.453   2.716 -1.3504 -2.1643  1.7618
 8703TIP3    H250305   5.632   7.560   2.821 -0.4811 -0.6858  0.4730
 8704TIP3   OH250306   2.191   5.477   1.026 -0.0845  0.1830 -0.0989
 8704TIP3    H150307   2.239   5.503   1.104 -0.2366 -0.6383  0.2783
 8704TIP3    H250308   2.127   5.547   1.013  2.0678  2.0436 -1.4392
 8705TIP3   OH250309   4.100   4.584   0.903  0.0187 -0.4014 -0.8129
 8705TIP3    H150310   4.189   4.613   0.925  0.7085 -2.0187 -1.2503
 8705TIP3    H250311   4.103   4.570   0.808 -1.1561  0.8882 -1.0740
 8706TIP3   OH250312   0.097   7.225   0.602 -0.5558  0.2266  0.5072
 8706TIP3    H150313   0.165   7.291   0.594 -0.8486  0.5028  0.3174
 8706TIP3    H250314   0.021   7.272   0.634 -0.6545 -0.0870  0.7419
 8707TIP3   OH250315   6.038   1.299   0.770 -0.3940 -0.2218 -0.4417
 8707TIP3    H150316   6.077   1.362   0.710  0.4773  1.0354  1.3513
 8707TIP3    H250317   6.072   1.214   0.741  1.6926  0.5782 -0.4888
 8708TIP3   OH250318   6.917   6.142   2.617 -0.0397 -0.7247  0.2297
 8708TIP3    H150319   6.860   6.134   2.693 -0.6855 -0.8303 -0.2575
 8708TIP3    H250320   6.858   6.141   2.542  0.5349 -0.0083 -0.2552
 8709TIP3   OH250321   5.200   0.570   3.580 -0.2336 -0.3419  0.4658
 8709TIP3    H150322   5.204   0.498   3.517 -0.2853 -0.2776  0.3894
 8709TIP3    H250323   5.111   0.568   3.614 -0.5533  0.3418 -0.3059
 8710TIP3   OH250324   1.102   2.661   0.619 -0.0226  0.0022  0.0266
 8710TIP3    H150325   1.044   2.727   0.657  0.6448 -0.0529  1.2039
 8710TIP3    H250326   1.076   2.579   0.661  1.0766  0.0267  0.7943
 8711TIP3   OH250327   0.195   3.816   0.373 -0.3673  0.4908 -0.1497
 8711TIP3    H150328   0.145   3.745   0.331 -1.3034  1.4832 -0.7755
 8711TIP3    H250329   0.272   3.773   0.410 -1.8972 -1.1928  1.2614
 8712TIP3   OH250330   7.084   1.988   0.530 -0.0855 -0.3974  0.0243
 8712TIP3    H150331   6.990   1.988   0.509 -0.2002 -3.0502  0.1610
 8712TIP3    H250332   7.087   1.959   0.621  0.8162  2.0245  0.8255
 8713TIP3   OH250333   4.544   0.193   0.839  0.2365  0.2087  0.2343
 8713TIP3    H150334   4.617   0.157   0.789 -0.2358  0.9080 -1.0062
 8713TIP3    H250335   4.482   0.121   0.847  0.5521 -0.0584  0.2759
 8714TIP3   OH250336   2.058   6.355   2.485  0.1829 -0.1217  0.3969
 8714TIP3    H150337   2.047   6.430   2.428  0.4088 -0.3237  0.0866
 8714TIP3    H250338   2.136   6.376   2.537  1.3137 -0.9130 -0.9268
 8715TIP3   OH250339   3.186   2.652   1.662  0.0413 -0.1107  0.0839
 8715TIP3    H150340   3.097   2.647   1.699 -0.2287 -0.9364 -0.6564
 8715TIP3    H250341   3.191   2.740   1.624  0.0379  0.4568  1.3402
 8716TIP3   OH250342   0.076   3.681   2.486 -0.0023 -0.0070  0.3475
 8716TIP3    H150343   0.019   3.604   2.488  1.3259 -1.0937 -1.2489
 8716TIP3    H250344   0.019   3.751   2.454 -0.4261 -1.1566 -1.6257
 8717TIP3   OH250345   1.269   1.947   2.785 -0.2835 -0.5428  0.0939
 8717TIP3    H150346   1.183   1.933   2.746  0.0969 -0.2161 -0.9023
 8717TIP3    H250347   1.285   2.041   2.775 -0.2706 -0.4044  1.2779
 8718TIP3   OH250348   3.954   0.344   3.264  0.1461 -0.2665 -0.2255
 8718TIP3    H150349   3.956   0.259   3.220 -0.1254  0.0455 -0.8544
 8718TIP3    H250350   4.046   0.366   3.277  0.2171 -1.1888  1.0156
 8719TIP3   OH250351   2.788   6.707   1.718  0.2117 -0.3407  0.4001
 8719TIP3    H150352   2.767   6.775   1.782 -2.3964  0.7101 -1.4108
 8719TIP3    H250353   2.854   6.747   1.661 -1.8799  1.1097 -1.1340
 8720TIP3   OH250354   6.626   4.276   0.903 -0.0039 -0.3899 -0.3281
 8720TIP3    H150355   6.654   4.232   0.822  1.5198  0.3625 -0.2487
 8720TIP3    H250356   6.546   4.323   0.878 -0.7623 -1.8784 -0.8174
 8721TIP3   OH250357   6.119   5.489   2.533  0.2857 -0.3477 -0.6444
 8721TIP3    H150358   6.155   5.567   2.491  1.2654 -0.4581 -0.0284
 8721TIP3    H250359   6.063   5.449   2.466 -1.6741  1.8258 -0.4155
 8722TIP3   OH250360   4.243   5.793   2.467 -0.1011  0.3301  0.1116
 8722TIP3    H150361   4.181   5.821   2.535  1.0383 -0.8589  1.7027
 8722TIP3    H250362   4.204   5.712   2.433  0.7062 -0.6494  1.4046
 8723TIP3   OH250363   7.453   4.924   2.192  0.2847  0.1023  0.2122
 8723TIP3    H150364   7.510   4.862   2.238 -1.6320 -1.2225  0.9293
 8723TIP3    H250365   7.457   4.898   2.100 -0.3857 -1.0602  0.4863
 8724TIP3   OH250366   1.148   2.243   2.290 -0.2946  0.7472 -0.2737
 8724TIP3    H150367   1.197   2.167   2.324 -0.9171  1.2721  1.9553
 8724TIP3    H250368   1.073   2.205   2.245  0.0991  0.0154 -0.3304
 8725TIP3   OH250369   2.549   5.655   2.347  0.1273  0.0728  0.5685
 8725TIP3    H150370   2.596   5.590   2.399  2.2388 -2.6106 -4.0321
 8725TIP3    H250371   2.471   5.609   2.315 -0.7788  1.4029  0.7722
 8726TIP3   OH250372   4.135   6.853   1.892 -0.5215 -0.0662 -0.1586
 8726TIP3    H150373   4.224   6.876   1.865 -0.0382 -1.1142  0.4865
 8726TIP3    H250374   4.089   6.835   1.810  0.0130 -0.0685 -0.4629
 8727TIP3   OH250375   1.700   0.179   1.345  0.4352 -0.1052 -0.2738
 8727TIP3    H150376   1.636   0.130   1.294  0.3834 -2.2881  1.6704
 8727TIP3    H250377   1.783   0.134   1.329  0.7973  0.4784 -0.0652
 8728TIP3   OH250378   6.693   4.897   2.029 -0.0188 -0.4177 -0.5603
 8728TIP3    H150379   6.701   4.831   2.098 -0.0231  1.3181  1.1847
 8728TIP3    H250380   6.769   4.953   2.039  0.2067 -0.3535 -2.2824
 8729TIP3   OH250381   0.237   6.973   1.650  0.2903  0.2142 -0.4925
 8729TIP3    H150382   0.169   6.988   1.716 -0.5295  0.3406 -1.3467
 8729TIP3    H250383   0.312   6.942   1.700 -0.5773 -0.4911  0.4190
 8730TIP3   OH250384   2.750   5.892   0.393 -0.5163 -0.9214  0.3028
 8730TIP3    H150385   2.802   5.897   0.313 -0.1782 -0.4056  0.5481
 8730TIP3    H250386   2.738   5.983   0.419  0.7695 -1.1063  1.7177
 8731TIP3   OH250387   6.927   1.217   0.355  0.0699 -0.0096  0.1700
 8731TIP3    H150388   6.886   1.168   0.427  0.6673  0.5327  0.8820
 8731TIP3    H250389   6.918   1.159   0.279  0.6111 -1.1629  0.9609
 8732TIP3   OH250390   3.429   1.070   1.238  0.4209 -0.3180 -0.4576
 8732TIP3    H150391   3.434   1.051   1.332  0.5414 -0.4999 -0.5003
 8732TIP3    H250392   3.343   1.110   1.227  0.4963 -0.0891 -0.2342
 8733TIP3   OH250393   1.980   6.196   2.867  0.2005  0.1702  0.2772
 8733TIP3    H150394   2.045   6.265   2.874 -0.3532  0.7480 -0.1589
 8733TIP3    H250395   1.900   6.241   2.839 -0.4808 -0.4581  1.1459
 8734TIP3   OH250396   3.473   1.734   1.181  0.3799  0.3096 -0.1936
 8734TIP3    H150397   3.535   1.736   1.254  0.0148  1.9524  0.0948
 8734TIP3    H250398   3.522   1.768   1.106  0.5597 -0.7697 -0.5865
 8735TIP3   OH250399   5.103   7.365   3.435 -1.0413 -0.4874 -0.5968
 8735TIP3    H150400   5.102   7.331   3.345 -0.3818  0.4995 -0.9888
 8735TIP3    H250401   5.013   7.393   3.451 -0.8618  0.6964 -1.4990
 8736TIP3   OH250402   0.329   0.337   1.407  0.3295 -0.0772  0.4951
 8736TIP3    H150403   0.247   0.376   1.378  0.4813 -0.6901 -0.8702
 8736TIP3    H250404   0.302   0.263   1.461 -0.1841 -1.9309 -2.0762
 8737TIP3   OH250405   5.236   5.076   1.701 -0.1712  0.2439  0.0123
 8737TIP3    H150406   5.233   5.079   1.605 -0.1643 -0.6132 -0.0251
 8737TIP3    H250407   5.249   4.983   1.721 -0.4499  0.3817  0.8539
 8738TIP3   OH250408   0.274   1.077   3.576 -0.0419  0.0326  0.4085
 8738TIP3    H150409   0.338   1.115   3.636  0.6514  0.0119 -0.3039
 8738TIP3    H250410   0.243   1.152   3.524 -1.3529  0.2213  1.4017
 8739TIP3   OH250411   1.172   1.583   2.781 -0.3013  0.6516 -0.3648
 8739TIP3    H150412   1.162   1.584   2.876 -0.8408  3.5410 -0.3738
 8739TIP3    H250413   1.266   1.579   2.767 -0.2433 -0.5707  0.2402
 8740TIP3   OH250414   2.814   7.312   1.227 -0.0805  0.2735  0.1212
 8740TIP3    H150415   2.905   7.284   1.224 -0.2742 -0.2874 -0.7981
 8740TIP3    H250416   2.798   7.332   1.320  0.1857 -2.3128  0.8027
 8741TIP3   OH250417   5.330   1.169   2.181  1.0372  0.8359 -0.5683
 8741TIP3    H150418   5.345   1.230   2.109  0.4596  1.8189  0.1190
 8741TIP3    H250419   5.369   1.211   2.258 -0.4451  0.9417  0.1602
 8742TIP3   OH250420   7.183   2.581   1.280  0.6591 -0.2001  0.0559
 8742TIP3    H150421   7.103   2.621   1.244  1.1148  0.4736 -0.2246
 8742TIP3    H250422   7.228   2.545   1.204  0.0930 -1.5647  0.3472
 8743TIP3   OH250423   5.755   6.572   2.893  0.5641 -0.5449 -0.6258
 8743TIP3    H150424   5.710   6.493   2.921  0.5781 -0.0811  0.7800
 8743TIP3    H250425   5.816   6.592   2.964 -0.3139  1.4092 -0.3646
 8744TIP3   OH250426   6.195   7.451   0.597 -0.0133 -0.1638  0.8030
 8744TIP3    H150427   6.252   7.436   0.673 -0.7531 -0.6711  1.2808
 8744TIP3    H250428   6.171   7.363   0.568 -1.8412 -0.0040  1.6332
 8745TIP3   OH250429   0.150   1.918   2.327  0.0111  0.5099  0.2806
 8745TIP3    H150430   0.056   1.919   2.306 -0.0321 -0.1584  0.4043
 8745TIP3    H250431   0.180   2.008   2.311 -0.7217  0.8123  0.5779
 8746TIP3   OH250432   5.506   3.792   2.161 -0.1829  0.1770 -0.2229
 8746TIP3    H150433   5.509   3.828   2.072 -1.9031  0.7944 -0.0591
 8746TIP3    H250434   5.537   3.864   2.216 -1.3159  0.5975 -0.1208
 8747TIP3   OH250435   2.560   0.923   2.900  0.3083 -0.1255 -0.7743
 8747TIP3    H150436   2.528   0.838   2.869  0.7194 -0.0897 -1.3106
 8747TIP3    H250437   2.654   0.912   2.909  0.2442 -0.0090  0.0826
 8748TIP3   OH250438   0.047   3.077   3.026  0.0169 -0.0925 -0.1093
 8748TIP3    H150439  -0.041   3.083   3.061  0.9637  2.5858  2.1928
 8748TIP3    H250440   0.097   3.032   3.094  0.2889 -3.0390 -2.0336
 8749TIP3   OH250441   2.818   3.933   0.384  0.2407  0.1858 -0.5351
 8749TIP3    H150442   2.763   3.974   0.451  0.0204  0.4060 -0.8508
 8749TIP3    H250443   2.825   3.999   0.315  0.7480  0.0870 -0.5805
 8750TIP3   OH250444   5.213   3.110   0.989  0.1676 -0.0331 -0.3987
 8750TIP3    H150445   5.170   3.080   0.909 -1.3739  2.3677 -0.5746
 8750TIP3    H250446   5.284   3.166   0.958  0.8562 -0.7075 -0.0691
 8751TIP3   OH250447   2.684   6.663   2.417  0.0069  0.1158  0.4882
 8751TIP3    H150448   2.743   6.633   2.486 -0.1109 -0.1654  0.4661
 8751TIP3    H250449   2.653   6.749   2.447  0.8963  0.5407  0.2155
 8752TIP3   OH250450   6.481   6.490   2.932  0.6144  0.3148 -0.3978
 8752TIP3    H150451   6.518   6.577   2.951  1.8840 -0.3168  0.1716
 8752TIP3    H250452   6.544   6.450   2.872  0.2567 -0.3721 -0.3256
 8753TIP3   OH250453   4.554   1.097   2.828  0.3625  0.3954 -0.1899
 8753TIP3    H150454   4.612   1.047   2.769  0.1388 -2.2974  1.6852
 8753TIP3    H250455   4.568   1.188   2.803 -0.0691 -0.5202 -4.7065
 8754TIP3   OH250456   4.476   2.897   0.566  0.2070  0.0538 -1.0432
 8754TIP3    H150457   4.386   2.875   0.543  0.6860 -1.7834 -1.3112
 8754TIP3    H250458   4.483   2.991   0.549 -1.1485 -0.1044 -2.7388
 8755TIP3   OH250459   1.323   0.646   2.149  0.3178 -0.1476 -0.1734
 8755TIP3    H150460   1.318   0.650   2.245 -1.5213  0.7490 -0.2716
 8755TIP3    H250461   1.233   0.632   2.121  1.0990 -2.6988 -1.7381
 8756TIP3   OH250462   3.350   2.074   1.886 -0.6007 -0.6207 -0.8468
 8756TIP3    H150463   3.426   2.054   1.941  0.2448  1.5583 -1.1020
 8756TIP3    H250464   3.388   2.108   1.805 -1.8210  0.7526 -0.8843
 8757TIP3   OH250465   1.587   2.271   1.475  0.6644 -0.2299 -0.2495
 8757TIP3    H150466   1.681   2.272   1.453  1.0134 -0.8937  1.1293
 8757TIP3    H250467   1.581   2.323   1.555 -0.2603  0.3522 -0.6841
 8758TIP3   OH250468   6.965   1.608   3.178 -0.0934  0.1879 -0.2586
 8758TIP3    H150469   6.990   1.562   3.258  0.5756 -0.4467 -0.8173
 8758TIP3    H250470   6.929   1.692   3.209  0.8213  0.2629  0.6670
 8759TIP3   OH250471   2.908   0.725   2.738  0.0822 -0.2248  0.6702
 8759TIP3    H150472   2.960   0.747   2.661  1.3651 -1.7891  1.0398
 8759TIP3    H250473   2.970   0.729   2.811  0.0313 -3.1860  0.9803
 8760TIP3   OH250474   6.691   1.747   0.689 -0.4255 -0.2948 -0.1350
 8760TIP3    H150475   6.733   1.670   0.728 -0.3096 -0.1403  0.0465
 8760TIP3    H250476   6.597   1.726   0.692 -0.5090  0.1501  1.2058
 8761TIP3   OH250477   4.678   0.525   0.811 -0.5573  0.1186 -0.2819
 8761TIP3    H150478   4.675   0.590   0.741  1.6076  1.4625  0.7657
 8761TIP3    H250479   4.649   0.573   0.889  0.6530 -0.2730  0.4335
 8762TIP3   OH250480   2.665   1.031   0.482  0.0996  0.0359  0.4163
 8762TIP3    H150481   2.584   0.983   0.466  0.2613 -1.2398  2.8576
 8762TIP3    H250482   2.733   0.976   0.443  0.1151 -0.9174  1.7171
 8763TIP3   OH250483   0.422   1.992   2.794 -0.3607 -0.4210  0.0380
 8763TIP3    H150484   0.477   2.004   2.717 -0.7821  0.2706 -0.1561
 8763TIP3    H250485   0.350   2.054   2.783  0.1272  0.4579  1.4887
 8764TIP3   OH250486   1.036   5.812   8.104  0.4927 -0.2440 -0.0621
 8764TIP3    H150487   1.077   5.892   8.072  0.6372 -0.4107 -0.2904
 8764TIP3    H250488   0.946   5.838   8.124  0.0240 -0.4222 -1.7915
 8765TIP3   OH250489   0.304   2.235   1.358 -0.4784  0.0977 -0.1595
 8765TIP3    H150490   0.349   2.151   1.369  0.4489  0.3793 -1.5500
 8765TIP3    H250491   0.253   2.224   1.278  0.4567  1.1632 -0.9372
 8766TIP3   OH250492   0.298   5.580   0.463  0.5377 -0.6657 -0.4951
 8766TIP3    H150493   0.245   5.602   0.540  2.2685 -0.1746  0.6428
 8766TIP3    H250494   0.237   5.541   0.401 -1.3762  0.9748  0.2279
 8767TIP3   OH250495   4.850   4.332   3.042 -0.1474 -0.4395 -0.7126
 8767TIP3    H150496   4.842   4.394   2.969 -0.8168  0.5098  0.1532
 8767TIP3    H250497   4.898   4.258   3.004  0.7113  0.6065 -1.7668
 8768TIP3   OH250498   0.627   4.635   1.100  0.0416  0.4694 -0.0193
 8768TIP3    H150499   0.541   4.609   1.066 -0.0804  1.3562 -0.4231
 8768TIP3    H250500   0.680   4.647   1.021  0.7555 -0.7533  0.2483
 8769TIP3   OH250501   3.018   6.839   2.852  0.4015 -0.3553 -0.9411
 8769TIP3    H150502   3.050   6.764   2.902  0.6268  1.3758  1.7155
 8769TIP3    H250503   3.030   6.914   2.911 -2.0932  1.4262 -2.5084
 8770TIP3   OH250504   6.135   7.204   2.215  0.5188  0.3464  0.2193
 8770TIP3    H150505   6.087   7.287   2.220 -1.3877 -0.6374 -0.9008
 8770TIP3    H250506   6.221   7.229   2.182  0.2915  1.9695  0.7408
 8771TIP3   OH250507   4.820   6.066   1.814 -0.3991  0.7517 -0.1149
 8771TIP3    H150508   4.805   6.160   1.802 -2.0715  0.4308 -0.8618
 8771TIP3    H250509   4.733   6.027   1.804  0.4954 -1.0199 -1.3942
 8772TIP3   OH250510   6.723   2.909   2.460 -0.3532  0.3291  0.4414
 8772TIP3    H150511   6.774   2.859   2.524 -1.5486 -0.2982  0.9244
 8772TIP3    H250512   6.703   2.991   2.505 -1.1357 -0.0846  0.8684
 8773TIP3   OH250513   2.915   4.235   1.289 -0.3164 -0.1160 -0.2708
 8773TIP3    H150514   2.852   4.307   1.296 -0.6290 -0.4561  0.5815
 8773TIP3    H250515   2.864   4.162   1.255 -0.3133 -0.2913  0.0868
 8774TIP3   OH250516   2.876   4.310   2.498 -0.1720 -0.2700 -0.5227
 8774TIP3    H150517   2.847   4.271   2.581 -0.5324  0.8126 -0.1282
 8774TIP3    H250518   2.834   4.396   2.495  1.7977  0.7548 -0.6362
 8775TIP3   OH250519   1.257   2.473   2.568  0.3692 -0.3071  0.4146
 8775TIP3    H150520   1.253   2.389   2.522  0.3697 -0.1224  0.0697
 8775TIP3    H250521   1.349   2.483   2.592  0.2742 -0.6547  0.9320
 8776TIP3   OH250522   6.177   1.947   8.365 -0.0126  0.0870 -0.0736
 8776TIP3    H150523   6.224   2.020   8.324  0.0865  0.0946  0.0536
 8776TIP3    H250524   6.090   1.950   8.325  0.1758 -0.0883 -0.5041
 8777TIP3   OH250525   5.098   5.249   1.495  0.1642  0.5693 -0.5325
 8777TIP3    H150526   5.139   5.221   1.413  1.8738  0.0682  0.4495
 8777TIP3    H250527   5.065   5.337   1.475  1.7338  1.0097 -1.4046
 8778TIP3   OH250528   4.329   1.541   3.175 -0.1918 -0.0177 -0.3089
 8778TIP3    H150529   4.252   1.486   3.159  1.6095 -2.7292 -0.2852
 8778TIP3    H250530   4.374   1.498   3.248  0.9543  1.9817  0.2301
 8779TIP3   OH250531   2.976   2.504   3.357  0.4331 -0.1060 -0.0497
 8779TIP3    H150532   3.043   2.566   3.327  3.0739 -2.2318  0.9699
 8779TIP3    H250533   2.935   2.548   3.432  1.7848  0.6913  0.2557
 8780TIP3   OH250534   6.608   5.817   3.465  0.3757  0.1468  0.3058
 8780TIP3    H150535   6.574   5.883   3.525  0.0334 -0.8043  1.2012
 8780TIP3    H250536   6.703   5.818   3.480  0.2251 -0.6814  1.5668
 8781TIP3   OH250537   0.858   0.898   2.314 -0.1682 -0.7514  0.0731
 8781TIP3    H150538   0.790   0.961   2.336  0.8849  0.2845  0.5016
 8781TIP3    H250539   0.812   0.827   2.269 -1.6799 -0.6487  1.3749
 8782TIP3   OH250540   6.437   0.733   2.953  0.4493 -0.1224 -0.3098
 8782TIP3    H150541   6.495   0.806   2.976 -1.0137  1.5627 -1.6755
 8782TIP3    H250542   6.497   0.662   2.928  1.9483 -0.2210  3.0851
 8783TIP3   OH250543   3.021   6.431   2.606  0.2474  0.2139  0.0185
 8783TIP3    H150544   3.075   6.401   2.679  0.0915  0.7472  0.3582
 8783TIP3    H250545   3.037   6.367   2.536  0.6234 -0.1333  0.4177
 8784TIP3   OH250546   1.745   1.747   1.999  0.3201  0.6708 -0.5816
 8784TIP3    H150547   1.806   1.677   1.976 -1.3742 -1.2806  0.5168
 8784TIP3    H250548   1.792   1.801   2.062  1.2799 -0.1392 -0.5862
 8785TIP3   OH250549   1.802   1.215   2.672  0.4630  0.2347 -0.1672
 8785TIP3    H150550   1.725   1.271   2.685  0.3644 -0.3879  2.5362
 8785TIP3    H250551   1.807   1.163   2.752  3.1761 -0.4136 -0.6704
 8786TIP3   OH250552   6.582   0.088   1.499  0.4271 -0.4557 -0.2540
 8786TIP3    H150553   6.534   0.171   1.499  2.1726  0.6181 -0.3207
 8786TIP3    H250554   6.526   0.028   1.449 -0.1916  1.1265 -1.5780
 8787TIP3   OH250555   4.777   6.444   2.600 -0.3014  0.0223  1.0549
 8787TIP3    H150556   4.774   6.420   2.693 -0.9091  0.7614  1.2292
 8787TIP3    H250557   4.830   6.375   2.560 -1.2361 -1.1035  1.7032
 8788TIP3   OH250558   4.067   5.831   2.719  0.0821  0.0013  0.3527
 8788TIP3    H150559   3.979   5.826   2.758  0.0540 -1.1306  0.1657
 8788TIP3    H250560   4.126   5.808   2.790  0.4701  3.0766  1.1718
 8789TIP3   OH250561   2.737   0.102   0.396 -0.1468  0.6602 -0.2737
 8789TIP3    H150562   2.689   0.183   0.379  0.4950  1.9597  3.2100
 8789TIP3    H250563   2.680   0.053   0.455 -0.0975 -1.0378 -1.5825
 8790TIP3   OH250564   4.710   2.236   1.145 -0.2937  0.0174  0.0232
 8790TIP3    H150565   4.802   2.208   1.140 -0.4426 -0.3017 -1.1374
 8790TIP3    H250566   4.691   2.239   1.239  0.6427 -0.7838  0.2529
 8791TIP3   OH250567   3.060   0.686   0.563 -0.8565  0.5199 -0.0298
 8791TIP3    H150568   3.136   0.649   0.518 -0.1559 -0.9956  2.2393
 8791TIP3    H250569   3.094   0.763   0.608 -0.9379  0.5014  0.0625
 8792TIP3   OH250570   3.796   2.330   2.911  0.0844  0.0473  0.1531
 8792TIP3    H150571   3.775   2.388   2.984  0.0038  0.4046 -0.1581
 8792TIP3    H250572   3.839   2.255   2.953  2.0694  1.2412  0.3636
 8793TIP3   OH250573   6.926   5.032   2.091 -0.2972 -0.1594 -0.0457
 8793TIP3    H150574   6.936   5.114   2.139 -1.0427 -0.7996  1.2798
 8793TIP3    H250575   6.954   4.965   2.154 -1.4584 -1.0487 -0.4402
 8794TIP3   OH250576   3.322   1.005   2.284  0.3553  0.5508  0.6120
 8794TIP3    H150577   3.268   1.079   2.314  0.7948  1.0049  0.2899
 8794TIP3    H250578   3.392   0.999   2.349  0.5844  0.7135  0.3784
 8795TIP3   OH250579   2.558   4.834   1.296  0.4748  0.2844 -0.4329
 8795TIP3    H150580   2.487   4.892   1.270  0.0809 -0.6828 -1.6075
 8795TIP3    H250581   2.532   4.801   1.382 -1.1578 -1.0351 -1.3749
 8796TIP3   OH250582   7.361   3.007   1.716  0.0697 -0.1357 -0.0046
 8796TIP3    H150583   7.266   3.018   1.719  0.1181  0.6684 -0.8994
 8796TIP3    H250584   7.393   3.089   1.677  0.8868 -1.5010 -2.3826
 8797TIP3   OH250585   6.513   5.886   1.086  0.2775 -0.5788 -0.3343
 8797TIP3    H150586   6.481   5.830   1.015  3.0442  1.0762 -3.1451
 8797TIP3    H250587   6.583   5.834   1.127 -0.4875 -1.0414  0.4277
 8798TIP3   OH250588   6.930   2.044   1.176 -0.4053 -0.5855 -0.3247
 8798TIP3    H150589   6.978   2.052   1.258  1.0275 -0.5325 -1.1340
 8798TIP3    H250590   6.927   2.133   1.140  0.1951 -0.8164 -0.9774
 8799TIP3   OH250591   6.857   6.807   3.110  0.4929 -0.2979  0.0570
 8799TIP3    H150592   6.797   6.839   3.044  0.4531 -0.0912  0.1915
 8799TIP3    H250593   6.944   6.830   3.078  0.4647 -0.0551  0.1516
 8800TIP3   OH250594   0.285   2.549   2.176  0.1477 -0.2839  0.5749
 8800TIP3    H150595   0.371   2.585   2.200 -0.2789  0.3913  1.1136
 8800TIP3    H250596   0.285   2.461   2.212  0.7047 -0.3729  0.3706
 8801TIP3   OH250597   0.201   4.941   2.251 -0.2287 -0.4116  0.2985
 8801TIP3    H150598   0.138   4.873   2.230 -1.0476  0.3682  0.1461
 8801TIP3    H250599   0.255   4.904   2.321 -0.2848 -1.4161 -0.1854
 8802TIP3   OH250600   3.456   4.848   1.023  0.3861 -0.0931  0.2412
 8802TIP3    H150601   3.441   4.783   0.955  2.5125 -1.2338  0.7771
 8802TIP3    H250602   3.440   4.932   0.980  0.0668 -0.8559 -1.1816
 8803TIP3   OH250603   0.572   2.533   0.781 -0.3411 -0.7034 -0.1016
 8803TIP3    H150604   0.664   2.559   0.793 -1.0364  1.8284  0.2150
 8803TIP3    H250605   0.555   2.472   0.853  0.8837 -0.6292  0.2789
 8804TIP3   OH250606   7.420   2.989   1.006  0.5820  0.4878 -0.1829
 8804TIP3    H150607   7.379   2.912   1.047 -0.8878  1.4425  0.1997
 8804TIP3    H250608   7.374   3.064   1.044  1.0490  1.5111 -1.5742
 8805TIP3   OH250609   1.124   0.913   0.717  0.2509 -0.1121  0.2784
 8805TIP3    H150610   1.167   0.862   0.649 -1.9350 -1.5353 -0.1093
 8805TIP3    H250611   1.032   0.915   0.692 -0.3440  0.7931  2.3116
 8806TIP3   OH250612   1.232   6.947   0.972  0.6344 -0.2732 -0.5602
 8806TIP3    H150613   1.235   7.032   1.017  1.5871  0.0934 -1.2868
 8806TIP3    H250614   1.265   6.965   0.884 -2.0046 -0.7903 -1.7862
 8807TIP3   OH250615   3.573   6.469   0.979  0.0838 -0.1103 -0.4274
 8807TIP3    H150616   3.535   6.422   0.905  1.1215 -0.7548 -0.5605
 8807TIP3    H250617   3.664   6.440   0.983  0.9368  2.2759 -0.8404
 8808TIP3   OH250618   6.441   0.396   1.044 -0.0068 -0.1351 -0.3769
 8808TIP3    H150619   6.404   0.330   0.985  2.2746 -1.4333 -0.4711
 8808TIP3    H250620   6.473   0.465   0.985  0.7882 -0.6452 -0.5499
 8809TIP3   OH250621   7.244   2.565   0.487 -0.3008  0.2459 -0.3138
 8809TIP3    H150622   7.315   2.601   0.434 -0.0505  0.8859  0.4516
 8809TIP3    H250623   7.182   2.637   0.496  1.1446  1.2760  2.9517
 8810TIP3   OH250624   0.122   3.258   3.686  0.5299  0.3729  0.0262
 8810TIP3    H150625   0.170   3.191   3.639  0.9861  0.5632  0.2200
 8810TIP3    H250626   0.055   3.209   3.735 -0.4174  0.2269 -1.3469
 8811TIP3   OH250627   1.252   1.340   0.513 -0.1000  0.4851  0.2528
 8811TIP3    H150628   1.162   1.358   0.487  0.0761 -0.5559 -1.2201
 8811TIP3    H250629   1.300   1.420   0.490 -0.5978  0.9467  0.8104
 8812TIP3   OH250630   5.207   1.389   1.177  0.1396  0.0739  0.1026
 8812TIP3    H150631   5.263   1.312   1.171  0.1845  0.1841 -1.1210
 8812TIP3    H250632   5.266   1.460   1.203  0.5693  0.1710 -1.0875
 8813TIP3   OH250633   6.252   0.771   0.481 -0.3399 -0.2429  0.2955
 8813TIP3    H150634   6.304   0.769   0.561 -1.2049 -2.9052  0.8914
 8813TIP3    H250635   6.168   0.809   0.506 -0.4890 -0.7629  0.6010
 8814TIP3   OH250636   3.581   6.398   1.843  0.1536 -0.1949  0.0124
 8814TIP3    H150637   3.543   6.380   1.929  0.0778  0.5931  0.1554
 8814TIP3    H250638   3.574   6.316   1.795 -0.4988 -0.4250  0.4988
 8815TIP3   OH250639   3.886   3.868   1.535  0.9241 -0.5794 -0.2209
 8815TIP3    H150640   3.859   3.801   1.598 -0.7824  0.1164 -0.1562
 8815TIP3    H250641   3.838   3.847   1.455  1.6526 -0.3881 -0.7160
 8816TIP3   OH250642   5.181   4.543   0.366 -0.2120  0.4778 -0.4780
 8816TIP3    H150643   5.247   4.606   0.394 -0.2476  0.2847  0.0378
 8816TIP3    H250644   5.181   4.550   0.270  0.7648  0.2743 -0.5021
 8817TIP3   OH250645   0.475   4.391   1.645  0.3803  0.2153  0.1909
 8817TIP3    H150646   0.513   4.308   1.676 -0.8366 -0.2597  0.4495
 8817TIP3    H250647   0.548   4.435   1.602  0.7499 -1.6091 -1.2125
 8818TIP3   OH250648   7.450   3.889   2.437 -0.2551  0.0701  0.1230
 8818TIP3    H150649   7.408   3.856   2.517  0.9711 -0.2530  0.6495
 8818TIP3    H250650   7.495   3.969   2.464  0.7237 -0.4000 -0.0775
 8819TIP3   OH250651   6.840   2.986   2.899  0.5375  0.2753  0.1068
 8819TIP3    H150652   6.839   3.081   2.908  0.9071  0.2464  0.4666
 8819TIP3    H250653   6.749   2.963   2.881  0.3749  0.6550  0.4228
 8820TIP3   OH250654   6.573   2.604   1.725  0.4613 -0.0956 -0.7237
 8820TIP3    H150655   6.577   2.684   1.673 -1.9544  0.7849  0.3273
 8820TIP3    H250656   6.482   2.576   1.720  1.2971 -3.0805 -1.3985
 8821TIP3   OH250657   3.870   4.556   0.667 -0.4791 -0.1761 -0.0399
 8821TIP3    H150658   3.919   4.476   0.648  1.4490  0.8672  0.2805
 8821TIP3    H250659   3.806   4.529   0.733  0.2395 -1.4254  0.1907
 8822TIP3   OH250660   4.841   3.246   1.918  0.1148  0.0662  0.0528
 8822TIP3    H150661   4.774   3.190   1.879  1.4853 -1.8074  0.2334
 8822TIP3    H250662   4.900   3.185   1.962  1.5015  1.7072  0.5779
 8823TIP3   OH250663   1.631   2.788   3.308  1.2018 -0.1854 -0.3104
 8823TIP3    H150664   1.651   2.873   3.270 -1.0154 -0.2371 -1.7081
 8823TIP3    H250665   1.680   2.725   3.254  1.3057  0.0503 -0.4915
 8824TIP3   OH250666   5.143   3.922   0.926 -0.0552 -0.2933  0.0834
 8824TIP3    H150667   5.232   3.890   0.934 -0.2801 -0.6148  1.8168
 8824TIP3    H250668   5.147   4.012   0.958 -0.3066 -0.2529  0.0031
 8825TIP3   OH250669   2.946   1.618   2.075 -0.2558  0.3126  0.5690
 8825TIP3    H150670   2.914   1.699   2.036 -0.8264 -0.2358 -0.1106
 8825TIP3    H250671   2.868   1.564   2.087  0.4382 -1.4861 -2.1217
 8826TIP3   OH250672   0.661   1.372   1.309  0.3655  0.6150 -0.0458
 8826TIP3    H150673   0.604   1.337   1.378  1.6817 -0.4102  0.5525
 8826TIP3    H250674   0.649   1.467   1.315 -1.6642  0.4350 -0.2927
 8827TIP3   OH250675   6.349   3.698   0.689  0.2116  0.0637 -0.0424
 8827TIP3    H150676   6.279   3.704   0.623  0.5406 -2.2670 -0.6901
 8827TIP3    H250677   6.328   3.619   0.739  0.5045  1.2615  2.0928
 8828TIP3   OH250678   7.319   5.416   0.725  0.0885 -0.1946 -0.3974
 8828TIP3    H150679   7.276   5.446   0.645  0.2164 -0.7836 -0.7002
 8828TIP3    H250680   7.412   5.422   0.705  0.1443 -2.5071 -1.1852
 8829TIP3   OH250681   1.641   1.975   3.224 -0.0022  0.3241 -0.4394
 8829TIP3    H150682   1.590   1.963   3.305  0.3343 -1.4745 -0.4415
 8829TIP3    H250683   1.580   1.955   3.154  0.3681 -0.7219 -0.4882
 8830TIP3   OH250684   3.482   3.123   1.444  0.3311 -0.7057 -0.1717
 8830TIP3    H150685   3.413   3.164   1.496  0.2482 -1.4809  0.3514
 8830TIP3    H250686   3.550   3.190   1.435  0.1205 -0.4025  0.5146
 8831TIP3   OH250687   1.070   5.424   0.517 -0.0525  0.4262 -0.9328
 8831TIP3    H150688   1.079   5.518   0.502 -1.1076  0.7000  0.0136
 8831TIP3    H250689   0.976   5.410   0.528  0.2698 -0.1587  2.2911
 8832TIP3   OH250690   1.885   1.360   1.427 -0.0282  0.0607 -0.5777
 8832TIP3    H150691   1.978   1.384   1.429 -0.2604  0.9828 -0.1314
 8832TIP3    H250692   1.850   1.394   1.510 -0.2562 -2.5061  0.4507
 8833TIP3   OH250693   6.666   5.792   1.517  0.2702  0.2108 -0.3244
 8833TIP3    H150694   6.705   5.746   1.443  1.2665  2.0677 -1.0404
 8833TIP3    H250695   6.690   5.884   1.503 -0.9426  0.8539  1.4270
 8834TIP3   OH250696   6.324   4.795   3.011 -0.4508 -0.1187 -0.0002
 8834TIP3    H150697   6.401   4.738   3.016 -0.9060 -0.9171 -1.5427
 8834TIP3    H250698   6.260   4.745   2.961 -0.5009  2.1366 -2.3766
 8835TIP3   OH250699   4.320   4.958   2.596 -0.1115 -0.4002 -0.3813
 8835TIP3    H150700   4.267   4.966   2.676 -1.4654  0.8516 -1.3506
 8835TIP3    H250701   4.400   5.006   2.616 -0.4911  0.0176  0.1859
 8836TIP3   OH250702   2.962   3.285   1.409  0.2673  0.1220  0.2709
 8836TIP3    H150703   2.912   3.245   1.480  0.7737 -3.0755 -1.0336
 8836TIP3    H250704   3.053   3.261   1.427  0.4549 -0.3408 -1.1895
 8837TIP3   OH250705   3.398   1.734   0.484  0.1372  0.2330 -0.2426
 8837TIP3    H150706   3.336   1.721   0.556 -0.3511  1.2535 -0.4577
 8837TIP3    H250707   3.368   1.674   0.416  0.5736 -0.7049  0.3771
 8838TIP3   OH250708   6.480   3.322   1.705 -0.1281  0.3013  0.1344
 8838TIP3    H150709   6.472   3.247   1.645  0.3683 -0.8777  1.4915
 8838TIP3    H250710   6.409   3.310   1.768  0.2141  0.7315  0.6090
 8839TIP3   OH250711   4.786   3.199   0.583  0.0973  0.2207 -0.5812
 8839TIP3    H150712   4.776   3.110   0.618  1.4297  0.0976 -0.4621
 8839TIP3    H250713   4.859   3.192   0.522  1.5681  1.6240  0.9264
 8840TIP3   OH250714   7.260   0.375   3.037  0.2024  0.3197  0.3141
 8840TIP3    H150715   7.299   0.401   3.121 -1.1853  1.2135  0.7147
 8840TIP3    H250716   7.209   0.297   3.057  2.1913 -1.2098 -0.3352
 8841TIP3   OH250717   5.215   0.196   3.038  0.5900 -0.2495 -0.6083
 8841TIP3    H150718   5.311   0.200   3.035  0.7348 -0.4528  1.6944
 8841TIP3    H250719   5.196   0.132   3.106 -1.0535  2.7655  2.0852
 8842TIP3   OH250720   4.532   0.910   2.223 -0.2813  0.1740  0.3589
 8842TIP3    H150721   4.551   0.993   2.178  0.9914 -2.0598 -3.7137
 8842TIP3    H250722   4.436   0.905   2.223 -0.3766  1.4914  0.4266
 8843TIP3   OH250723   0.546   1.178   1.123  0.4632 -0.1834 -0.3473
 8843TIP3    H150724   0.458   1.180   1.161  0.0212  1.0204 -1.3584
 8843TIP3    H250725   0.597   1.236   1.179 -0.2755  1.8773 -1.6899
 8844TIP3   OH250726   0.617   6.177   1.141 -0.0564 -0.3246  0.4577
 8844TIP3    H150727   0.677   6.106   1.164  0.4443  0.4443  1.6201
 8844TIP3    H250728   0.638   6.248   1.203  1.7900  2.1592 -2.6987
 8845TIP3   OH250729   3.155   6.280   2.381 -0.4349 -0.2595 -0.3582
 8845TIP3    H150730   3.145   6.188   2.355  0.8137 -0.9663  1.4226
 8845TIP3    H250731   3.228   6.311   2.327 -0.9129 -0.2862 -1.0263
 8846TIP3   OH250732   0.412   3.715   0.518 -0.0125 -0.2481 -0.1959
 8846TIP3    H150733   0.390   3.631   0.559 -0.3444 -0.8917 -1.6553
 8846TIP3    H250734   0.477   3.693   0.452 -1.1802  0.4046 -1.6069
 8847TIP3   OH250735   5.006   7.217   1.116 -0.0319  0.2946 -0.7063
 8847TIP3    H150736   4.934   7.224   1.179 -0.5601  0.7828 -1.3542
 8847TIP3    H250737   4.989   7.285   1.052  1.8133  1.4128 -0.0866
 8848TIP3   OH250738   4.995   0.668   2.155  0.1122  0.4161 -0.2431
 8848TIP3    H150739   4.917   0.628   2.195  0.9018  0.8576  1.8592
 8848TIP3    H250740   4.961   0.715   2.079 -1.2637 -1.6608 -1.0239
 8849TIP3   OH250741   2.189   0.957   2.908  0.2515  0.0727  0.0641
 8849TIP3    H150742   2.223   0.868   2.909  0.3041  0.0919 -0.0657
 8849TIP3    H250743   2.097   0.947   2.885 -0.1729 -0.0971  1.6736
 8850TIP3   OH250744   0.309   6.106   2.878 -0.6444  0.4406  0.5155
 8850TIP3    H150745   0.284   6.106   2.786  0.8672  0.4130  0.0776
 8850TIP3    H250746   0.293   6.196   2.907 -1.7106  0.2971  0.4206
 8851TIP3   OH250747   6.360   1.056   1.549  0.0240 -0.2068 -0.0256
 8851TIP3    H150748   6.292   1.116   1.518  1.0168  0.3961 -1.1269
 8851TIP3    H250749   6.402   1.025   1.469  1.0175 -0.6013  0.6392
 8852TIP3   OH250750   0.995   0.926   3.160  0.4738 -0.1592 -0.1581
 8852TIP3    H150751   1.036   0.979   3.091  2.1619 -1.5290 -0.3157
 8852TIP3    H250752   0.901   0.939   3.149  0.7516  0.5812 -1.9756
 8853TIP3   OH250753   3.737   1.617   0.496 -0.0959 -0.0495  0.3604
 8853TIP3    H150754   3.827   1.589   0.484  0.3545  1.8415 -1.0549
 8853TIP3    H250755   3.738   1.712   0.480 -2.5867 -0.2052 -1.3926
 8854TIP3   OH250756   3.196   5.012   1.797 -0.0531  0.4647 -0.4486
 8854TIP3    H150757   3.274   5.058   1.827 -0.5060  0.8896  0.0891
 8854TIP3    H250758   3.136   5.014   1.872  0.3204 -1.9769  0.0004
 8855TIP3   OH250759   0.010   0.872   1.948  0.5625 -0.1472  0.4595
 8855TIP3    H150760   0.014   0.787   1.993  1.9271  0.0046  0.6494
 8855TIP3    H250761   0.087   0.873   1.891  1.1017  1.3368  1.1564
 8856TIP3   OH250762   4.638   3.431   0.649  0.4895  0.3622  0.4449
 8856TIP3    H150763   4.690   3.358   0.616  1.7288  1.6729 -0.6436
 8856TIP3    H250764   4.696   3.477   0.710 -0.3854  0.2781  1.3709
 8857TIP3   OH250765   7.307   2.717   3.539  0.0062 -0.4470 -0.8648
 8857TIP3    H150766   7.334   2.787   3.480  1.1305 -1.2198 -1.2888
 8857TIP3    H250767   7.385   2.662   3.550 -0.6793 -1.3045 -0.0661
 8858TIP3   OH250768   7.047   1.621   2.625 -0.1673 -0.1731 -0.4200
 8858TIP3    H150769   7.030   1.707   2.585  1.3856  0.9787  1.2209
 8858TIP3    H250770   7.009   1.629   2.713 -1.7608 -1.9373 -0.8778
 8859TIP3   OH250771   5.291   2.960   2.730  0.4189  0.4271  0.1060
 8859TIP3    H150772   5.271   3.023   2.661  0.6365 -0.9145 -1.2271
 8859TIP3    H250773   5.329   2.885   2.685  0.6284 -0.4815  1.6929
 8860TIP3   OH250774   6.959   6.933   1.314 -0.5431 -0.0594  0.2475
 8860TIP3    H150775   6.959   7.002   1.381 -1.2996 -0.3877  0.5906
 8860TIP3    H250776   7.005   6.860   1.356 -0.1800  0.0548  0.0589
 8861TIP3   OH250777   5.589   0.380   1.706  0.3238  0.0859 -0.2262
 8861TIP3    H150778   5.535   0.444   1.751 -2.2991  0.5340 -3.5945
 8861TIP3    H250779   5.562   0.296   1.742 -0.4675  0.5059  0.1860
 8862TIP3   OH250780   2.790   6.084   1.852  0.3472  0.0868 -0.1174
 8862TIP3    H150781   2.778   6.014   1.787 -1.0566  0.1708  0.0157
 8862TIP3    H250782   2.742   6.158   1.816  0.8183  0.6093  0.3207
 8863TIP3   OH250783   2.889   7.334   2.544  0.4046 -0.0439  0.3798
 8863TIP3    H150784   2.887   7.429   2.559  2.7394  0.1036  0.0588
 8863TIP3    H250785   2.804   7.304   2.575 -0.7732  2.2620 -0.3452
 8864TIP3   OH250786   6.949   3.861   0.599  0.0784  0.2379 -0.2462
 8864TIP3    H150787   6.955   3.882   0.693  0.8640  0.6431 -0.3746
 8864TIP3    H250788   6.880   3.919   0.566 -0.4424 -0.1520  0.1431
 8865TIP3   OH250789   6.426   4.203   1.770  0.1677  0.1146 -0.1795
 8865TIP3    H150790   6.475   4.123   1.788  0.9350  0.9209  1.4912
 8865TIP3    H250791   6.341   4.189   1.812 -0.1576 -0.3057 -0.9639
 8866TIP3   OH250792   5.345   7.223   1.506 -0.0775 -0.5493  0.2037
 8866TIP3    H150793   5.362   7.218   1.600  0.5587  1.2364  0.2192
 8866TIP3    H250794   5.410   7.165   1.467  0.5342 -0.2754  0.7941
 8867TIP3   OH250795   6.748   5.122   1.312  0.1301 -0.0143  0.6073
 8867TIP3    H150796   6.823   5.125   1.372  0.8815  0.5816 -0.3356
 8867TIP3    H250797   6.784   5.088   1.230 -0.1088  2.2990 -0.5378
 8868TIP3   OH250798   2.323   6.209   0.959 -0.0272  0.4445  0.0193
 8868TIP3    H150799   2.332   6.279   0.894 -1.0326 -0.2952 -0.9583
 8868TIP3    H250800   2.411   6.198   0.995 -0.0186  2.9290  1.0166
 8869TIP3   OH250801   0.332   5.848   0.844 -0.2732  0.3417 -0.0834
 8869TIP3    H150802   0.416   5.882   0.875 -1.0112  0.7411  1.5832
 8869TIP3    H250803   0.270   5.870   0.913 -1.2721 -2.1903 -0.0509
 8870TIP3   OH250804   2.402   5.933   1.976 -0.0241 -0.1615  0.3880
 8870TIP3    H150805   2.363   5.884   1.903  0.4228 -0.3575  0.2802
 8870TIP3    H250806   2.433   6.014   1.937 -0.9945  0.3322  0.6141
 8871TIP3   OH250807   6.404   1.631   0.496 -0.1620 -0.3086 -0.1733
 8871TIP3    H150808   6.410   1.724   0.473  0.3113 -0.3259 -0.1276
 8871TIP3    H250809   6.485   1.593   0.463 -0.5451 -0.7921 -0.5713
 8872TIP3   OH250810   7.075   3.117   1.769  0.0118  0.1786  0.6651
 8872TIP3    H150811   7.000   3.128   1.827 -1.2513  0.4759 -0.9652
 8872TIP3    H250812   7.055   3.037   1.719  0.7453  0.2844  0.1877
 8873TIP3   OH250813   4.509   3.073   2.428 -0.6355 -0.1440  0.3347
 8873TIP3    H150814   4.450   3.010   2.386 -0.7778  0.6608 -0.7075
 8873TIP3    H250815   4.492   3.062   2.522 -0.5304 -1.7683  0.2025
 8874TIP3   OH250816   7.503   4.951   0.509 -0.1590 -0.0142 -0.7660
 8874TIP3    H150817   7.430   4.928   0.566  0.8013 -0.2935  0.3919
 8874TIP3    H250818   7.548   5.023   0.554  0.9071 -0.5660 -0.9063
 8875TIP3   OH250819   1.758   3.450   1.453  0.0187 -0.0775 -0.5705
 8875TIP3    H150820   1.825   3.452   1.385  0.5209  0.0371 -0.0778
 8875TIP3    H250821   1.685   3.500   1.417  1.4180  2.6749  0.1451
 8876TIP3   OH250822   0.819   6.827   1.380 -0.3861  0.2043 -0.0097
 8876TIP3    H150823   0.832   6.744   1.425  2.2481  1.7038  2.3590
 8876TIP3    H250824   0.822   6.805   1.287  0.6954 -2.3077  0.5422
 8877TIP3   OH250825   7.489   1.372   0.675  0.6717 -0.2233  0.3444
 8877TIP3    H150826   7.525   1.299   0.626  2.7626  2.2427 -2.1195
 8877TIP3    H250827   7.428   1.414   0.614  4.1366  3.5678 -0.9388
 8878TIP3   OH250828   6.789   1.886   2.817  0.2336  0.3880  0.3064
 8878TIP3    H150829   6.863   1.864   2.761  0.0446 -1.6133  0.7667
 8878TIP3    H250830   6.749   1.802   2.838 -2.1679  1.3809  0.1117
 8879TIP3   OH250831   1.526   2.637   3.042 -0.2901 -0.2007 -0.1112
 8879TIP3    H150832   1.437   2.636   3.077 -0.9296  1.9097 -1.4818
 8879TIP3    H250833   1.579   2.590   3.108 -2.4110 -1.7297  0.6048
 8880TIP3   OH250834   4.866   3.446   3.539 -0.2019 -0.4330  0.2860
 8880TIP3    H150835   4.873   3.351   3.535 -0.9116 -0.6754  2.7744
 8880TIP3    H250836   4.835   3.472   3.452 -1.3594 -2.6387 -0.0316
 8881TIP3   OH250837   5.679   6.292   1.331  0.1867  0.1849 -0.2100
 8881TIP3    H150838   5.600   6.239   1.332  0.9402 -1.0428 -1.5888
 8881TIP3    H250839   5.663   6.361   1.395 -1.8532 -0.2194 -0.2315
 8882TIP3   OH250840   0.681   3.505   2.050  0.2079 -0.1300  0.4154
 8882TIP3    H150841   0.611   3.442   2.066  1.6211 -1.6490  0.9105
 8882TIP3    H250842   0.752   3.478   2.109  2.1644 -0.2536 -1.8372
 8883TIP3   OH250843   3.978   6.673   2.020 -0.1532 -0.2351  0.2533
 8883TIP3    H150844   4.039   6.720   1.963  0.2640  0.5519  1.3133
 8883TIP3    H250845   3.919   6.627   1.959  1.3608 -0.8837 -0.8031
 8884TIP3   OH250846   5.074   4.358   3.192 -0.5264 -1.0724  0.0522
 8884TIP3    H150847   4.988   4.339   3.153 -1.1240 -1.7134  1.6186
 8884TIP3    H250848   5.089   4.451   3.173 -0.0034 -1.6853 -3.1040
 8885TIP3   OH250849   1.142   0.489   1.317 -0.0649 -0.0125  0.2769
 8885TIP3    H150850   1.115   0.405   1.354  0.9373 -0.6143 -0.3151
 8885TIP3    H250851   1.092   0.554   1.367 -0.1013 -0.8916  1.4293
 8886TIP3   OH250852   4.410   2.832   2.339 -0.0531 -0.0103  0.3695
 8886TIP3    H150853   4.462   2.780   2.277  0.0160 -0.2446  0.6253
 8886TIP3    H250854   4.376   2.769   2.402 -0.6532  0.1433  0.2047
 8887TIP3   OH250855   3.325   2.140   2.636 -0.0986  0.1305 -0.1014
 8887TIP3    H150856   3.385   2.170   2.703 -0.9106  1.5363  0.0240
 8887TIP3    H250857   3.296   2.054   2.667 -0.0256  0.5100  1.0590
 8888TIP3   OH250858   7.247   1.200   0.554  0.3001 -0.0747  0.3103
 8888TIP3    H150859   7.324   1.167   0.601 -0.9083  1.2478  3.4674
 8888TIP3    H250860   7.189   1.124   0.548  1.0651 -0.6322 -0.5392
 8889TIP3   OH250861   4.678   4.188   2.460 -0.1458  0.4831 -0.0986
 8889TIP3    H150862   4.662   4.095   2.442 -2.3148  0.8128 -0.2092
 8889TIP3    H250863   4.750   4.212   2.401 -1.6395 -0.4266 -2.4534
 8890TIP3   OH250864   6.436   0.033   3.344 -0.1158 -0.2508  0.0475
 8890TIP3    H150865   6.354   0.076   3.320  0.8401  0.3048 -2.5801
 8890TIP3    H250866   6.491   0.104   3.378  0.3797  0.0528 -1.3302
 8891TIP3   OH250867   5.055   1.753   1.215 -0.3196 -0.6246 -0.2262
 8891TIP3    H150868   5.107   1.737   1.294  0.7970  3.3117  0.0562
 8891TIP3    H250869   4.966   1.766   1.247 -0.4288 -1.8494 -0.0038
 8892TIP3   OH250870   1.956   5.044   0.680  0.3402  0.1705 -0.4623
 8892TIP3    H150871   2.048   5.031   0.702  0.3205  0.7891  0.0052
 8892TIP3    H250872   1.910   4.976   0.728  0.7003 -1.3225 -2.1265
 8893TIP3   OH250873   4.611   6.986   1.935  0.2303 -0.2507  0.0215
 8893TIP3    H150874   4.584   6.957   2.022 -0.5393 -0.0654 -0.1476
 8893TIP3    H250875   4.689   7.039   1.951  0.0191 -0.1033  0.6199
 8894TIP3   OH250876   0.170   1.694   2.840 -0.3034  0.1570 -0.3924
 8894TIP3    H150877   0.254   1.722   2.876 -0.3817 -0.9281  0.6897
 8894TIP3    H250878   0.116   1.675   2.917 -1.1633 -0.2405 -1.0787
 8895TIP3   OH250879   3.740   2.727   2.469  0.2912 -0.0757  0.3448
 8895TIP3    H150880   3.783   2.652   2.427  0.7492  0.1804  0.3516
 8895TIP3    H250881   3.650   2.725   2.435  0.3772 -0.4624  0.1327
 8896TIP3   OH250882   4.325   5.703   1.328 -0.5898  0.3058  0.7350
 8896TIP3    H150883   4.274   5.782   1.346 -0.7258  0.6079 -0.7828
 8896TIP3    H250884   4.371   5.684   1.409  1.4496  3.4129  0.4584
 8897TIP3   OH250885   6.323   3.969   0.731  0.0913  0.7390 -0.3021
 8897TIP3    H150886   6.391   3.980   0.798 -0.2498  1.9340 -0.1280
 8897TIP3    H250887   6.333   3.878   0.702  1.3474  0.7059  0.1597
 8898TIP3   OH250888   3.691   0.677   0.630 -0.2509  0.3771 -0.4368
 8898TIP3    H150889   3.636   0.633   0.695  0.8817 -0.8514 -0.2727
 8898TIP3    H250890   3.666   0.639   0.546  1.1087 -1.0835 -0.2384
 8899TIP3   OH250891   6.302   3.790   3.110  0.1283 -0.3538  0.1794
 8899TIP3    H150892   6.307   3.852   3.183  1.4374 -0.7747  0.4792
 8899TIP3    H250893   6.311   3.844   3.032  2.4165 -0.2345  0.4702
 8900TIP3   OH250894   6.065   4.305   1.596  0.0881  0.9797  0.0667
 8900TIP3    H150895   5.975   4.334   1.586 -0.0481  0.5412  0.0340
 8900TIP3    H250896   6.065   4.213   1.569  0.3435  0.6953  0.9981
 8901TIP3   OH250897   5.002   1.040   2.368 -0.1665 -0.1854 -0.2464
 8901TIP3    H150898   5.011   1.001   2.281 -1.7192 -0.6807 -0.2181
 8901TIP3    H250899   5.077   1.006   2.417  0.6222 -0.0499 -1.3182
 8902TIP3   OH250900   5.755   2.231   1.361 -0.9458 -0.5173  0.2081
 8902TIP3    H150901   5.706   2.166   1.310 -1.9584  0.9671 -0.7976
 8902TIP3    H250902   5.766   2.305   1.301 -0.5262  0.5716  1.5673
 8903TIP3   OH250903   0.419   3.011   1.955 -0.1375 -0.1111 -0.0538
 8903TIP3    H150904   0.325   3.029   1.956  0.2619  2.3215 -0.2576
 8903TIP3    H250905   0.425   2.915   1.960 -2.6050 -0.3592 -0.5365
 8904TIP3   OH250906   4.775   3.058   1.291  0.0004 -0.2247  0.2861
 8904TIP3    H150907   4.761   3.059   1.197 -0.7358 -0.5106  0.3903
 8904TIP3    H250908   4.788   3.150   1.315  3.2838 -0.3544 -0.5214
 8905TIP3   OH250909   2.145   1.359   2.213 -0.3672 -0.1967  0.2714
 8905TIP3    H150910   2.200   1.292   2.172 -0.2958 -0.0313  0.0970
 8905TIP3    H250911   2.155   1.343   2.307 -1.1141 -1.0385  0.2212
 8906TIP3   OH250912   1.438   6.839   2.400  0.1483  0.2387  0.4698
 8906TIP3    H150913   1.485   6.778   2.456  0.7810  0.3391  0.0605
 8906TIP3    H250914   1.375   6.882   2.458 -0.4564 -0.9461  0.7174
 8907TIP3   OH250915   1.603   3.405   0.491 -0.6090 -0.3321  0.2823
 8907TIP3    H150916   1.529   3.463   0.511 -0.8035 -0.4209 -0.1612
 8907TIP3    H250917   1.675   3.465   0.472 -0.3487 -0.2486  1.4739
 8908TIP3   OH250918   4.650   0.713   1.051  0.0778 -0.1759  0.4399
 8908TIP3    H150919   4.573   0.770   1.053  0.5134  0.5862 -1.6540
 8908TIP3    H250920   4.717   0.761   1.100  0.1259  0.6536 -0.4088
 8909TIP3   OH250921   2.385   2.330   0.424  0.4809 -0.0132 -0.6160
 8909TIP3    H150922   2.393   2.242   0.460  2.1874  0.1809 -0.4442
 8909TIP3    H250923   2.436   2.327   0.343  1.9167  1.2252  0.2059
 8910TIP3   OH250924   1.253   3.423   1.367  0.3943  0.5846  0.2161
 8910TIP3    H150925   1.204   3.368   1.428  0.8664  1.2136  1.1948
 8910TIP3    H250926   1.272   3.502   1.417  0.8050  1.1154 -0.7585
 8911TIP3   OH250927   4.143   3.089   2.851 -0.1431 -0.3102  0.1807
 8911TIP3    H150928   4.149   2.994   2.860 -0.1884 -0.3481 -0.1638
 8911TIP3    H250929   4.055   3.111   2.880 -0.1216 -0.3695  0.2900
 8912TIP3   OH250930   7.221   3.453   2.974  0.0098  0.0863 -0.0119
 8912TIP3    H150931   7.125   3.452   2.964  0.0368 -1.7518 -0.4895
 8912TIP3    H250932   7.238   3.524   3.036 -1.5829  1.0467 -0.6223
 8913TIP3   OH250933   1.372   2.706   0.713  0.4852 -0.1018 -0.5453
 8913TIP3    H150934   1.282   2.732   0.694  0.7048  0.9707 -0.1549
 8913TIP3    H250935   1.371   2.610   0.706 -1.2497 -0.3389  1.7187
 8914TIP3   OH250936   2.007   2.516   2.423  0.2499 -0.0079  0.6638
 8914TIP3    H150937   1.976   2.607   2.431  0.8258  0.1771  0.7809
 8914TIP3    H250938   1.950   2.466   2.482 -2.5952 -0.3538 -2.0818
 8915TIP3   OH250939   4.441   0.046   2.292 -0.2142  0.6000 -0.0715
 8915TIP3    H150940   4.442   0.002   2.377  0.7029  2.9564  1.2174
 8915TIP3    H250941   4.532   0.075   2.280 -0.7203  1.8458 -1.0166
 8916TIP3   OH250942   7.010   2.611   0.856 -0.6318 -0.1523  0.3095
 8916TIP3    H150943   6.975   2.580   0.773  1.0369  0.2169 -0.5858
 8916TIP3    H250944   7.009   2.707   0.848  0.5532 -0.1355  0.2529
 8917TIP3   OH250945   6.763   5.165   0.883  0.1259  0.0004 -0.5773
 8917TIP3    H150946   6.848   5.163   0.840  0.7154  0.7866  0.4736
 8917TIP3    H250947   6.773   5.107   0.959  0.8815  2.5724  1.4418
 8918TIP3   OH250948   3.688   5.830   0.723  0.0063  0.7137 -0.0442
 8918TIP3    H150949   3.677   5.899   0.788  0.1840  0.4950  0.2211
 8918TIP3    H250950   3.748   5.767   0.764 -0.0673  0.4560 -0.3249
 8919TIP3   OH250951   2.651   2.882   0.830  0.1408  0.2344 -0.2673
 8919TIP3    H150952   2.731   2.861   0.781 -0.0379  0.9347 -0.8801
 8919TIP3    H250953   2.581   2.879   0.765 -0.5233 -1.4716  0.4762
 8920TIP3   OH250954   6.698   5.572   2.552 -0.2883  0.2294 -0.0121
 8920TIP3    H150955   6.622   5.542   2.602  0.0287  0.0564  0.3742
 8920TIP3    H250956   6.769   5.513   2.579 -0.2273 -0.1820 -1.0366
 8921TIP3   OH250957   5.683   1.643   1.487  0.2736  0.4155  0.7038
 8921TIP3    H150958   5.699   1.650   1.581  1.2179  1.8463  0.4747
 8921TIP3    H250959   5.717   1.557   1.463 -0.7224 -0.3121  1.7853
 8922TIP3   OH250960   7.409   0.376   2.147  0.0029 -0.2077 -0.2633
 8922TIP3    H150961   7.406   0.337   2.060 -0.8378 -0.7898  0.0122
 8922TIP3    H250962   7.500   0.366   2.174  0.0419 -0.9973 -0.6499
 8923TIP3   OH250963   5.709   6.703   1.864 -0.5372 -0.0879 -0.2904
 8923TIP3    H150964   5.716   6.782   1.918  1.8432 -1.3210  1.4018
 8923TIP3    H250965   5.770   6.717   1.792  0.2314 -0.5165  0.2598
 8924TIP3   OH250966   0.255   0.512   2.288  0.0415 -0.0650 -0.3089
 8924TIP3    H150967   0.342   0.523   2.249 -0.0420  3.2234  0.1724
 8924TIP3    H250968   0.259   0.560   2.371 -2.0807 -0.2433 -0.0322
 8925TIP3   OH250969   5.230   5.501   1.936 -0.3519  0.0325  0.2019
 8925TIP3    H150970   5.138   5.477   1.943 -0.1554 -0.6670  0.4623
 8925TIP3    H250971   5.259   5.463   1.853 -0.2810  0.2025  0.1474
 8926TIP3   OH250972   5.326   0.886   2.185  0.4857  0.1637  0.1539
 8926TIP3    H150973   5.358   0.971   2.215 -0.2846  0.3925  0.3473
 8926TIP3    H250974   5.233   0.899   2.169  0.3137 -0.6970  0.3666
 8927TIP3   OH250975   1.638   6.807   1.427  0.4380 -0.2013  0.0027
 8927TIP3    H150976   1.593   6.772   1.503  2.0227 -1.1521  0.5427
 8927TIP3    H250977   1.590   6.772   1.352 -0.9077  0.4459  0.5222
 8928TIP3   OH250978   5.002   6.829   2.556 -0.2521  0.2595 -0.2481
 8928TIP3    H150979   5.048   6.746   2.570 -0.3577 -0.3160 -2.8691
 8928TIP3    H250980   4.912   6.811   2.585 -0.1282 -0.3604 -0.2313
 8929TIP3   OH250981   2.240   6.189   2.368 -0.3375  0.0158  0.3384
 8929TIP3    H150982   2.254   6.200   2.274 -1.4842 -0.0314  0.1454
 8929TIP3    H250983   2.200   6.271   2.396 -1.1413 -0.4338  0.5351
 8930TIP3   OH250984   7.488   6.469   1.602 -0.8765  0.8063  0.2263
 8930TIP3    H150985   7.425   6.432   1.540 -1.7142  0.5210  1.2292
 8930TIP3    H250986   7.486   6.409   1.677  2.1898 -0.4813 -0.5556
 8931TIP3   OH250987   4.518   3.592   0.919  0.4532  0.6451  0.4134
 8931TIP3    H150988   4.560   3.587   1.005 -0.2456 -2.0043  0.7006
 8931TIP3    H250989   4.439   3.644   0.934  1.3122  1.8674  0.8793
 8932TIP3   OH250990   1.674   7.314   0.852  0.3011 -0.3510  0.0255
 8932TIP3    H150991   1.756   7.343   0.812  1.1910  0.0979  2.0387
 8932TIP3    H250992   1.608   7.325   0.783  1.5570  1.3371 -0.9751
 8933TIP3   OH250993   7.284   2.178   0.857 -0.1356  0.5294 -0.0733
 8933TIP3    H150994   7.252   2.263   0.825  0.7212  1.1075  0.5574
 8933TIP3    H250995   7.360   2.159   0.802 -1.3810 -0.7582 -1.4533
 8934TIP3   OH250996   3.406   0.680   1.479  0.3044  0.1721  0.8386
 8934TIP3    H150997   3.399   0.717   1.390 -1.5944  0.3143  1.0149
 8934TIP3    H250998   3.362   0.596   1.473 -0.1243  0.3306  1.7226
 8935TIP3   OH250999   6.321   5.866   1.605  0.5020  0.0022  0.4151
 8935TIP3    H151000   6.301   5.948   1.559 -0.5273 -0.5298 -0.1420
 8935TIP3    H251001   6.413   5.849   1.586  0.2184  0.0317 -1.1084
 8936TIP3   OH251002   1.651   0.414   1.475 -0.7634  0.0153 -0.6998
 8936TIP3    H151003   1.697   0.336   1.445  1.2549  1.2999 -1.1425
 8936TIP3    H251004   1.561   0.402   1.445  0.2254 -0.6586 -3.7263
 8937TIP3   OH251005   6.597   4.487   1.594 -0.8861 -0.0484 -0.6999
 8937TIP3    H151006   6.653   4.413   1.573  0.1628  0.1751  1.1145
 8937TIP3    H251007   6.512   4.448   1.614 -0.3999 -0.7505  0.0398
 8938TIP3   OH251008   0.532   2.095   0.436 -0.1506 -0.0607  0.3135
 8938TIP3    H151009   0.491   2.030   0.493 -0.5130  2.1942  2.8582
 8938TIP3    H251010   0.460   2.153   0.411  0.2093 -0.4106 -1.6599
 8939TIP3   OH251011   1.389   0.864   1.980 -0.5938  0.2774 -0.0490
 8939TIP3    H151012   1.315   0.917   2.010  1.7084  1.6771  3.9062
 8939TIP3    H251013   1.375   0.778   2.020 -0.5136  0.3231  0.0817
 8940TIP3   OH251014   6.466   1.847   2.606  0.1335  0.2851 -0.2230
 8940TIP3    H151015   6.382   1.890   2.623 -0.5821 -1.4296  0.9096
 8940TIP3    H251016   6.479   1.855   2.512 -0.4024  2.1147 -0.1782
 8941TIP3   OH251017   4.343   5.781   3.203 -0.1060  0.1520  0.0346
 8941TIP3    H151018   4.273   5.763   3.140 -0.6053  0.6426  0.4317
 8941TIP3    H251019   4.411   5.718   3.182 -0.1402  0.4785 -1.1808
 8942TIP3   OH251020   5.459   6.473   2.410  0.3887 -0.0376 -0.8881
 8942TIP3    H151021   5.402   6.425   2.350  0.2263 -0.0848 -0.6959
 8942TIP3    H251022   5.419   6.560   2.416  1.1574  0.4090 -1.9131
 8943TIP3   OH251023   7.440   5.146   2.557  0.3178  0.3037  0.2888
 8943TIP3    H151024   7.520   5.149   2.609  0.7310  0.1252 -0.3223
 8943TIP3    H251025   7.425   5.237   2.531  1.9325  0.0166 -1.9584
 8944TIP3   OH251026   0.839   5.486   2.655 -0.1198 -0.3451 -0.1913
 8944TIP3    H151027   0.812   5.577   2.672 -0.1185 -0.4633  0.4681
 8944TIP3    H251028   0.820   5.440   2.737 -3.0983 -1.6548 -1.4668
 8945TIP3   OH251029   4.012   1.902   1.641 -0.0080 -0.6075  0.2769
 8945TIP3    H151030   4.024   1.908   1.547  0.3947  1.0293  0.3993
 8945TIP3    H251031   3.983   1.812   1.656  1.4680 -1.3822 -1.2136
 8946TIP3   OH251032   1.632   0.154   0.583  0.0547  0.4689 -0.3348
 8946TIP3    H151033   1.559   0.141   0.522 -0.3238  0.3297  0.1391
 8946TIP3    H251034   1.655   0.065   0.612  0.8056  0.4640 -0.9306
 8947TIP3   OH251035   6.063   3.501   1.873  0.0885 -0.9080 -0.0512
 8947TIP3    H151036   6.087   3.532   1.961  2.9099 -2.3298 -0.1843
 8947TIP3    H251037   6.110   3.560   1.814 -0.1880 -1.1603 -0.5243
 8948TIP3   OH251038   1.430   4.029   2.522  0.4722  0.3243 -0.3787
 8948TIP3    H151039   1.363   4.075   2.472  1.7110  1.5132 -1.0015
 8948TIP3    H251040   1.423   4.065   2.610 -1.1160 -1.1341  0.1596
 8949TIP3   OH251041   1.388   6.604   2.787 -0.3859  0.0480  0.6052
 8949TIP3    H151042   1.340   6.536   2.834 -0.5255  0.5648  1.2223
 8949TIP3    H251043   1.372   6.684   2.837  0.5870  0.3504  0.4538
 8950TIP3   OH251044   2.917   2.515   0.647 -0.2262 -0.2615 -0.1591
 8950TIP3    H151045   2.955   2.489   0.563 -0.4221  3.9090 -1.7468
 8950TIP3    H251046   2.828   2.478   0.645  0.1221 -1.0884 -1.2752
 8951TIP3   OH251047   5.118   5.038   0.527  0.5054 -0.5290  0.0410
 8951TIP3    H151048   5.175   5.079   0.462  0.2053 -0.6931 -0.3361
 8951TIP3    H251049   5.040   5.093   0.529 -0.6821 -2.0056 -1.7988
 8952TIP3   OH251050   5.663   4.558   1.278  0.1381 -0.0061  0.1048
 8952TIP3    H151051   5.569   4.553   1.262  0.0433 -0.3628  0.7576
 8952TIP3    H251052   5.673   4.537   1.371  1.0565 -2.2946 -0.4493
 8953TIP3   OH251053   5.505   5.327   1.495 -0.6764  0.2772 -0.3210
 8953TIP3    H151054   5.497   5.237   1.463 -0.7853 -0.1328  0.7980
 8953TIP3    H251055   5.475   5.381   1.422 -1.9705 -0.6642 -0.5284
 8954TIP3   OH251056   7.255   1.642   0.586  0.5404  0.1487 -0.1274
 8954TIP3    H151057   7.195   1.569   0.599  0.5472  0.2147  0.2984
 8954TIP3    H251058   7.201   1.720   0.597  1.0768  0.2540  2.4249
 8955TIP3   OH251059   2.681   1.938   0.851 -0.1622 -0.0328 -0.0832
 8955TIP3    H151060   2.714   1.950   0.941 -1.3019 -2.4026  0.7398
 8955TIP3    H251061   2.588   1.957   0.858 -0.3118 -0.5425 -0.6884
 8956TIP3   OH251062   6.146   5.558   2.809  0.6990  0.1576  0.0777
 8956TIP3    H151063   6.104   5.522   2.730  1.2465  0.7456 -0.5000
 8956TIP3    H251064   6.076   5.604   2.854  0.3418 -0.3185  0.0107
 8957TIP3   OH251065   4.328   4.689   2.095 -0.0248  0.0792 -0.0079
 8957TIP3    H151066   4.387   4.676   2.021  0.2298  1.2642 -0.0327
 8957TIP3    H251067   4.268   4.757   2.066 -0.6493 -0.2616  0.4641
 8958TIP3   OH251068   3.912   5.281   0.872 -0.9420  0.0286 -0.5837
 8958TIP3    H151069   3.941   5.304   0.961  0.1831 -1.4764 -0.5239
 8958TIP3    H251070   3.990   5.244   0.831 -1.0307  1.9356 -2.7008
 8959TIP3   OH251071   1.104   4.395   2.138  0.2128 -0.1625  0.2869
 8959TIP3    H151072   1.115   4.306   2.171 -0.1435 -0.6599 -0.8767
 8959TIP3    H251073   1.172   4.404   2.071 -0.7448 -0.1424 -0.7212
 8960TIP3   OH251074   6.252   7.526   2.720  0.1078  0.2786  0.4219
 8960TIP3    H151075   6.178   7.528   2.660 -0.6111  1.7357  1.2924
 8960TIP3    H251076   6.323   7.486   2.670 -1.2936 -1.2880 -0.3863
 8961TIP3   OH251077   6.812   7.039   1.102 -0.2124  0.5799  0.0200
 8961TIP3    H151078   6.873   7.017   1.172 -0.1429  1.6115  0.3067
 8961TIP3    H251079   6.867   7.066   1.029 -0.3105  0.8848  0.0576
 8962TIP3   OH251080   4.956   2.391   2.561  0.6680 -0.0458 -0.0219
 8962TIP3    H151081   5.001   2.463   2.516  1.0667 -0.1226  0.2519
 8962TIP3    H251082   4.885   2.433   2.609  1.0931  0.2065  0.3927
 8963TIP3   OH251083   0.624   0.138   1.090 -0.5945  0.2051 -0.2588
 8963TIP3    H151084   0.646   0.175   1.005  1.7670 -0.2337  0.0899
 8963TIP3    H251085   0.533   0.162   1.103 -0.5252  1.8017 -2.1326
 8964TIP3   OH251086   4.548   4.134   1.942 -0.3164 -0.8121  0.3702
 8964TIP3    H151087   4.601   4.192   1.996  0.4381  0.3420 -1.5006
 8964TIP3    H251088   4.457   4.157   1.962 -0.0419 -0.2664  0.9903
 8965TIP3   OH251089   5.872   5.747   2.659 -0.2026  0.4839  0.2726
 8965TIP3    H151090   5.899   5.719   2.746 -2.5653  0.9030  1.2212
 8965TIP3    H251091   5.860   5.842   2.667  1.3681  0.8520 -1.0819
 8966TIP3   OH251092   3.741   5.512   1.788  0.4916 -0.6635 -0.8740
 8966TIP3    H151093   3.790   5.594   1.783 -1.3759  0.8185  2.1988
 8966TIP3    H251094   3.681   5.516   1.714 -0.1614  1.2725 -0.3166
 8967TIP3   OH251095   7.185   7.308   0.756 -0.0856 -0.4314  0.0725
 8967TIP3    H151096   7.127   7.384   0.764  0.2655 -0.1194 -0.3217
 8967TIP3    H251097   7.208   7.306   0.663 -0.7188 -1.4857 -0.0746
 8968TIP3   OH251098   5.864   2.819   2.773 -0.3961  0.0826 -0.4865
 8968TIP3    H151099   5.931   2.824   2.842  0.6911  0.0638 -1.5207
 8968TIP3    H251100   5.824   2.906   2.773  1.3848  0.9488 -1.5529
 8969TIP3   OH251101   2.177   5.156   1.681  0.4076 -0.6128  0.7252
 8969TIP3    H151102   2.117   5.221   1.718  2.6337  0.9693  1.7933
 8969TIP3    H251103   2.162   5.159   1.587 -1.2019 -0.3466  0.9617
 8970TIP3   OH251104   1.222   1.143   1.128  0.4226 -0.7234  0.7093
 8970TIP3    H151105   1.246   1.051   1.126 -1.0531 -1.1129 -0.9716
 8970TIP3    H251106   1.134   1.145   1.166  0.6642  0.0624  1.2676
 8971TIP3   OH251107   3.762   3.641   1.904  0.5987 -0.1495  0.0525
 8971TIP3    H151108   3.830   3.700   1.939 -0.7366  0.8131  1.1283
 8971TIP3    H251109   3.762   3.567   1.964  1.6401 -0.8355 -0.7647
 8972TIP3   OH251110   6.370   4.022   2.147 -0.0959  0.0155 -0.7692
 8972TIP3    H151111   6.422   3.948   2.180 -1.4355 -0.3271  0.7164
 8972TIP3    H251112   6.434   4.082   2.109  1.7267  0.5347  2.7135
 8973TIP3   OH251113   0.052   6.698   0.626 -0.1769  0.1038 -0.3462
 8973TIP3    H151114   0.064   6.661   0.538  2.1151 -0.1365  0.0108
 8973TIP3    H251115   0.010   6.783   0.611 -0.7707 -0.3793 -1.5726
 8974TIP3   OH251116   7.499   1.836   1.731 -0.1297 -0.2543 -0.4882
 8974TIP3    H151117   7.504   1.782   1.809 -0.2633  0.6438  0.1641
 8974TIP3    H251118   7.568   1.803   1.674  0.2366 -0.6622  0.1806
 8975TIP3   OH251119   2.449   0.577   1.344  0.2833  0.2733 -0.1488
 8975TIP3    H151120   2.502   0.651   1.314 -0.9400  0.5586 -1.7671
 8975TIP3    H251121   2.367   0.586   1.296 -1.0036 -0.5141  1.7744
 8976TIP3   OH251122   3.365   3.581   1.314  0.1998  0.4312  0.5206
 8976TIP3    H151123   3.372   3.602   1.407 -0.4630 -0.5219  0.8078
 8976TIP3    H251124   3.293   3.636   1.282  1.1300  1.5494  0.3079
 8977TIP3   OH251125   0.219   2.282   2.544  0.6747  0.0756 -0.3821
 8977TIP3    H151126   0.136   2.321   2.569 -1.2534 -3.7240 -0.1226
 8977TIP3    H251127   0.210   2.262   2.451  0.7537 -1.4035 -0.1007
 8978TIP3   OH251128   5.364   2.220   1.737 -0.1200  0.6592  0.1836
 8978TIP3    H151129   5.361   2.204   1.643 -0.3088  0.2656  0.2546
 8978TIP3    H251130   5.334   2.138   1.777 -0.3113  0.9161  0.5795
 8979TIP3   OH251131   2.232   0.420   2.787 -0.0927 -0.1177  0.0088
 8979TIP3    H151132   2.234   0.367   2.867  1.7769 -1.4583 -0.8656
 8979TIP3    H251133   2.168   0.377   2.731  0.1797 -0.4422 -0.0505
 8980TIP3   OH251134   0.859   6.367   1.689 -0.5216  0.3089 -0.3715
 8980TIP3    H151135   0.875   6.369   1.594  1.0707 -0.2726 -0.1456
 8980TIP3    H251136   0.865   6.274   1.712  1.4012  0.6118  0.6098
 8981TIP3   OH251137   5.206   0.666   2.351  0.1532 -0.1199 -0.4491
 8981TIP3    H151138   5.147   0.705   2.286 -1.0020  0.4194  0.8849
 8981TIP3    H251139   5.269   0.736   2.370 -1.6811  1.0841  1.6494
 8982TIP3   OH251140   5.756   6.921   3.449  0.9277  0.7032 -0.1595
 8982TIP3    H151141   5.665   6.939   3.473  0.8950  0.2394  0.0786
 8982TIP3    H251142   5.759   6.826   3.435  1.5464  0.5941  0.6107
 8983TIP3   OH251143   0.166   5.410   1.439  0.1520  0.0347 -0.1529
 8983TIP3    H151144   0.144   5.318   1.457 -0.2905  0.3347  0.9329
 8983TIP3    H251145   0.258   5.408   1.413  1.0336 -0.4518  2.6127
 8984TIP3   OH251146   4.062   5.181   1.456  0.0917  0.0459  0.7860
 8984TIP3    H151147   3.972   5.154   1.475  0.5017 -0.1984  2.5539
 8984TIP3    H251148   4.077   5.256   1.514  1.2610 -0.3631  1.0418
 8985TIP3   OH251149   7.555   6.931   1.018  0.1492  0.1577 -0.4528
 8985TIP3    H151150   7.642   6.967   1.000  0.6811 -1.1868 -0.6506
 8985TIP3    H251151   7.566   6.885   1.101 -0.5985  0.6760 -0.0564
 8986TIP3   OH251152   7.565   7.557   2.556  0.5362  0.0857  0.4149
 8986TIP3    H151153   7.477   7.572   2.590  0.0220  0.1559 -0.8809
 8986TIP3    H251154   7.553   7.550   2.461  2.1501  1.8844  0.0101
 8987TIP3   OH251155   5.730   0.529   0.993 -0.2859 -0.2620 -0.3562
 8987TIP3    H151156   5.654   0.558   0.942 -0.5221  0.0429  0.1567
 8987TIP3    H251157   5.709   0.556   1.083  0.0958 -0.8334 -0.0922
 8988TIP3   OH251158   0.741   0.629   2.221 -0.2785  0.2572 -0.1642
 8988TIP3    H151159   0.820   0.609   2.271 -0.3010 -0.4544 -0.4076
 8988TIP3    H251160   0.763   0.606   2.130 -0.6780  0.2966 -0.2739
 8989TIP3   OH251161   6.636   7.049   2.246 -0.1026 -0.1159 -0.6692
 8989TIP3    H151162   6.707   7.059   2.183  0.2002 -0.5064 -0.3908
 8989TIP3    H251163   6.603   6.961   2.232 -0.6961  0.1477 -0.9624
 8990TIP3   OH251164   6.544   0.725   1.148 -0.8368  0.6432 -0.0347
 8990TIP3    H151165   6.477   0.701   1.084 -1.0767  0.5613  0.2453
 8990TIP3    H251166   6.582   0.642   1.177  1.1619  0.7464 -2.0379
 8991TIP3   OH251167   4.651   0.179   1.160 -0.1263 -0.1779 -0.0273
 8991TIP3    H151168   4.558   0.200   1.162 -0.3902 -1.3137  1.0603
 8991TIP3    H251169   4.695   0.256   1.196 -0.9134 -0.6974  2.2225
 8992TIP3   OH251170   2.738   4.293   3.153 -0.3379  0.3424  0.0649
 8992TIP3    H151171   2.680   4.368   3.164 -0.8331 -0.0551  0.1836
 8992TIP3    H251172   2.693   4.237   3.090 -0.5476 -0.4220  0.8781
 8993TIP3   OH251173   2.433   2.937   3.500  0.0110 -0.0230 -0.6041
 8993TIP3    H151174   2.386   2.857   3.476  0.9039 -0.4245 -1.0781
 8993TIP3    H251175   2.378   3.008   3.466 -0.6644 -0.4408 -0.3993
 8994TIP3   OH251176   1.078   3.401   3.090 -0.3887  0.3669 -0.0987
 8994TIP3    H151177   1.112   3.489   3.103 -3.0145  1.5679 -0.8448
 8994TIP3    H251178   1.021   3.408   3.014 -1.9206 -1.6085  0.7820
 8995TIP3   OH251179   0.343   1.441   0.465 -0.2478  0.0915 -0.0927
 8995TIP3    H151180   0.277   1.379   0.495  1.2602 -1.9471 -0.7714
 8995TIP3    H251181   0.377   1.403   0.384  1.3109  1.3961 -0.1022
 8996TIP3   OH251182   1.053   4.722   2.709 -0.4924  0.1829 -0.0569
 8996TIP3    H151183   1.103   4.761   2.638 -0.5281  2.8477  1.2753
 8996TIP3    H251184   1.010   4.646   2.669  1.4395  0.1210 -2.2015
 8997TIP3   OH251185   1.201   4.557   0.787  0.4594  0.6389  0.2297
 8997TIP3    H151186   1.274   4.506   0.751 -1.2335 -1.1920 -0.8542
 8997TIP3    H251187   1.210   4.548   0.882  1.7061  0.5670  0.1183
 8998TIP3   OH251188   4.942   1.859   0.705  0.3475  0.2775  0.1909
 8998TIP3    H151189   4.897   1.818   0.779  0.8976  2.1835  1.6771
 8998TIP3    H251190   5.009   1.796   0.679  0.7447 -0.0805  1.9457
 8999TIP3   OH251191   5.604   4.249   2.624  0.1581 -0.6351 -0.4621
 8999TIP3    H151192   5.640   4.161   2.629  1.6699 -0.0721 -0.7891
 8999TIP3    H251193   5.593   4.276   2.715 -0.4053 -1.1712 -0.3604
 9000TIP3   OH251194   2.247   5.905   2.186 -0.5972 -0.3592 -0.1518
 9000TIP3    H151195   2.298   5.916   2.106 -1.1221 -1.4772 -0.6526
 9000TIP3    H251196   2.170   5.960   2.173  0.8499  2.1545  1.0251
 9001TIP3   OH251197   4.910   6.118   0.782  0.3273  0.0688 -0.0507
 9001TIP3    H151198   4.873   6.202   0.809  1.1520  0.3812  0.1536
 9001TIP3    H251199   5.001   6.138   0.761  0.1231 -0.4584 -1.5901
 9002TIP3   OH251200   5.454   5.739   1.129 -0.3180 -0.2877  0.4931
 9002TIP3    H151201   5.394   5.747   1.204  0.4101  0.6185  0.9918
 9002TIP3    H251202   5.496   5.654   1.141 -0.5605 -0.3596  0.8519
 9003TIP3   OH251203   4.741   6.054   3.194 -0.2146  0.0823 -0.3427
 9003TIP3    H151204   4.743   6.023   3.103  1.3726 -2.0018  0.3211
 9003TIP3    H251205   4.786   6.139   3.191  0.5675 -0.3443 -1.3947
 9004TIP3   OH251206   6.380   1.531   1.327  0.1762  0.5392 -0.1521
 9004TIP3    H151207   6.358   1.443   1.296  0.1873 -0.1644  1.6872
 9004TIP3    H251208   6.408   1.518   1.417 -1.4337  2.6181  0.7332
 9005TIP3   OH251209   3.457   5.710   0.915  0.0715  0.4298  0.2212
 9005TIP3    H151210   3.471   5.776   0.984 -0.7866 -0.4078  1.2207
 9005TIP3    H251211   3.482   5.627   0.956  0.3677  0.0135 -0.7712
 9006TIP3   OH251212   6.543   1.698   3.281 -0.1788 -0.1631 -0.8596
 9006TIP3    H151213   6.585   1.783   3.267 -1.4046  0.6323  0.0694
 9006TIP3    H251214   6.598   1.655   3.346 -0.2036  0.4383 -0.4253
 9007TIP3   OH251215   4.778   0.849   2.338 -0.2879 -0.0008  0.6539
 9007TIP3    H151216   4.699   0.873   2.289 -0.8913  2.4889  2.6592
 9007TIP3    H251217   4.843   0.915   2.312  0.5605 -0.8681  0.4997
 9008TIP3   OH251218   3.077   6.609   2.943  0.9759  0.6833 -0.0097
 9008TIP3    H151219   3.053   6.535   2.887  2.0613  1.6273 -1.8031
 9008TIP3    H251220   3.146   6.574   3.000  1.6965  0.3490 -1.0490
 9009TIP3   OH251221   6.793   3.153   1.368  0.3914 -0.3364  0.0258
 9009TIP3    H151222   6.800   3.081   1.431  2.4354 -0.5865 -0.4166
 9009TIP3    H251223   6.859   3.216   1.395  0.3852  0.1765 -1.0929
 9010TIP3   OH251224   2.404   6.965   0.872  0.2929  0.2492 -0.1675
 9010TIP3    H151225   2.438   6.965   0.782  1.2386 -1.4594  0.1578
 9010TIP3    H251226   2.455   7.032   0.917 -0.1823  1.1149 -0.8807
 9011TIP3   OH251227   1.207   6.016   1.409 -0.0737 -0.5882  0.1235
 9011TIP3    H151228   1.228   6.048   1.497  2.2992 -0.4078 -0.4504
 9011TIP3    H251229   1.246   5.929   1.405 -1.6844 -1.3390 -0.2115
 9012TIP3   OH251230   7.171   5.073   2.921  0.0462  0.3803  0.2238
 9012TIP3    H151231   7.098   5.015   2.898 -0.0989  0.2038  1.0897
 9012TIP3    H251232   7.209   5.033   2.999  0.2238  1.2142  0.5719
 9013TIP3   OH251233   6.752   6.345   0.695  0.5951  0.4307 -0.2172
 9013TIP3    H151234   6.679   6.315   0.640  0.8659  0.4979 -0.6246
 9013TIP3    H251235   6.773   6.270   0.750  0.3975  0.3188 -0.2926
 9014TIP3   OH251236   6.853   0.064   0.434  0.2857  0.0066  0.1168
 9014TIP3    H151237   6.789   0.121   0.391  0.0594  1.2156  1.9744
 9014TIP3    H251238   6.914   0.124   0.477  0.9077 -1.1445  0.9023
 9015TIP3   OH251239   3.032   2.660   1.167  0.4971 -0.8284 -0.1653
 9015TIP3    H151240   2.957   2.643   1.110 -0.0252 -0.0495  0.2736
 9015TIP3    H251241   3.003   2.628   1.253 -0.9187  2.9656  0.9425
 9016TIP3   OH251242   5.202   3.643   1.156  0.5038  0.1296 -0.4847
 9016TIP3    H151243   5.246   3.585   1.218 -0.6204  0.4845  0.6683
 9016TIP3    H251244   5.151   3.584   1.100  0.0556 -0.0729  0.1235
 9017TIP3   OH251245   6.709   5.485   1.098  0.0244  0.2210  0.3121
 9017TIP3    H151246   6.788   5.483   1.043  0.1598  2.6605  0.3185
 9017TIP3    H251247   6.660   5.408   1.071  1.5498 -0.3430 -1.0289
 9018TIP3   OH251248   1.037   5.742   1.399  0.2861  0.4738  0.1127
 9018TIP3    H151249   0.996   5.825   1.374  0.8455  1.0774  1.1464
 9018TIP3    H251250   1.035   5.742   1.494 -0.3261 -1.0311  0.1332
 9019TIP3   OH251251   2.554   1.164   1.348 -0.2389  0.6194  0.0513
 9019TIP3    H151252   2.548   1.176   1.253  1.7761  0.3410 -0.1514
 9019TIP3    H251253   2.562   1.252   1.383  1.7822  0.6253 -0.3195
 9020TIP3   OH251254   1.616   7.024   1.821  0.5090  0.1299 -0.1096
 9020TIP3    H151255   1.545   6.988   1.874  0.6266  0.9537  0.6343
 9020TIP3    H251256   1.587   7.013   1.730 -1.1018  1.4672  0.1927
 9021TIP3   OH251257   6.956   3.358   0.348  0.1366 -0.3140 -0.7605
 9021TIP3    H151258   6.918   3.356   0.260 -1.5307  1.3520 -0.1560
 9021TIP3    H251259   6.976   3.451   0.363  0.0206 -0.4998  0.7378
 9022TIP3   OH251260   4.032   6.180   1.342 -0.1399  0.0814  0.7160
 9022TIP3    H151261   3.963   6.145   1.398 -0.1410 -0.7425  0.2154
 9022TIP3    H251262   3.985   6.217   1.266  0.0015 -1.8425 -0.3734
 9023TIP3   OH251263   1.700   6.935   2.160 -0.5429  0.4483 -0.2243
 9023TIP3    H151264   1.778   6.907   2.209 -0.0526  2.3485  0.1453
 9023TIP3    H251265   1.685   6.864   2.098  2.2960  0.5848 -1.2167
 9024TIP3   OH251266   4.562   1.982   1.690  0.0184 -0.2400  0.1177
 9024TIP3    H151267   4.474   1.954   1.665 -0.0576 -1.6591  1.8115
 9024TIP3    H251268   4.603   1.903   1.724  0.4070  1.2581  3.5089
 9025TIP3   OH251269   7.525   4.157   3.661 -0.0054 -0.0250 -0.1232
 9025TIP3    H151270   7.524   4.176   3.754 -0.8596 -1.0935  0.1119
 9025TIP3    H251271   7.574   4.229   3.622 -0.6867  1.0967  1.0010
 9026TIP3   OH251272   5.986   6.296   1.181 -0.0080 -0.1318 -0.1144
 9026TIP3    H151273   6.077   6.287   1.151  0.2792  0.3582  0.5915
 9026TIP3    H251274   5.993   6.313   1.274 -0.7753  1.1557 -0.2786
 9027TIP3   OH251275   4.158   3.584   1.092  0.5509  0.4123 -0.3196
 9027TIP3    H151276   4.208   3.510   1.057 -0.0059  0.2018 -0.6863
 9027TIP3    H251277   4.069   3.568   1.062  0.2742  0.8156  0.2836
 9028TIP3   OH251278   2.430   2.543   1.888  0.0056  0.5699  0.0458
 9028TIP3    H151279   2.387   2.533   1.804  0.1071 -1.8678  0.2210
 9028TIP3    H251280   2.360   2.563   1.950 -0.6741 -1.4858  0.0034
 9029TIP3   OH251281   0.329   5.832   1.753  0.3237 -0.1552  0.2253
 9029TIP3    H151282   0.322   5.927   1.749 -0.1623 -0.1707  0.6417
 9029TIP3    H251283   0.374   5.807   1.672  1.2662  0.5013  0.5294
 9030TIP3   OH251284   4.051   3.009   1.788  0.7784  0.2619  0.1969
 9030TIP3    H151285   4.123   2.980   1.733  1.4144  0.5468  0.8628
 9030TIP3    H251286   4.093   3.044   1.867 -0.1177 -0.4425  1.0148
 9031TIP3   OH251287   2.749   5.692   3.064 -0.2573  0.7837 -0.0781
 9031TIP3    H151288   2.794   5.686   3.148  0.5223  0.3473 -0.5154
 9031TIP3    H251289   2.689   5.618   3.064  0.2916  0.3354 -0.2205
 9032TIP3   OH251290   6.568   1.919   1.499  0.0504 -0.6879 -0.0321
 9032TIP3    H151291   6.607   1.877   1.576  1.8369 -0.4792 -0.7826
 9032TIP3    H251292   6.578   1.854   1.429 -3.1448 -1.6092  0.2160
 9033TIP3   OH251293   7.469   3.517   2.072  0.2456  0.4638 -0.0818
 9033TIP3    H151294   7.562   3.531   2.052  0.2476  0.7657  0.1258
 9033TIP3    H251295   7.448   3.584   2.137 -0.0673  0.2666  0.0254
 9034TIP3   OH251296   4.765   3.483   0.903  0.4661  0.1551  0.6073
 9034TIP3    H151297   4.815   3.562   0.923 -0.3853  0.9160 -0.1317
 9034TIP3    H251298   4.674   3.513   0.897  0.1648 -0.8191 -0.0218
 9035TIP3   OH251299   6.126   5.010   1.458  0.6447 -0.0922 -0.6606
 9035TIP3    H151300   6.218   5.031   1.445  0.6049 -0.0639 -0.9035
 9035TIP3    H251301   6.125   4.916   1.474  0.6757 -0.1607 -1.0615
 9036TIP3   OH251302   0.008   5.965   2.239  0.1875 -0.0959 -0.1761
 9036TIP3    H151303  -0.009   5.895   2.175 -0.9536  0.7124 -0.7898
 9036TIP3    H251304   0.084   6.011   2.203  0.8689 -0.9336  0.1682
 9037TIP3   OH251305   2.706   7.464   1.032 -0.0145  0.2334  0.2917
 9037TIP3    H151306   2.682   7.552   1.061 -2.6471 -0.8002  1.6101
 9037TIP3    H251307   2.746   7.423   1.109 -1.0066 -0.4358  0.4767
 9038TIP3   OH251308   1.915   3.344   1.669 -0.3150 -0.3889  0.1119
 9038TIP3    H151309   1.840   3.382   1.623  0.3451 -1.2481 -1.7612
 9038TIP3    H251310   1.991   3.369   1.617  0.7819  0.6493  2.0981
 9039TIP3   OH251311   5.967   7.555   2.634  0.2341  0.4934  0.0841
 9039TIP3    H151312   5.938   7.465   2.644 -1.9804  1.2097  0.7177
 9039TIP3    H251313   6.014   7.557   2.551 -0.8186 -0.9760 -0.5748
 9040TIP3   OH251314   1.776   1.321   1.166 -0.0122 -0.3081 -0.0984
 9040TIP3    H151315   1.683   1.308   1.184  0.4345 -1.4171  1.7858
 9040TIP3    H251316   1.816   1.324   1.253  1.5727  1.5063 -0.8193
 9041TIP3   OH251317   3.071   5.707   1.752  0.0569  0.1187 -0.8243
 9041TIP3    H151318   3.009   5.724   1.822  0.3837 -0.7766 -0.2999
 9041TIP3    H251319   3.085   5.792   1.711 -0.1851  0.6497  0.1631
 9042TIP3   OH251320   5.596   6.457   1.965 -0.0673  0.8335 -0.0236
 9042TIP3    H151321   5.650   6.524   1.923  0.5343 -0.4044 -1.3085
 9042TIP3    H251322   5.593   6.385   1.902 -0.1423 -0.6209  1.5427
 9043TIP3   OH251323   1.488   6.129   1.311  0.2933 -0.3186  0.0274
 9043TIP3    H151324   1.564   6.106   1.364  0.3762  1.4321  0.7278
 9043TIP3    H251325   1.418   6.147   1.374  0.2791  1.4059 -0.4218
 9044TIP3   OH251326   2.397   4.487   2.199  0.1376  0.0444 -0.0935
 9044TIP3    H151327   2.442   4.483   2.283  1.3996 -0.3583 -0.7644
 9044TIP3    H251328   2.467   4.494   2.134 -0.8163  0.5568 -1.1047
 9045TIP3   OH251329   6.023   6.694   2.637  0.2804 -0.2451 -0.5178
 9045TIP3    H151330   5.968   6.745   2.696  0.1017  0.1737 -1.0324
 9045TIP3    H251331   6.112   6.720   2.659  0.2938 -1.0512  0.4334
 9046TIP3   OH251332   4.217   1.566   1.663 -0.6175 -0.5958 -0.3317
 9046TIP3    H151333   4.168   1.625   1.720 -0.7462 -0.1195 -0.9142
 9046TIP3    H251334   4.157   1.494   1.644 -1.3956  0.3402 -1.6282
 9047TIP3   OH251335   6.561   1.533   1.663 -0.2511  0.3913  0.3546
 9047TIP3    H151336   6.475   1.492   1.667 -2.0652  3.9507  2.3364
 9047TIP3    H251337   6.605   1.505   1.744 -0.5580  0.5499  0.5763
 9048TIP3   OH251338   1.637   5.665   1.580 -0.1100 -0.2185 -0.5225
 9048TIP3    H151339   1.588   5.587   1.606  0.3174 -0.9712 -1.8868
 9048TIP3    H251340   1.577   5.738   1.599 -0.5330 -0.8578  0.7235
 9049TIP3   OH251341   3.883   5.400   0.566 -0.7776 -0.0072 -0.3774
 9049TIP3    H151342   3.886   5.361   0.654 -0.2984  1.5304  0.3231
 9049TIP3    H251343   3.790   5.411   0.548 -0.8561  1.0735  0.6077
 9050TIP3   OH251344   1.122   5.056   1.364  0.7088  0.3461  0.2519
 9050TIP3    H151345   1.044   5.101   1.398 -0.0462 -0.8293  0.1100
 9050TIP3    H251346   1.135   5.094   1.277 -0.4696 -0.3257 -0.2432
 9051TIP3   OH251347   5.121   0.817   1.267  0.3845 -0.2714 -0.0448
 9051TIP3    H151348   5.216   0.814   1.280  0.4556  0.0048 -0.4747
 9051TIP3    H251349   5.094   0.900   1.305  0.1269 -0.9087  1.2059
 9052TIP3   OH251350   1.361   3.476   2.605 -0.3846 -0.4317  0.2492
 9052TIP3    H151351   1.351   3.473   2.700 -2.2041 -0.1837  0.0867
 9052TIP3    H251352   1.415   3.399   2.585 -1.5919 -1.5999  1.2999
 9053TIP3   OH251353   7.357   3.236   2.868  0.0573  0.2141  0.1005
 9053TIP3    H151354   7.308   3.292   2.929 -0.4730 -0.0138 -0.1090
 9053TIP3    H251355   7.401   3.297   2.810 -1.2110  0.4307 -0.6759
 9054TIP3   OH251356   1.733   6.298   0.829 -0.5421 -0.2328 -0.5457
 9054TIP3    H151357   1.657   6.340   0.870 -1.9696 -0.7630 -2.5147
 9054TIP3    H251358   1.751   6.222   0.885 -0.2485  0.9143  0.9808
 9055TIP3   OH251359   4.104   3.232   1.165  0.0197  0.2740  0.2557
 9055TIP3    H151360   4.183   3.246   1.113 -1.3049 -1.6343 -2.4974
 9055TIP3    H251361   4.037   3.283   1.121 -0.6904  0.5554  1.5952
 9056TIP3   OH251362   1.753   3.788   2.812  0.3110 -0.1008  0.1610
 9056TIP3    H151363   1.770   3.842   2.736  2.4816 -0.5762  0.2527
 9056TIP3    H251364   1.800   3.830   2.884 -0.5914 -0.3901  0.9589
 9057TIP3   OH251365   5.961   7.418   2.234 -0.4738  0.1166 -0.4714
 9057TIP3    H151366   5.924   7.469   2.306 -1.0092  0.6475 -1.1115
 9057TIP3    H251367   5.891   7.413   2.169 -0.0695 -0.5318 -0.8706
 9058TIP3   OH251368   3.074   4.622   2.225  0.1724  0.5208  0.6462
 9058TIP3    H151369   3.024   4.688   2.177  0.3754  0.1681 -0.0767
 9058TIP3    H251370   3.070   4.544   2.169  1.6057  0.5119  0.4997
 9059TIP3   OH251371   3.595   7.241   1.197  0.0947  0.0559  1.0012
 9059TIP3    H151372   3.530   7.188   1.244  0.7220 -0.4556  1.3102
 9059TIP3    H251373   3.632   7.180   1.133  0.8232  0.1137  1.3601
 9060TIP3   OH251374   5.775   6.519   0.755 -0.1721 -0.0118  0.1917
 9060TIP3    H151375   5.706   6.580   0.729  0.8208  0.9076 -0.3752
 9060TIP3    H251376   5.769   6.448   0.691 -0.2176  0.3676 -0.2373
 9061TIP3   OH251377   3.834   0.891   0.525  0.7713 -0.1349 -0.4571
 9061TIP3    H151378   3.788   0.843   0.594  0.1498 -0.1931 -0.9082
 9061TIP3    H251379   3.927   0.884   0.549  0.4508  1.5095  1.4138
 9062TIP3   OH251380   7.505   5.859   1.249  0.6960 -0.7405 -0.1010
 9062TIP3    H151381   7.521   5.939   1.298  0.1810 -1.4693  1.3024
 9062TIP3    H251382   7.544   5.789   1.302 -0.2198 -1.6003 -0.5244
 9063TIP3   OH251383   4.175   6.410   1.128  0.0081 -0.1816 -0.3625
 9063TIP3    H151384   4.198   6.396   1.220  0.4967  0.7126 -0.3304
 9063TIP3    H251385   4.080   6.406   1.126 -0.0086 -0.1752  0.1932
 9064TIP3   OH251386   3.077   2.122   1.904 -0.1979 -0.3446 -0.1788
 9064TIP3    H151387   3.170   2.109   1.884 -0.1978 -0.5721 -0.0366
 9064TIP3    H251388   3.065   2.217   1.901  0.3177 -0.2123  0.9854
 9065TIP3   OH251389   0.706   5.125   2.658 -0.1951  0.0128 -0.1484
 9065TIP3    H151390   0.773   5.058   2.643 -0.2831 -0.3759  1.1020
 9065TIP3    H251391   0.726   5.193   2.594  0.0898 -1.0503 -1.2463
 9066TIP3   OH251392   6.751   6.946   1.671  0.5542  0.0950  0.0002
 9066TIP3    H151393   6.706   6.904   1.744  0.9738  0.7411  0.6386
 9066TIP3    H251394   6.705   6.915   1.593  2.1830 -3.3544  0.2118
 9067TIP3   OH251395   1.710   7.276   0.536  0.0284  0.4156  0.3539
 9067TIP3    H151396   1.622   7.313   0.532 -0.0599  0.5477  2.5989
 9067TIP3    H251397   1.767   7.352   0.545  0.2279  0.2385  0.5838
 9068TIP3   OH251398   7.005   2.081   0.835  0.2678  0.2904 -0.6862
 9068TIP3    H151399   7.094   2.081   0.871 -0.1974  0.5671  0.5033
 9068TIP3    H251400   6.987   2.172   0.814 -0.4884  0.5935  1.0795
 9069TIP3   OH251401   5.688   5.305   0.907 -0.3005 -0.4271  0.3820
 9069TIP3    H151402   5.754   5.266   0.850  0.3417 -0.1801  0.9456
 9069TIP3    H251403   5.720   5.393   0.924 -2.0843  0.6375 -1.4425
 9070TIP3   OH251404   3.102   7.135   1.753 -0.0401  0.7518 -0.0541
 9070TIP3    H151405   3.135   7.113   1.840  0.0551  0.6346 -0.1189
 9070TIP3    H251406   3.096   7.230   1.753 -1.6489  0.6839  0.6636
 9071TIP3   OH251407   1.345   2.256   3.193  0.0763  0.1169 -0.0515
 9071TIP3    H151408   1.389   2.238   3.110 -2.3954 -0.5342 -1.3130
 9071TIP3    H251409   1.328   2.170   3.231 -0.2430  0.3424  0.3229
 9072TIP3   OH251410   6.097   2.846   2.049 -0.3382  0.2160 -0.2667
 9072TIP3    H151411   6.095   2.793   2.129  1.2752 -0.5710 -0.6947
 9072TIP3    H251412   6.081   2.935   2.080 -0.3208 -0.1461  0.8580
 9073TIP3   OH251413   5.981   1.726   1.581 -0.2661  0.1310  0.1385
 9073TIP3    H151414   5.925   1.782   1.528 -1.5666 -1.2009  0.0493
 9073TIP3    H251415   5.921   1.677   1.637  0.8094 -1.1653  0.2106
 9074TIP3   OH251416   5.636   6.911   0.507 -0.2238  0.1906 -0.7410
 9074TIP3    H151417   5.550   6.926   0.467  0.0769  1.4522 -0.9651
 9074TIP3    H251418   5.693   6.976   0.466  0.5603  0.1695  0.2653
 9075TIP3   OH251419   0.430   7.454   2.172 -0.2981  0.0423  0.0895
 9075TIP3    H151420   0.440   7.414   2.259  1.5295 -0.4570 -0.3112
 9075TIP3    H251421   0.408   7.380   2.114  0.1696  0.0943 -0.1556
 9076TIP3   OH251422   7.061   1.786   0.745  0.1078 -0.1775  0.6843
 9076TIP3    H151423   6.992   1.726   0.719 -0.6141  0.7837  0.3065
 9076TIP3    H251424   7.020   1.841   0.813 -0.1898  1.7188 -0.9375
 9077TIP3   OH251425   4.135   1.337   1.781 -0.0734 -0.7932 -0.2239
 9077TIP3    H151426   4.218   1.356   1.825  0.8345  2.2008 -2.9022
 9077TIP3    H251427   4.074   1.319   1.853  2.2923 -0.6385  1.9714
 9078TIP3   OH251428   3.925   7.123   0.654  0.2917  0.4169 -0.2735
 9078TIP3    H151429   3.972   7.040   0.663 -0.1917  0.2120  0.4939
 9078TIP3    H251430   3.858   7.107   0.588 -0.8080 -0.3007  0.9648
 9079TIP3   OH251431   3.677   3.007   2.427 -0.0552 -0.0191  0.2816
 9079TIP3    H151432   3.584   3.027   2.416 -0.6478 -2.2247  0.6452
 9079TIP3    H251433   3.680   2.954   2.507  1.5488  0.1449  0.3509
 9080TIP3   OH251434   5.511   7.568   1.587 -0.1839 -0.0310 -0.3044
 9080TIP3    H151435   5.431   7.604   1.548 -0.5393  0.1576  0.5823
 9080TIP3    H251436   5.526   7.623   1.664  0.4452 -0.4700 -0.1146
 9081TIP3   OH251437   6.601   6.871   2.538 -0.1723 -0.0606  0.0362
 9081TIP3    H151438   6.549   6.944   2.503  0.8204  0.0993 -1.1934
 9081TIP3    H251439   6.568   6.858   2.627 -1.6182  0.6779 -0.3642
 9082TIP3   OH251440   2.291   0.732   1.174  0.1737 -0.3387 -0.1650
 9082TIP3    H151441   2.359   0.789   1.209  1.1145 -2.7240  2.2139
 9082TIP3    H251442   2.209   0.773   1.201  0.7321  0.8843 -0.2570
 9083TIP3   OH251443   4.132   5.410   2.050 -0.8235  0.1910 -0.4920
 9083TIP3    H151444   4.071   5.484   2.054 -2.5353 -1.1689 -0.3424
 9083TIP3    H251445   4.097   5.347   2.113  1.5273 -0.1195  0.5959
 9084TIP3   OH251446   6.416   7.113   1.128 -0.3393 -0.0127  0.1999
 9084TIP3    H151447   6.459   7.063   1.058  0.0506 -1.6519  1.5440
 9084TIP3    H251448   6.475   7.186   1.145  0.8421 -1.0180  0.5221
 9085TIP3   OH251449   7.173   6.987   0.834  0.2329  0.3264 -0.0086
 9085TIP3    H151450   7.139   6.898   0.820  0.6991  0.1434  0.0227
 9085TIP3    H251451   7.118   7.022   0.905  0.9167 -0.4215  0.9168
 9086TIP3   OH251452   0.231   2.552   0.335  0.2103 -0.1031  0.1392
 9086TIP3    H151453   0.273   2.637   0.353 -1.6610  0.8974  0.0042
 9086TIP3    H251454   0.225   2.549   0.239 -1.4337  0.5157  0.1998
 9087TIP3   OH251455   6.355   5.682   2.936  0.4065  0.1070 -0.3859
 9087TIP3    H151456   6.274   5.655   2.893  0.6561 -0.4316 -0.5176
 9087TIP3    H251457   6.414   5.607   2.928  1.5819  1.1278 -1.9426
 9088TIP3   OH251458   0.594   5.954   1.504  0.0217  0.1485  0.2427
 9088TIP3    H151459   0.672   5.982   1.456 -0.3512 -2.1277 -1.9142
 9088TIP3    H251460   0.521   5.991   1.454 -0.3239 -0.0508  0.5944
 9089TIP3   OH251461   7.205   2.083   1.852  0.3068 -0.5377  0.1193
 9089TIP3    H151462   7.110   2.086   1.868  0.6600  0.4171  2.3799
 9089TIP3    H251463   7.229   2.173   1.832  0.8666 -0.5788  0.5660
 9090TIP3   OH251464   1.398   2.849   1.680 -0.4142  0.2086  0.0423
 9090TIP3    H151465   1.450   2.828   1.603 -0.0347 -1.4828  0.6968
 9090TIP3    H251466   1.454   2.907   1.732  0.3174 -0.5704  0.1462
 9091TIP3   OH251467   4.869   5.125   0.579 -0.1772 -0.3449 -0.5806
 9091TIP3    H151468   4.828   5.211   0.574  0.1618 -0.2522 -2.6769
 9091TIP3    H251469   4.805   5.066   0.537  0.3362 -0.8106 -0.7201
 9092TIP3   OH251470   3.575   0.395   3.035  0.0644 -0.1491 -0.6836
 9092TIP3    H151471   3.576   0.450   3.113  0.5399  0.8981 -1.4111
 9092TIP3    H251472   3.581   0.305   3.069  2.6254  0.3432  0.4323
 9093TIP3   OH251473   4.713   5.967   2.937 -0.2569 -0.0710 -0.1090
 9093TIP3    H151474   4.705   5.889   2.883  0.2859  0.5336 -1.0917
 9093TIP3    H251475   4.762   6.029   2.883  0.1794  0.6086  1.0151
 9094TIP3   OH251476   6.865   0.379   1.559  0.0145 -0.2332 -0.0953
 9094TIP3    H151477   6.784   0.372   1.608  0.5801  0.5173  0.9748
 9094TIP3    H251478   6.924   0.315   1.599  0.4937  0.4137  0.2469
 9095TIP3   OH251479   2.580   4.129   0.939  0.1675  0.1434  0.1418
 9095TIP3    H151480   2.625   4.098   1.018  0.1863  3.2961  1.5129
 9095TIP3    H251481   2.507   4.182   0.972 -0.3731  0.7974 -1.9660
 9096TIP3   OH251482   2.308   1.644   2.445  0.1598  0.5481 -0.0978
 9096TIP3    H151483   2.260   1.615   2.522 -0.3430 -0.3169 -0.7158
 9096TIP3    H251484   2.332   1.735   2.464  0.6524  0.1345  1.3443
 9097TIP3   OH251485   7.432   2.901   0.734 -0.3287 -0.1247 -0.3612
 9097TIP3    H151486   7.460   2.922   0.823  0.8165 -0.1753 -0.7018
 9097TIP3    H251487   7.336   2.903   0.738 -0.3665 -2.1930  1.3608
 9098TIP3   OH251488   0.853   4.794   1.234  0.2189  0.4498  0.3190
 9098TIP3    H151489   0.885   4.800   1.144  0.3789  1.3168  0.4232
 9098TIP3    H251490   0.795   4.718   1.234 -0.1286  0.7039 -0.6245
 9099TIP3   OH251491   4.088   3.536   2.459 -0.3333 -0.0083  0.7535
 9099TIP3    H151492   4.140   3.560   2.536  0.7926  0.5032 -0.1313
 9099TIP3    H251493   4.057   3.447   2.477  0.9913 -0.3875  1.2389
 9100TIP3   OH251494   6.270   3.491   1.256 -0.5503  0.4406 -0.1301
 9100TIP3    H151495   6.228   3.412   1.289  1.6612 -1.6503 -1.8378
 9100TIP3    H251496   6.265   3.482   1.161 -1.5327  3.1826 -0.4067
 9101TIP3   OH251497   5.552   1.307   0.926 -0.1350  0.4787  0.4210
 9101TIP3    H151498   5.627   1.302   0.866 -0.9622  0.7466 -0.6511
 9101TIP3    H251499   5.476   1.319   0.869 -0.7903  2.1993  1.5767
 9102TIP3   OH251500   4.152   4.234   0.788  0.2083  0.3597 -0.3253
 9102TIP3    H151501   4.190   4.147   0.776  1.4928  1.0235 -1.3749
 9102TIP3    H251502   4.077   4.236   0.729 -0.5248 -0.4102  0.5537
 9103TIP3   OH251503   5.406   7.216   1.827 -0.2585 -0.7173 -0.2190
 9103TIP3    H151504   5.439   7.160   1.897 -2.4354 -1.4546  0.3209
 9103TIP3    H251505   5.451   7.299   1.838  0.9976 -1.4929  0.7120
 9104TIP3   OH251506   4.357   0.727   0.876  0.0485  0.3812  0.0386
 9104TIP3    H151507   4.449   0.741   0.855 -0.0207 -0.5847 -1.0241
 9104TIP3    H251508   4.309   0.775   0.809 -0.2405  1.1772  0.7964
 9105TIP3   OH251509   1.447   4.521   0.706  0.2020  0.3470  0.0084
 9105TIP3    H151510   1.440   4.616   0.697  2.1640  0.3648 -2.6738
 9105TIP3    H251511   1.540   4.505   0.724  0.5007 -1.0972 -2.3238
 9106TIP3   OH251512   5.811   2.628   1.092  0.2565 -0.1600 -0.2646
 9106TIP3    H151513   5.788   2.655   1.181 -1.4603  0.9672 -0.9979
 9106TIP3    H251514   5.815   2.710   1.043 -2.2645 -0.9069 -1.9380
 9107TIP3   OH251515   3.471   5.885   3.039 -0.0316 -0.0483 -0.1376
 9107TIP3    H151516   3.479   5.792   3.064 -1.8298 -0.4730 -0.9971
 9107TIP3    H251517   3.486   5.885   2.944  0.0125  0.5516 -0.1318
 9108TIP3   OH251518   2.972   6.922   2.339 -0.3166 -0.1212 -0.3989
 9108TIP3    H151519   2.930   6.891   2.420 -0.6616  1.7434  0.1829
 9108TIP3    H251520   3.008   7.008   2.363  2.0644 -0.7420 -1.4510
 9109TIP3   OH251521   1.013   0.799   1.019 -0.1806 -0.3896  0.0435
 9109TIP3    H151522   0.986   0.866   1.083  0.6310  0.4899 -0.4951
 9109TIP3    H251523   0.938   0.790   0.960  0.1626  1.0213 -0.6448
 9110TIP3   OH251524   5.800   1.004   1.720  0.0498  0.3818  0.0113
 9110TIP3    H151525   5.809   1.031   1.811 -0.2131 -0.0474  0.1692
 9110TIP3    H251526   5.714   0.962   1.716 -0.6813  1.8526 -0.8076
 9111TIP3   OH251527   5.710   0.213   0.824 -0.1794  0.2084 -0.0507
 9111TIP3    H151528   5.738   0.166   0.746 -0.5985 -1.2852  0.6585
 9111TIP3    H251529   5.667   0.291   0.791  0.0226 -0.1875 -1.2983
 9112TIP3   OH251530   6.970   5.627   1.350  0.2845 -0.3443 -0.2289
 9112TIP3    H151531   7.047   5.676   1.379 -0.6068  2.3662 -2.0291
 9112TIP3    H251532   7.006   5.550   1.306  1.8294 -0.4010  1.0207
 9113TIP3   OH251533   7.128   7.348   2.877 -0.1809 -0.1562  0.0134
 9113TIP3    H151534   7.059   7.306   2.825 -0.1041  0.1790 -0.3631
 9113TIP3    H251535   7.203   7.351   2.818 -0.0533  0.1011  0.1913
 9114TIP3   OH251536   4.520   6.166   3.311  0.1950  0.5715 -0.0834
 9114TIP3    H151537   4.467   6.105   3.362  1.4080 -0.7560 -0.3543
 9114TIP3    H251538   4.594   6.114   3.281  1.1960  2.1515 -0.4586
 9115TIP3   OH251539   6.336   2.222   0.504  0.1867 -0.1648  0.2388
 9115TIP3    H151540   6.271   2.276   0.459 -0.4253  0.1600  1.4712
 9115TIP3    H251541   6.396   2.286   0.544 -0.1484 -0.3942  1.1313
 9116TIP3   OH251542   7.333   6.091   1.478 -0.0814 -0.2231  0.1137
 9116TIP3    H151543   7.424   6.060   1.480  0.0064  0.0125 -0.1723
 9116TIP3    H251544   7.282   6.018   1.510  0.2855 -0.1031  1.0022
 9117TIP3   OH251545   3.724   3.294   1.431  0.2589  0.1722  0.2277
 9117TIP3    H151546   3.809   3.330   1.403  0.4105  0.0112  0.4811
 9117TIP3    H251547   3.738   3.267   1.521 -0.0700  0.1580  0.2745
 9118TIP3   OH251548   1.868   0.425   2.157 -0.2924  0.6019 -0.1019
 9118TIP3    H151549   1.877   0.520   2.162  1.9556  0.5158 -1.5752
 9118TIP3    H251550   1.891   0.402   2.068 -0.0538 -1.4227  0.4157
 9119TIP3   OH251551   3.131   4.779   0.864 -0.9290 -0.2237  0.2099
 9119TIP3    H151552   3.143   4.757   0.956  2.2038 -0.4072 -0.1248
 9119TIP3    H251553   3.093   4.866   0.864 -2.9567 -1.0341  1.6069
 9120TIP3   OH251554   7.413   5.421   3.141 -0.3778  0.1407 -0.0866
 9120TIP3    H151555   7.506   5.400   3.135 -0.8601 -3.8088  2.3442
 9120TIP3    H251556   7.374   5.382   3.063 -0.3392 -1.3177  0.5992
 9121TIP3   OH251557   2.581   7.317   1.938 -0.4926  0.1085 -0.2753
 9121TIP3    H151558   2.526   7.395   1.944 -0.4284  0.1202  0.2745
 9121TIP3    H251559   2.584   7.296   1.845 -1.0076  0.4049 -0.3622
 9122TIP3   OH251560   0.255   1.744   1.077 -0.2964 -0.4073  0.5149
 9122TIP3    H151561   0.278   1.690   1.001  1.1307  1.0668 -0.1605
 9122TIP3    H251562   0.165   1.720   1.097  0.1050 -2.6473 -0.0650
 9123TIP3   OH251563   3.199   5.022   3.368  0.4012 -0.7766 -0.5261
 9123TIP3    H151564   3.193   4.945   3.311 -0.3963 -0.5222 -0.8028
 9123TIP3    H251565   3.290   5.050   3.360  0.2702 -0.6468 -1.8341
 9124TIP3   OH251566   6.506   4.751   0.627 -0.1921  0.1786  0.2648
 9124TIP3    H151567   6.573   4.815   0.602 -0.6464 -0.0142 -1.6131
 9124TIP3    H251568   6.515   4.742   0.722  3.1391 -0.6078  0.0075
 9125TIP3   OH251569   2.884   4.058   2.904 -0.2771  0.2989 -0.3183
 9125TIP3    H151570   2.940   4.125   2.943 -0.0466 -0.1393  0.1165
 9125TIP3    H251571   2.813   4.047   2.967  0.5822 -1.0720  0.4439
 9126TIP3   OH251572   5.334   6.516   1.076 -0.0190 -0.1794 -0.3782
 9126TIP3    H151573   5.313   6.499   1.168 -0.4996 -1.5520 -0.7134
 9126TIP3    H251574   5.425   6.546   1.077 -1.2032  3.8671  0.9026
 9127TIP3   OH251575   5.227   2.162   1.468 -0.3359  0.5598  0.2739
 9127TIP3    H151576   5.182   2.103   1.529  0.5015  0.7935  1.1334
 9127TIP3    H251577   5.311   2.119   1.451 -0.6109  0.4277 -0.8416
 9128TIP3   OH251578   4.344   0.277   1.987  0.5314 -0.6850 -0.3117
 9128TIP3    H151579   4.406   0.341   1.951  1.3690 -0.2035  1.8539
 9128TIP3    H251580   4.395   0.196   1.991  1.7691  0.0816  3.0610
 9129TIP3   OH251581   0.930   6.388   2.512 -0.0142 -0.7265 -0.4602
 9129TIP3    H151582   0.991   6.341   2.456  0.4784  0.3874 -0.8723
 9129TIP3    H251583   0.979   6.404   2.593  0.5928  0.9815 -1.1325
 9130TIP3   OH251584   5.587   1.300   2.229 -0.0083 -0.2107 -0.0271
 9130TIP3    H151585   5.669   1.337   2.196 -0.9351  1.0926 -0.9240
 9130TIP3    H251586   5.546   1.372   2.276  0.0077 -1.2707  1.7016
 9131TIP3   OH251587   3.089   3.616   1.106 -0.0273 -0.3306 -0.6942
 9131TIP3    H151588   3.146   3.549   1.069 -0.1741 -1.0585  0.3412
 9131TIP3    H251589   3.011   3.568   1.133  0.3121  0.0454  1.0657
 9132TIP3   OH251590   1.661   0.915   1.974  0.9425  0.3079  0.1817
 9132TIP3    H151591   1.715   0.840   1.999  0.5654  0.1561  0.5549
 9132TIP3    H251592   1.577   0.876   1.948  0.3032  0.6697  1.5927
 9133TIP3   OH251593   4.308   6.632   1.254 -0.1454  0.0931  0.6184
 9133TIP3    H151594   4.386   6.673   1.291 -0.9250  0.2852  2.1421
 9133TIP3    H251595   4.298   6.551   1.304 -0.7070 -0.1093  0.1874
 9134TIP3   OH251596   6.431   4.589   2.592  0.6403 -0.4372 -0.6013
 9134TIP3    H151597   6.468   4.648   2.526  1.4051  2.0137  1.7973
 9134TIP3    H251598   6.504   4.568   2.649 -0.0327 -2.3445 -0.3672
 9135TIP3   OH251599   3.696   7.001   0.746  0.0929 -0.3269  0.1818
 9135TIP3    H151600   3.620   7.059   0.745 -0.0380 -0.4900  0.5605
 9135TIP3    H251601   3.758   7.044   0.806  0.3914 -0.0842 -0.2910
 9136TIP3   OH251602   3.439   7.165   2.965 -0.3668 -0.1899 -0.3090
 9136TIP3    H151603   3.486   7.166   2.882  0.1007  0.0202 -0.0482
 9136TIP3    H251604   3.505   7.190   3.030 -0.4952 -1.2505  0.2460
 9137TIP3   OH251605   2.890   0.063   0.809 -0.3922 -0.0921  0.0441
 9137TIP3    H151606   2.821   0.108   0.857 -0.2376 -1.1712  1.3321
 9137TIP3    H251607   2.902   0.116   0.730  0.2968  2.5363  1.7832
 9138TIP3   OH251608   0.468   5.467   1.959 -1.0344 -0.1271 -0.1097
 9138TIP3    H151609   0.497   5.406   2.027 -2.2010 -0.8440 -0.2349
 9138TIP3    H251610   0.423   5.536   2.006 -1.3913 -0.3580 -0.1091
 9139TIP3   OH251611   0.595   2.705   1.390 -0.4557  0.3783 -0.2036
 9139TIP3    H151612   0.632   2.786   1.355  0.8511  1.0558  2.5060
 9139TIP3    H251613   0.584   2.722   1.483 -1.8498 -1.9790  0.1297
 9140TIP3   OH251614   5.821   0.559   1.914  0.0250  0.5178 -0.0438
 9140TIP3    H151615   5.864   0.642   1.935  1.9587 -0.8554  1.9019
 9140TIP3    H251616   5.893   0.499   1.895 -1.2695 -0.9244 -0.6399
 9141TIP3   OH251617   5.776   0.293   2.789  0.4994  0.5500  0.0827
 9141TIP3    H151618   5.746   0.374   2.829  1.3157  0.5143  0.7890
 9141TIP3    H251619   5.761   0.226   2.857  0.7573  0.2815 -0.1244
 9142TIP3   OH251620   2.256   1.587   2.056  0.9963  0.3075 -0.4321
 9142TIP3    H151621   2.222   1.518   2.113  0.1981  2.5508  1.9865
 9142TIP3    H251622   2.333   1.620   2.103  1.0052  1.4547 -1.2302
 9143TIP3   OH251623   0.261   6.511   1.494 -0.1308 -1.1517 -0.0428
 9143TIP3    H151624   0.313   6.554   1.562 -0.0738 -1.0986 -0.1201
 9143TIP3    H251625   0.175   6.554   1.499 -0.0138 -0.8853 -0.2551
 9144TIP3   OH251626   6.772   3.019   0.926 -0.6971  0.2755  0.3266
 9144TIP3    H151627   6.823   3.083   0.876 -1.1326  0.3296 -0.0597
 9144TIP3    H251628   6.682   3.053   0.924 -1.0105 -0.5383 -0.2291
 9145TIP3   OH251629   2.603   1.858   1.256  0.7869 -0.1762  0.7577
 9145TIP3    H151630   2.699   1.855   1.258  0.8631 -0.7884 -1.2168
 9145TIP3    H251631   2.582   1.946   1.225  0.8226 -0.6448 -0.6880
 9146TIP3   OH251632   3.138   2.633   3.177  0.0571 -0.0943 -0.0135
 9146TIP3    H151633   3.136   2.549   3.132 -0.2880 -0.6844  1.0653
 9146TIP3    H251634   3.105   2.696   3.113 -0.6214 -0.9406 -0.5135
 9147TIP3   OH251635   3.314   6.386   1.925 -0.1593 -0.1049 -0.4764
 9147TIP3    H151636   3.333   6.373   1.832 -0.4000  0.0664 -0.5512
 9147TIP3    H251637   3.288   6.478   1.931  1.0057  0.2067 -0.0448
 9148TIP3   OH251638   6.370   0.710   3.356 -0.1332  0.2370 -0.0636
 9148TIP3    H151639   6.299   0.772   3.371  0.4277  0.6638  0.9847
 9148TIP3    H251640   6.441   0.764   3.320 -1.3051 -0.6883 -4.3074
 9149TIP3   OH251641   3.327   0.035   2.860  1.1268  0.3266 -0.6905
 9149TIP3    H151642   3.375   0.073   2.786  1.2126  0.5242 -0.5336
 9149TIP3    H251643   3.391  -0.020   2.905  0.5175 -1.5903 -2.0355
 9150TIP3   OH251644   5.378   1.948   1.813 -0.3369  0.1605 -0.3315
 9150TIP3    H151645   5.305   1.893   1.841  1.3162 -0.9271  2.1458
 9150TIP3    H251646   5.378   1.940   1.717 -1.1979 -2.8271 -0.1860
 9151TIP3   OH251647   4.023   5.454   2.963 -0.1280  0.0468 -0.2506
 9151TIP3    H151648   3.935   5.452   2.926 -0.2534 -1.2780  0.0562
 9151TIP3    H251649   4.016   5.513   3.038 -0.7774 -0.0638 -0.2118
 9152TIP3   OH251650   7.431   5.506   2.820 -0.1043 -0.3798  0.4269
 9152TIP3    H151651   7.387   5.446   2.881 -0.1847  1.7345  2.5924
 9152TIP3    H251652   7.504   5.455   2.786 -2.4986 -3.0820 -1.1598
 9153TIP3   OH251653   2.198   2.064   2.048 -0.1809 -0.0039  0.4245
 9153TIP3    H151654   2.248   2.130   1.999 -1.2637 -0.2784 -1.1189
 9153TIP3    H251655   2.191   1.990   1.987 -0.8076 -0.7197  1.3429
 9154TIP3   OH251656   6.729   2.566   1.028  0.3790 -0.0340 -0.1812
 9154TIP3    H151657   6.672   2.597   1.098 -2.9069 -1.9977 -1.7472
 9154TIP3    H251658   6.708   2.623   0.954  0.4238 -0.8161 -0.8036
 9155TIP3   OH251659   5.906   0.812   2.000  0.0638  0.3113 -0.4549
 9155TIP3    H151660   5.836   0.848   2.054  0.7413  0.8029  0.1197
 9155TIP3    H251661   5.981   0.870   2.015  0.3537  0.3182 -1.7281
 9156TIP3   OH251662   4.681   1.483   1.587  0.3750  0.5623  0.1746
 9156TIP3    H151663   4.655   1.412   1.647  0.3718  0.3254 -0.1033
 9156TIP3    H251664   4.609   1.546   1.593 -0.6092 -0.3838 -1.0627
 9157TIP3   OH251665   3.539   5.859   2.258  0.1710 -0.4833  0.6516
 9157TIP3    H151666   3.475   5.925   2.282  1.2831  0.4504  1.1323
 9157TIP3    H251667   3.580   5.833   2.340  0.7598 -0.7001  0.2980
 9158TIP3   OH251668   6.269   2.265   2.191 -0.1162 -0.2906 -0.1751
 9158TIP3    H151669   6.226   2.333   2.139  0.5600  1.1441  1.0590
 9158TIP3    H251670   6.235   2.183   2.156  0.0240  0.6005 -2.5879
 9159TIP3   OH251671   7.545   4.542   2.788 -0.9404 -0.5215 -0.0162
 9159TIP3    H151672   7.598   4.609   2.745 -2.5242 -0.7503 -2.5109
 9159TIP3    H251673   7.548   4.566   2.881 -0.8507  2.5853 -0.7093
 9160TIP3   OH251674   2.612   5.028   0.420  0.2471  0.4239 -0.3603
 9160TIP3    H151675   2.535   4.994   0.373  0.6975  0.8529 -1.4430
 9160TIP3    H251676   2.581   5.110   0.459  0.4683  1.3060 -1.9211
 9161TIP3   OH251677   5.602   7.209   3.504 -0.1708  0.1980 -0.1852
 9161TIP3    H151678   5.604   7.296   3.465  0.2126  0.2800  0.0143
 9161TIP3    H251679   5.555   7.155   3.440  2.1234 -0.1268 -1.7144
 9162TIP3   OH251680   4.086   6.081   1.779  0.0058 -0.4706  0.5056
 9162TIP3    H151681   4.074   6.171   1.808 -0.9457 -0.5148  0.2847
 9162TIP3    H251682   4.181   6.070   1.772  0.1161  0.7288 -0.1273
 9163TIP3   OH251683   1.659   3.005   2.665 -0.3536  0.3436 -0.0042
 9163TIP3    H151684   1.694   2.943   2.729 -0.3613  0.2147 -0.1249
 9163TIP3    H251685   1.734   3.061   2.643  0.2093 -0.8981 -1.4261
 9164TIP3   OH251686   5.441   6.975   3.424 -0.3037  0.0648 -0.0040
 9164TIP3    H151687   5.411   6.889   3.455 -2.0541  0.0409 -1.6201
 9164TIP3    H251688   5.372   7.036   3.452  0.2821  0.7414 -0.0048
 9165TIP3   OH251689   0.888   1.264   1.104  0.3143  0.1372  0.8745
 9165TIP3    H151690   0.811   1.318   1.119 -0.8309 -1.1793 -0.0460
 9165TIP3    H251691   0.949   1.323   1.059 -1.2375  0.5008 -0.9094
 9166TIP3   OH251692   5.842   5.352   1.260 -0.1736  1.0862  0.2204
 9166TIP3    H151693   5.886   5.294   1.323 -0.4672 -0.5083 -0.9973
 9166TIP3    H251694   5.874   5.439   1.283  0.7515  0.4018  1.7295
 9167TIP3   OH251695   4.635   2.227   1.828  0.0370 -0.0986  0.1909
 9167TIP3    H151696   4.730   2.227   1.815 -0.3149  0.4852 -3.1712
 9167TIP3    H251697   4.608   2.138   1.806 -0.3508  0.2140 -0.6240
 9168TIP3   OH251698   1.276   1.388   1.660  1.0701 -0.0361 -0.1062
 9168TIP3    H151699   1.356   1.439   1.671  0.1557  1.9732 -1.8499
 9168TIP3    H251700   1.206   1.454   1.660 -0.5725 -1.6851  1.0387
 9169TIP3   OH251701   5.264   5.155   1.967  0.3614 -0.1503 -0.0191
 9169TIP3    H151702   5.254   5.120   1.879  0.6963 -2.2517  0.7035
 9169TIP3    H251703   5.276   5.077   2.022  2.0790  1.1784  1.6205
 9170TIP3   OH251704   2.218   3.898   2.230  0.3990  0.2794 -0.3003
 9170TIP3    H151705   2.141   3.934   2.274  0.3447  0.9128 -0.8981
 9170TIP3    H251706   2.288   3.961   2.248  0.5704  0.1389 -0.4629
 9171TIP3   OH251707   1.164   0.972   2.090  0.2397 -0.5501 -0.1659
 9171TIP3    H151708   1.130   1.046   2.140 -0.8668 -1.1379 -0.0272
 9171TIP3    H251709   1.102   0.901   2.106  1.1656 -1.4538 -0.4688
 9172TIP3   OH251710   4.433   0.902   2.507 -0.7508 -0.0311  0.9075
 9172TIP3    H151711   4.339   0.900   2.526 -0.8697 -1.5925  0.3431
 9172TIP3    H251712   4.448   0.824   2.453  0.9754 -0.1708  1.5166
 9173TIP3   OH251713   4.939   6.267   2.973 -0.2119  0.3991  0.4028
 9173TIP3    H151714   4.964   6.302   3.058  1.0853 -0.2029  0.2941
 9173TIP3    H251715   4.893   6.339   2.930 -0.6608  0.7912  1.4926
 9174TIP3   OH251716   5.653   2.983   0.834 -0.0358 -0.5575 -0.1293
 9174TIP3    H151717   5.651   3.078   0.832  3.8532 -0.3010 -2.7222
 9174TIP3    H251718   5.624   2.956   0.747 -0.4795 -1.7517  0.3635
 9175TIP3   OH251719   1.377   5.016   1.973 -0.7262 -0.1583 -0.4682
 9175TIP3    H151720   1.351   4.928   1.999  1.4882 -1.3221 -1.9020
 9175TIP3    H251721   1.473   5.013   1.969 -0.5798  2.3462 -0.5258
 9176TIP3   OH251722   0.208   4.293   3.293 -0.2238  0.5984 -0.0197
 9176TIP3    H151723   0.286   4.332   3.253 -0.2770  0.5413 -0.1798
 9176TIP3    H251724   0.139   4.304   3.227  0.4086 -2.3387 -1.3274
 9177TIP3   OH251725   4.803   3.965   0.943 -0.2658  0.0761  0.3074
 9177TIP3    H151726   4.786   3.984   1.035  1.6905  0.6863  0.5927
 9177TIP3    H251727   4.894   3.992   0.929  0.9389 -3.8206 -0.7395
 9178TIP3   OH251728   4.270   1.105   2.785  0.0748 -0.3882 -0.4959
 9178TIP3    H151729   4.255   1.015   2.815  0.2131 -0.6688 -1.2591
 9178TIP3    H251730   4.358   1.126   2.818 -0.4538 -0.0710  0.7671
 9179TIP3   OH251731   6.840   3.902   1.993 -0.5980 -0.3029 -0.3259
 9179TIP3    H151732   6.895   3.882   1.918  0.2120 -2.2014  0.7044
 9179TIP3    H251733   6.772   3.835   1.992 -1.7281  0.8096 -0.4286
 9180TIP3   OH251734   3.790   0.539   1.457  0.0096 -0.2707 -0.2642
 9180TIP3    H151735   3.860   0.484   1.421 -0.5482 -0.8139 -0.5473
 9180TIP3    H251736   3.738   0.564   1.380 -1.7262 -2.1920  0.1821
 9181TIP3   OH251737   6.341   1.275   1.128 -0.0078 -0.1643 -0.7540
 9181TIP3    H151738   6.426   1.237   1.106  0.7691 -0.1095  1.8884
 9181TIP3    H251739   6.279   1.202   1.122  0.3538 -0.4057 -1.7854
 9182TIP3   OH251740   4.750   3.538   2.235 -0.1902 -0.8080  0.2823
 9182TIP3    H151741   4.840   3.562   2.257  0.0024 -1.1115 -0.1556
 9182TIP3    H251742   4.754   3.513   2.143 -0.3653 -2.5190  0.7014
 9183TIP3   OH251743   5.517   2.566   1.586 -0.2776  0.0298 -0.0531
 9183TIP3    H151744   5.528   2.505   1.514 -1.4741 -1.3843  0.9071
 9183TIP3    H251745   5.422   2.577   1.595 -0.1136  1.3254  0.3888
 9184TIP3   OH251746   4.098   3.194   0.843  0.0354 -0.1201 -0.1387
 9184TIP3    H151747   4.135   3.274   0.806 -1.5281  0.8328  0.2629
 9184TIP3    H251748   4.163   3.165   0.908  1.2861 -0.0060 -1.2995
 9185TIP3   OH251749   1.123   5.326   1.951  0.6192  0.3813 -0.0108
 9185TIP3    H151750   1.133   5.390   1.881  0.4905  0.4086 -0.0031
 9185TIP3    H251751   1.112   5.242   1.906  1.0135  0.3304 -0.0204
 9186TIP3   OH251752   1.429   3.879   3.395  0.0101 -0.1906  0.4960
 9186TIP3    H151753   1.487   3.952   3.374  0.8323 -0.7473  0.7957
 9186TIP3    H251754   1.348   3.898   3.346  0.6137  0.3360 -0.3254
 9187TIP3   OH251755   4.934   2.238   1.427  0.0420  0.6549 -0.2686
 9187TIP3    H151756   4.878   2.169   1.461  1.3186 -0.3466 -0.1237
 9187TIP3    H251757   4.949   2.296   1.502  0.4418  0.0739  0.1119
 9188TIP3   OH251758   1.871   3.675   1.793  0.3726 -0.3419  0.1190
 9188TIP3    H151759   1.918   3.634   1.721  0.5692 -0.0161  0.0564
 9188TIP3    H251760   1.909   3.763   1.798 -0.5732  0.0968 -0.2527
 9189TIP3   OH251761   4.082   0.301   2.122  0.0997 -0.5778  0.3575
 9189TIP3    H151762   4.167   0.307   2.079  0.3703  1.8955  1.0689
 9189TIP3    H251763   4.098   0.329   2.212 -1.1282 -2.0551  1.0864
 9190TIP3   OH251764   0.163   2.644   1.441 -0.3508 -0.2759  0.0567
 9190TIP3    H151765   0.103   2.571   1.456 -0.5168 -0.4858 -1.4877
 9190TIP3    H251766   0.141   2.676   1.353  0.0656  1.3172  0.4968
 9191TIP3   OH251767   4.709   4.259   2.124 -0.3146 -0.0668  0.6344
 9191TIP3    H151768   4.631   4.272   2.178 -2.3986 -1.2535 -1.8755
 9191TIP3    H251769   4.749   4.346   2.119 -1.3251  0.5221  2.1989
 9192TIP3   OH251770   2.794   1.338   2.865  0.7630 -0.8098  0.4855
 9192TIP3    H151771   2.779   1.430   2.887  0.1484 -0.7841 -0.0117
 9192TIP3    H251772   2.889   1.331   2.852  0.8287 -0.2833  0.6934
 9193TIP3   OH251773   0.971   3.787   1.201  0.1211 -0.3983 -0.4363
 9193TIP3    H151774   0.876   3.786   1.205  0.0339 -0.3089 -2.0147
 9193TIP3    H251775   0.995   3.697   1.177  0.3494 -0.1144 -1.3048
 9194TIP3   OH251776   2.906   6.887   2.609 -0.5074  0.9517  0.1263
 9194TIP3    H151777   2.960   6.863   2.684 -0.3412 -0.8595 -0.5427
 9194TIP3    H251778   2.817   6.891   2.644 -0.3615  0.6598  0.5391
 9195TIP3   OH251779   6.949   5.435   2.440 -0.7773  0.0240  0.1777
 9195TIP3    H151780   6.899   5.365   2.482  0.4989 -0.5673  0.7643
 9195TIP3    H251781   6.996   5.392   2.368 -1.4264  0.6547 -0.6406
 9196TIP3   OH251782   6.424   1.401   0.774 -0.4284  0.3954 -0.2108
 9196TIP3    H151783   6.397   1.313   0.802 -0.3503  0.1160 -0.9973
 9196TIP3    H251784   6.364   1.423   0.703 -0.7546  1.1840  0.2889
 9197TIP3   OH251785   7.533   1.173   2.712  0.4489 -0.2855 -0.5872
 9197TIP3    H151786   7.574   1.257   2.691 -1.3595  0.4733 -1.2799
 9197TIP3    H251787   7.514   1.179   2.805  3.0131 -1.1925  0.0698
 9198TIP3   OH251788   1.432   7.433   2.645 -0.4464  0.0219 -0.2008
 9198TIP3    H151789   1.491   7.383   2.588 -1.8079 -0.7855 -0.9497
 9198TIP3    H251790   1.428   7.520   2.605 -2.0708 -0.7819 -1.9255
 9199TIP3   OH251791   5.769   7.316   0.797  0.4808  0.1198 -0.5001
 9199TIP3    H151792   5.833   7.271   0.853 -0.5879 -0.4805  0.2739
 9199TIP3    H251793   5.700   7.251   0.783  0.3274  0.5420 -1.8519
 9200TIP3   OH251794   4.123   2.722   1.032  0.2889 -0.2338  1.1352
 9200TIP3    H151795   4.087   2.676   0.956 -1.3173  0.1907  1.5900
 9200TIP3    H251796   4.173   2.795   0.995 -0.7340  0.1565  0.4815
 9201TIP3   OH251797   5.232   0.100   1.244  0.3374  0.6517  0.0985
 9201TIP3    H151798   5.297   0.052   1.193  0.9169  0.6193  0.8515
 9201TIP3    H251799   5.225   0.052   1.326  0.6989  1.6585  0.7437
 9202TIP3   OH251800   4.095   2.391   2.982  0.6800  0.4696 -0.0292
 9202TIP3    H151801   4.055   2.444   3.050  0.4558 -0.1991  0.3709
 9202TIP3    H251802   4.040   2.313   2.976 -0.6285  1.4575 -2.5281
 9203TIP3   OH251803   4.848   6.682   1.372 -0.4319  0.0699  0.0601
 9203TIP3    H151804   4.879   6.772   1.362 -2.4270  0.7039 -1.1081
 9203TIP3    H251805   4.794   6.685   1.451  0.6586 -0.4739  0.8371
 9204TIP3   OH251806   4.375   0.946   1.525 -0.7085 -0.2237 -1.3173
 9204TIP3    H151807   4.303   0.928   1.465 -1.1297 -0.8657 -0.6307
 9204TIP3    H251808   4.368   1.040   1.542 -2.2139 -0.4939 -0.2299
 9205TIP3   OH251809   2.211   3.652   1.247  0.1984 -0.3907  0.3544
 9205TIP3    H151810   2.263   3.732   1.235 -0.5606  0.2436  1.1387
 9205TIP3    H251811   2.149   3.653   1.174  0.2721 -0.3253  0.2914
 9206TIP3   OH251812   2.806   2.104   1.937 -0.0746  0.0590 -0.0655
 9206TIP3    H151813   2.773   2.192   1.953  0.3069 -0.1017  1.8511
 9206TIP3    H251814   2.900   2.116   1.925 -0.1105 -0.0325 -0.4635
 9207TIP3   OH251815   7.007   4.292   1.675 -0.0281 -0.2859 -0.3523
 9207TIP3    H151816   7.064   4.321   1.746  1.2773 -0.5687 -1.2487
 9207TIP3    H251817   6.997   4.369   1.619 -0.9900 -0.0854  0.0692
 9208TIP3   OH251818   6.500   7.484   2.108  0.2519 -0.2939 -0.5838
 9208TIP3    H151819   6.596   7.487   2.107  0.3532 -2.0537  0.6626
 9208TIP3    H251820   6.479   7.391   2.106 -1.5077  0.0719 -2.7025
 9209TIP3   OH251821   0.551   5.153   1.443 -0.4729  0.0872  0.3537
 9209TIP3    H151822   0.626   5.095   1.428 -0.0149  0.5635  0.7854
 9209TIP3    H251823   0.510   5.120   1.523 -0.1363  0.4309  0.6716
 9210TIP3   OH251824   2.052   7.019   2.260 -0.1224  0.5065  0.2858
 9210TIP3    H151825   2.060   7.104   2.303 -0.4096  0.3874  0.5865
 9210TIP3    H251826   2.010   6.963   2.326 -1.4562  0.5710 -0.4730
 9211TIP3   OH251827   3.292   3.975   0.540  0.3341 -0.0149  0.4158
 9211TIP3    H151828   3.312   3.891   0.499  1.4136  1.0183 -1.2694
 9211TIP3    H251829   3.374   4.002   0.581  0.0716  0.3612  0.7019
 9212TIP3   OH251830   4.497   7.297   0.856  0.1561 -0.2412  0.1065
 9212TIP3    H151831   4.550   7.230   0.813 -0.8052 -1.1800  0.3418
 9212TIP3    H251832   4.560   7.363   0.885  1.2412 -1.4887  0.6853
 9213TIP3   OH251833   4.911   6.213   2.521  0.2842 -0.6119  0.3360
 9213TIP3    H151834   4.896   6.143   2.585 -0.5209 -1.0287 -0.2943
 9213TIP3    H251835   4.949   6.169   2.445 -2.8682 -0.9412 -1.2151
 9214TIP3   OH251836   4.154   3.596   0.485  0.0685  0.0915 -0.1798
 9214TIP3    H151837   4.247   3.572   0.481 -0.0924 -0.5970  0.1706
 9214TIP3    H251838   4.107   3.513   0.486 -0.5542  0.4357 -0.2868
 9215TIP3   OH251839   6.896   6.563   2.266  0.5321  0.5135  0.4031
 9215TIP3    H151840   6.921   6.588   2.355 -2.6446  1.9322  1.0262
 9215TIP3    H251841   6.834   6.491   2.278  0.1474  0.6552 -0.6839
 9216TIP3   OH251842   5.064   5.857   1.313  0.0557  0.6069  0.0058
 9216TIP3    H151843   5.024   5.894   1.392  2.9276 -1.5357  2.7084
 9216TIP3    H251844   5.004   5.788   1.285 -0.0261 -0.0256  1.6615
 9217TIP3   OH251845   2.783   5.442   1.802  0.2590  0.2052  0.2851
 9217TIP3    H151846   2.844   5.425   1.730  1.8328  1.0356  1.3655
 9217TIP3    H251847   2.753   5.531   1.787 -0.9482 -0.2934 -0.3916
 9218TIP3   OH251848   6.112   4.651   2.928  0.1705  0.0293 -0.2697
 9218TIP3    H151849   6.113   4.646   2.832 -0.9136  0.9356 -0.3429
 9218TIP3    H251850   6.035   4.601   2.954  0.5932 -0.4092  0.1502
 9219TIP3   OH251851   7.010   2.705   1.769  0.0551 -0.1859  0.1184
 9219TIP3    H151852   6.932   2.727   1.822 -1.5072 -0.1244 -2.0700
 9219TIP3    H251853   6.980   2.635   1.711  1.5422  0.0940 -1.0419
 9220TIP3   OH251854   2.984   7.541   1.803  0.1357  0.9885 -0.3899
 9220TIP3    H151855   3.056   7.492   1.844  0.5987  1.7476 -0.2892
 9220TIP3    H251856   2.965   7.492   1.723 -0.6981 -0.4403  0.6307
 9221TIP3   OH251857   0.192   5.765   2.912  0.2723 -0.5805  0.0293
 9221TIP3    H151858   0.239   5.806   2.983 -0.2562  0.7477 -0.3633
 9221TIP3    H251859   0.260   5.726   2.856  0.6680 -2.0072  1.4325
 9222TIP3   OH251860   7.467   0.632   1.038  0.3861 -0.1840  0.3050
 9222TIP3    H151861   7.436   0.599   1.122  0.3998 -0.9780  0.0087
 9222TIP3    H251862   7.414   0.710   1.021  0.9037  0.4186  1.3973
 9223TIP3   OH251863   2.715   6.591   2.160  0.2125  0.4089  0.1255
 9223TIP3    H151864   2.707   6.617   2.252 -0.0945  0.7724 -0.0015
 9223TIP3    H251865   2.805   6.615   2.137  0.1076  0.8614  0.1691
 9224TIP3   OH251866   0.796   1.514   2.085  0.0616 -0.1324  0.0987
 9224TIP3    H151867   0.714   1.532   2.131  0.6674  2.5220  0.2827
 9224TIP3    H251868   0.861   1.503   2.155  0.5257  1.4826 -0.0514
 9225TIP3   OH251869   0.396   0.211   3.186 -0.6383 -0.0661 -0.0683
 9225TIP3    H151870   0.365   0.149   3.120  0.0789 -1.7505  1.1085
 9225TIP3    H251871   0.491   0.203   3.183 -0.4316  1.9470 -0.7352
 9226TIP3   OH251872   6.171   4.221   1.837  0.7548 -0.8500 -0.2217
 9226TIP3    H151873   6.151   4.267   1.918 -0.6736 -0.8375 -0.5657
 9226TIP3    H251874   6.105   4.250   1.775  1.2310 -1.6105 -1.1184
 9227TIP3   OH251875   0.152   6.662   0.345  0.1947  0.5043  0.1492
 9227TIP3    H151876   0.060   6.634   0.352  0.6518 -1.0300  0.2078
 9227TIP3    H251877   0.147   6.758   0.346 -1.3515  0.4517  0.8652
 9228TIP3   OH251878   1.930   6.993   0.901 -0.1627  0.7937 -0.4443
 9228TIP3    H151879   1.877   6.916   0.880  0.8819 -1.0162  2.8860
 9228TIP3    H251880   1.897   7.023   0.986  2.4058  1.1878  0.4915
 9229TIP3   OH251881   0.186   3.048   2.573 -0.3540  0.1522 -0.1873
 9229TIP3    H151882   0.124   3.027   2.643  0.7477  1.3918  1.2199
 9229TIP3    H251883   0.257   2.985   2.584  1.7345  2.6332  2.4547
 9230TIP3   OH251884   6.050   6.731   2.194  0.3625 -0.0907 -0.0691
 9230TIP3    H151885   6.076   6.814   2.155  0.1115  1.3890  2.6928
 9230TIP3    H251886   5.997   6.755   2.270 -1.5025 -2.8516 -0.3629
 9231TIP3   OH251887   4.662   5.149   1.531  0.0408  0.0386 -0.2674
 9231TIP3    H151888   4.645   5.240   1.505 -0.4007 -0.9686 -3.9492
 9231TIP3    H251889   4.731   5.120   1.472 -0.9565 -2.5224 -0.2683
 9232TIP3   OH251890   7.013   5.286   2.201  0.0695  0.2957  0.7627
 9232TIP3    H151891   7.075   5.232   2.250  1.4135  0.6080 -0.5008
 9232TIP3    H251892   7.068   5.333   2.137 -1.5252  0.1975 -0.7537
 9233TIP3   OH251893   5.615   5.906   2.093  0.2863  0.5688  0.0033
 9233TIP3    H151894   5.699   5.886   2.053 -0.1038 -0.4400 -0.3669
 9233TIP3    H251895   5.550   5.886   2.025 -0.2814  0.7008  0.4923
 9234TIP3   OH251896   6.088   1.010   1.670  0.1609  0.0000 -0.1720
 9234TIP3    H151897   6.108   1.087   1.723 -0.4080  0.8173 -1.1094
 9234TIP3    H251898   5.993   1.000   1.675  0.2590 -0.8418  0.2005
 9235TIP3   OH251899   5.759   1.698   3.111  0.1371 -0.0030  0.4749
 9235TIP3    H151900   5.668   1.690   3.141 -0.1738  1.1828 -0.1055
 9235TIP3    H251901   5.763   1.783   3.067  1.4123 -0.2499  0.0653
 9236TIP3   OH251902   2.546   2.833   1.107 -0.4462 -0.2525  0.1416
 9236TIP3    H151903   2.547   2.739   1.085  0.6761 -0.3695  0.6364
 9236TIP3    H251904   2.562   2.877   1.023 -0.3196 -0.5297  0.0172
 9237TIP3   OH251905   7.209   4.224   2.526  0.3342  0.4481 -0.1541
 9237TIP3    H151906   7.294   4.256   2.556  1.2136 -1.6192 -0.2579
 9237TIP3    H251907   7.205   4.251   2.434  1.1497  0.0752 -0.3123
 9238TIP3   OH251908   6.643   0.922   1.305 -0.1630 -0.4186  0.6231
 9238TIP3    H151909   6.606   0.853   1.250  1.1286 -1.5897  1.1641
 9238TIP3    H251910   6.650   0.881   1.392  2.1252 -0.2018  0.6000
 9239TIP3   OH251911   3.049   3.441   1.878 -0.0669  0.5603  0.5278
 9239TIP3    H151912   3.124   3.435   1.819 -0.0687 -1.9522  0.6630
 9239TIP3    H251913   3.083   3.414   1.963 -0.9509  0.0591  0.7362
 9240TIP3   OH251914   2.882   2.074   1.526 -0.4060 -0.5325  0.0097
 9240TIP3    H151915   2.914   2.019   1.597  1.0341  0.9919  0.6176
 9240TIP3    H251916   2.936   2.050   1.451 -0.0846 -0.2845  0.1569
 9241TIP3   OH251917   7.309   2.140   2.241 -0.3493 -0.5177  0.2534
 9241TIP3    H151918   7.317   2.213   2.180 -0.4166 -0.7599 -0.0458
 9241TIP3    H251919   7.259   2.074   2.194 -0.1375 -0.8286  0.4567
 9242TIP3   OH251920   6.535   4.216   2.063 -0.0782  0.5993 -0.1685
 9242TIP3    H151921   6.499   4.298   2.097 -2.6581  0.0694 -1.3967
 9242TIP3    H251922   6.590   4.243   1.990  0.8219  1.3260  0.7382
 9243TIP3   OH251923   3.406   4.703   0.749  0.0703  0.2195 -0.2204
 9243TIP3    H151924   3.410   4.608   0.754  0.7558 -0.0293 -3.3994
 9243TIP3    H251925   3.313   4.724   0.754 -0.1266 -0.6765 -0.0638
 9244TIP3   OH251926   3.101   3.679   2.071 -0.2306 -0.1336 -0.1104
 9244TIP3    H151927   3.102   3.584   2.069  0.2424 -0.1976  1.4969
 9244TIP3    H251928   3.015   3.704   2.037 -0.0098 -1.0764 -1.4093
 9245TIP3   OH251929   7.293   1.745   3.140 -0.6561  0.2671  0.6035
 9245TIP3    H151930   7.258   1.718   3.225 -0.0097  2.6493  1.7215
 9245TIP3    H251931   7.339   1.827   3.159  0.2084  0.4285 -1.9208
 9246TIP3   OH251932   6.043   4.071   0.996 -0.3428 -0.1185 -0.6007
 9246TIP3    H151933   6.038   4.135   0.925  0.4615 -1.7125 -2.1786
 9246TIP3    H251934   6.129   4.086   1.035 -0.9416  1.0220  0.3670
 9247TIP3   OH251935   1.973   0.415   0.891  0.1802 -0.5911  0.7451
 9247TIP3    H151936   2.064   0.426   0.918  0.6075 -0.0750 -0.8050
 9247TIP3    H251937   1.975   0.425   0.796 -1.7391  1.1975  0.8179
 9248TIP3   OH251938   0.376   6.612   2.684 -0.5873  0.5225  0.0356
 9248TIP3    H151939   0.410   6.639   2.769 -3.6045 -0.2970  1.6496
 9248TIP3    H251940   0.298   6.667   2.671 -0.5231  0.2235 -1.9275
 9249TIP3   OH251941   2.604   1.549   0.651  0.1191 -0.3368 -0.4411
 9249TIP3    H151942   2.694   1.571   0.625  0.7100 -3.1680 -1.1776
 9249TIP3    H251943   2.571   1.494   0.580 -1.3226 -1.3197  0.9113
 9250TIP3   OH251944   1.821   2.154   1.332 -0.6279  0.3280 -0.4524
 9250TIP3    H151945   1.824   2.197   1.247 -1.5326  2.4168  0.5018
 9250TIP3    H251946   1.890   2.196   1.383 -0.8845 -0.0439  0.2160
 9251TIP3   OH251947   0.944   5.019   2.554 -0.4929  0.2832  0.1692
 9251TIP3    H151948   0.998   4.945   2.523 -1.6541 -0.5336  0.0389
 9251TIP3    H251949   1.008   5.087   2.574  0.5474 -0.3502 -0.7922
 9252TIP3   OH251950   0.569   1.695   3.383 -0.3705 -1.0228  0.2678
 9252TIP3    H151951   0.571   1.788   3.359  0.5455 -1.1951 -0.3857
 9252TIP3    H251952   0.503   1.657   3.325 -0.7868 -0.7759  0.5728
 9253TIP3   OH251953   5.827   4.245   1.801  0.0948  0.6890 -0.4433
 9253TIP3    H151954   5.796   4.199   1.724 -0.5637  1.8332 -0.8831
 9253TIP3    H251955   5.779   4.327   1.802  0.1201  0.7302  1.1654
 9254TIP3   OH251956   5.709   6.747   2.682  0.5145 -0.2413 -0.3578
 9254TIP3    H151957   5.724   6.837   2.711  0.7199 -0.5087  0.4067
 9254TIP3    H251958   5.724   6.694   2.761 -2.2627 -0.7493 -0.0474
 9255TIP3   OH251959   5.145   0.464   2.507  0.0945  0.1062  0.6669
 9255TIP3    H151960   5.200   0.506   2.574 -1.0988  1.1044  1.0507
 9255TIP3    H251961   5.141   0.528   2.436 -0.3066 -0.1026  0.4983
 9256TIP3   OH251962   0.911   0.520   1.527  0.1045 -0.3412  0.2003
 9256TIP3    H151963   0.983   0.570   1.565  0.5369  0.4389 -1.5297
 9256TIP3    H251964   0.890   0.453   1.592  1.4434  0.3002  1.3327
 9257TIP3   OH251965   3.696   2.735   0.729  0.3259  0.9846  0.5923
 9257TIP3    H151966   3.767   2.699   0.782  0.9210  0.6324 -0.4132
 9257TIP3    H251967   3.617   2.716   0.780  0.6533 -1.2895  0.3851
 9258TIP3   OH251968   6.248   1.978   2.726  0.1402 -0.4224  0.0839
 9258TIP3    H151969   6.277   1.943   2.810 -1.2100 -1.7893  0.0216
 9258TIP3    H251970   6.182   2.044   2.749  0.9535  0.3855  0.1307
 9259TIP3   OH251971   3.408   4.170   1.183  0.5493 -0.4470  0.2798
 9259TIP3    H151972   3.365   4.175   1.268  0.2197  0.4022  0.0669
 9259TIP3    H251973   3.501   4.156   1.204  0.5977  0.5931  0.8055
 9260TIP3   OH251974   1.740   7.009   0.557 -0.1356  0.2449  0.0714
 9260TIP3    H151975   1.825   6.972   0.533 -0.7813 -0.6079 -1.0184
 9260TIP3    H251976   1.744   7.100   0.525  1.2634  1.0514  2.3001
 9261TIP3   OH251977   3.309   2.447   1.896  0.6050 -0.3690 -0.1014
 9261TIP3    H151978   3.380   2.434   1.960  2.2687 -0.8983 -1.9445
 9261TIP3    H251979   3.286   2.539   1.904 -1.2843 -0.9608  3.1990
 9262TIP3   OH251980   0.744   7.342   1.122  0.2476  0.1153  0.3527
 9262TIP3    H151981   0.788   7.257   1.118  1.5015  0.7755 -1.0406
 9262TIP3    H251982   0.653   7.324   1.098 -0.0636 -1.1272  2.2415
 9263TIP3   OH251983   0.650   6.735   2.391  0.2290  0.4271  0.4007
 9263TIP3    H151984   0.615   6.647   2.377 -0.4121  0.7849 -0.3555
 9263TIP3    H251985   0.610   6.764   2.472  1.0105 -0.2416  1.0483
 9264TIP3   OH251986   1.985   2.251   2.125  0.3316 -0.1900 -0.0034
 9264TIP3    H151987   2.058   2.305   2.156  0.5770 -0.3297 -0.3305
 9264TIP3    H251988   2.021   2.162   2.120  0.4826 -0.0822 -1.2517
 9265TIP3   OH251989   4.543   6.741   1.304  0.1042  0.3323 -0.4841
 9265TIP3    H151990   4.609   6.681   1.338 -0.7218 -0.1648  0.3040
 9265TIP3    H251991   4.533   6.807   1.373 -1.2509 -0.4243  0.0998
 9266TIP3   OH251992   5.423   6.678   2.734  0.1279  0.1110  0.1198
 9266TIP3    H151993   5.416   6.705   2.642 -0.2329  1.1015  0.4213
 9266TIP3    H251994   5.515   6.693   2.757 -0.1279  1.4325  0.3658
 9267TIP3   OH251995   4.813   1.555   2.097  0.0217  0.1942 -0.6635
 9267TIP3    H151996   4.843   1.491   2.033 -0.9454 -0.6620 -0.2975
 9267TIP3    H251997   4.720   1.567   2.076 -0.2724  0.0152  0.4609
 9268TIP3   OH251998   0.777   3.607   2.735  0.2770  0.8124 -0.1451
 9268TIP3    H151999   0.725   3.579   2.659  1.0327  1.3381 -0.8796
 9268TIP3    H252000   0.739   3.692   2.759 -0.6682  0.1548  0.7735
 9269TIP3   OH252001   4.908   1.435   2.787 -0.0670  0.3126  0.2643
 9269TIP3    H152002   5.003   1.441   2.782 -0.0932  0.4138 -0.1667
 9269TIP3    H252003   4.891   1.346   2.818  0.1349 -0.5344 -1.8595
 9270TIP3   OH252004   2.156   3.156   2.876 -0.4279  0.0226  0.2641
 9270TIP3    H152005   2.183   3.188   2.790  0.8989 -1.0324  0.2630
 9270TIP3    H252006   2.233   3.171   2.932 -1.3982  1.0455  1.3808
 9271TIP3   OH252007   0.909   4.156   1.245  0.2586  0.0546  0.0392
 9271TIP3    H152008   0.852   4.146   1.169  0.7349  0.6473 -0.4123
 9271TIP3    H252009   0.850   4.162   1.319 -0.2820  0.8430 -0.4418
 9272TIP3   OH252010   3.962   0.578   0.691  0.3291  0.3328 -0.1155
 9272TIP3    H152011   3.868   0.587   0.675  0.0662  1.6220  1.8351
 9272TIP3    H252012   3.970   0.573   0.786  2.1006 -2.0401 -0.2902
 9273TIP3   OH252013   4.281   6.909   1.227  0.1843 -0.0120  0.2556
 9273TIP3    H152014   4.347   6.956   1.176  1.1733 -1.9829 -0.4092
 9273TIP3    H252015   4.261   6.831   1.174 -2.1060  0.1070  0.8189
 9274TIP3   OH252016   5.872   6.815   0.639  0.0010 -0.0787 -0.1101
 9274TIP3    H152017   5.826   6.792   0.719  0.3042 -1.1187 -0.2274
 9274TIP3    H252018   5.808   6.864   0.587 -1.0493 -1.6842 -0.3721
 9275TIP3   OH252019   0.172   4.550   1.604 -0.0909  0.1457 -0.3526
 9275TIP3    H152020   0.215   4.521   1.524 -0.6399 -1.2228 -0.1845
 9275TIP3    H252021   0.196   4.483   1.669 -2.6051 -0.8145 -0.3208
 9276TIP3   OH252022   6.151   6.092   2.249  0.4479 -0.2097 -0.2170
 9276TIP3    H152023   6.177   6.000   2.260  0.1486 -0.3143 -0.3737
 9276TIP3    H252024   6.068   6.099   2.296 -0.3715 -0.4291 -1.5835
 9277TIP3   OH252025   4.306   2.971   1.930  0.3056  0.0406 -0.6078
 9277TIP3    H152026   4.316   2.879   1.905 -2.7854 -0.2317 -1.1445
 9277TIP3    H252027   4.341   3.020   1.856 -0.2358 -0.7338 -1.3890
 9278TIP3   OH252028   4.538   7.502   2.539 -0.5491  0.1920  0.3355
 9278TIP3    H152029   4.490   7.419   2.540  0.8741 -0.6442  0.6507
 9278TIP3    H252030   4.520   7.541   2.625 -1.1963  0.2223  0.1963
 9279TIP3   OH252031   4.809   2.521   1.378 -0.1169  0.0441 -0.6930
 9279TIP3    H152032   4.759   2.513   1.459  1.8046 -0.7020  0.5063
 9279TIP3    H252033   4.866   2.444   1.378  3.7827  2.6065  0.0984
 9280TIP3   OH252034   1.077   5.693   0.557  0.2380  0.6806 -0.2162
 9280TIP3    H152035   1.169   5.719   0.553  0.3169  0.4811  0.2513
 9280TIP3    H252036   1.029   5.772   0.533  0.4657  1.3449  1.3886
 9281TIP3   OH252037   0.243   0.211   0.802  0.2294 -0.2028 -0.0803
 9281TIP3    H152038   0.295   0.291   0.801  0.0818 -0.0536  1.3766
 9281TIP3    H252039   0.288   0.154   0.865 -0.2907 -0.8215 -0.2531
 9282TIP3   OH252040   5.146   3.133   2.276 -0.1077 -0.1800 -0.0226
 9282TIP3    H152041   5.188   3.163   2.194 -0.9793  3.1088  0.5722
 9282TIP3    H252042   5.052   3.135   2.257 -0.2710 -0.4448  0.7319
 9283TIP3   OH252043   3.323   1.434   1.238 -0.6519 -0.1723  0.0662
 9283TIP3    H152044   3.271   1.356   1.222 -1.1198  0.3515 -1.0367
 9283TIP3    H252045   3.343   1.469   1.151  1.5205 -0.3212  0.4269
 9284TIP3   OH252046   7.209   6.251   2.690  0.2358  0.8665 -0.7907
 9284TIP3    H152047   7.200   6.240   2.785  1.8269 -0.2686 -0.7303
 9284TIP3    H252048   7.260   6.332   2.681  2.5751 -0.5035 -0.5066
 9285TIP3   OH252049   4.979   6.328   1.518 -0.1714 -0.3486 -0.4562
 9285TIP3    H152050   5.044   6.257   1.521 -2.3749 -2.5665 -1.4154
 9285TIP3    H252051   4.988   6.366   1.431 -0.9362 -1.5130 -1.0712
 9286TIP3   OH252052   1.239   6.969   1.727 -0.3846 -0.1410  0.0783
 9286TIP3    H152053   1.185   6.925   1.793 -0.2818  0.0671  0.3035
 9286TIP3    H252054   1.269   7.049   1.771 -0.7832  0.2847 -0.4096
 9287TIP3   OH252055   0.883   3.222   3.638 -0.2810  0.3257  0.1208
 9287TIP3    H152056   0.902   3.306   3.679 -1.6652  0.5683  0.3149
 9287TIP3    H252057   0.905   3.235   3.545 -2.4433  1.6349 -0.2894
 9288TIP3   OH252058   2.456   4.550   0.621  0.6958 -0.3526  0.7906
 9288TIP3    H152059   2.538   4.598   0.620  1.1159 -1.0043  1.8877
 9288TIP3    H252060   2.449   4.516   0.710 -0.6166 -0.5650  0.6340
 9289TIP3   OH252061   0.400   4.659   1.798  0.5007 -0.1695  0.0311
 9289TIP3    H152062   0.421   4.691   1.710 -0.9513  0.2529 -0.1855
 9289TIP3    H252063   0.433   4.569   1.799  2.4550  0.4923 -0.1820
 9290TIP3   OH252064   2.739   4.920   1.054  0.4920  0.1023 -0.0612
 9290TIP3    H152065   2.658   4.963   1.083 -0.2380 -1.7694  0.8221
 9290TIP3    H252066   2.800   4.932   1.126  1.2270  1.9188 -0.9140
 9291TIP3   OH252067   0.646   6.777   0.577 -0.2358 -0.9862 -0.1889
 9291TIP3    H152068   0.634   6.710   0.644 -2.3680  0.3244  0.8605
 9291TIP3    H252069   0.620   6.735   0.495 -0.3008 -1.8014  0.2422
 9292TIP3   OH252070   7.207   5.414   3.310 -0.1408  0.3781 -0.7166
 9292TIP3    H152071   7.169   5.346   3.255  0.1582  1.1688 -1.9560
 9292TIP3    H252072   7.294   5.429   3.273  0.3859  0.4072  0.4649
 9293TIP3   OH252073   0.973   1.433   1.896 -0.1950 -0.3978 -0.0433
 9293TIP3    H152074   1.042   1.405   1.955 -0.9302 -0.1269  0.9747
 9293TIP3    H252075   0.892   1.419   1.945 -0.7396  1.1263 -0.4382
 9294TIP3   OH252076   3.693   6.735   1.918  0.1783 -0.1275 -0.1276
 9294TIP3    H152077   3.773   6.780   1.889 -0.2780 -0.3477 -1.8383
 9294TIP3    H252078   3.713   6.642   1.906  0.0680 -0.2515  0.5882
 9295TIP3   OH252079   4.834   6.763   1.653  0.4313 -0.3725  0.2902
 9295TIP3    H152080   4.930   6.761   1.647  0.3825  1.0830 -2.2398
 9295TIP3    H252081   4.810   6.849   1.618 -1.8702 -1.2740 -0.4715
 9296TIP3   OH252082   6.221   2.752   1.326 -0.0579 -0.1000  0.1037
 9296TIP3    H152083   6.317   2.746   1.325 -0.1350 -2.9105 -1.0714
 9296TIP3    H252084   6.194   2.722   1.239 -2.0408 -3.6091  1.7156
 9297TIP3   OH252085   5.425   3.278   3.302 -0.5867  0.7542  0.3670
 9297TIP3    H152086   5.442   3.186   3.322 -2.6520  0.4801  1.0973
 9297TIP3    H252087   5.367   3.307   3.373 -0.2991  2.5155 -0.0733
 9298TIP3   OH252088   7.512   6.684   1.810 -0.0967  0.4381  0.7242
 9298TIP3    H152089   7.561   6.642   1.881  0.2754 -1.0403 -0.3393
 9298TIP3    H252090   7.477   6.611   1.759 -1.8009  1.4679  0.3350
 9299TIP3   OH252091   1.553   3.656   1.535 -0.9846 -0.0517  0.4053
 9299TIP3    H152092   1.648   3.665   1.548 -1.1706  2.1520  0.7027
 9299TIP3    H252093   1.515   3.713   1.602 -2.5098 -0.4180 -0.1149
 9300TIP3   OH252094   4.489   3.890   0.736 -0.4778 -0.0905 -0.1784
 9300TIP3    H152095   4.580   3.859   0.744 -0.0114  0.8342 -1.4738
 9300TIP3    H252096   4.437   3.825   0.783  1.0481  0.5670  2.6862
 9301TIP3   OH252097   2.219   5.937   0.893 -0.4423 -0.0265  0.2246
 9301TIP3    H152098   2.246   6.026   0.917 -2.7623  1.1106 -1.0538
 9301TIP3    H252099   2.261   5.922   0.808 -1.1665  0.4505 -0.2312
 9302TIP3   OH252100   1.787   1.000   1.153 -0.3815 -0.4520 -0.1567
 9302TIP3    H152101   1.718   0.954   1.105 -0.4277  0.2412 -0.7800
 9302TIP3    H252102   1.767   1.093   1.140  0.0163 -0.2511  0.6178
 9303TIP3   OH252103   4.271   7.417   1.437  0.1356  0.0375 -0.0891
 9303TIP3    H152104   4.321   7.498   1.446  0.9639  0.0242 -3.1293
 9303TIP3    H252105   4.241   7.418   1.346 -2.1287 -1.8451  0.5341
 9304TIP3   OH252106   4.100   0.970   1.857  0.0300 -0.4651 -0.4095
 9304TIP3    H152107   4.183   0.923   1.858 -0.3109 -1.0813  0.3993
 9304TIP3    H252108   4.125   1.062   1.853  0.7713 -0.6309  0.0865
 9305TIP3   OH252109   3.300   0.151   1.220  0.0427 -0.2482 -0.1145
 9305TIP3    H152110   3.351   0.150   1.301 -0.2027 -0.4970  0.0398
 9305TIP3    H252111   3.365   0.154   1.150  0.2916 -1.2125  0.0661
 9306TIP3   OH252112   1.863   1.895   1.020  0.2528  0.0953 -0.5204
 9306TIP3    H152113   1.842   1.987   1.035 -0.2415  0.3579 -2.5247
 9306TIP3    H252114   1.829   1.850   1.097 -3.2546  1.1297 -1.2889
 9307TIP3   OH252115   3.700   2.041   0.676 -0.0131  0.1081  0.5394
 9307TIP3    H152116   3.684   2.018   0.585 -1.6690 -1.0553  1.0696
 9307TIP3    H252117   3.693   2.137   0.678 -0.3784  0.1114 -0.4744
 9308TIP3   OH252118   4.424   0.360   1.045 -0.1206  0.7715  0.1964
 9308TIP3    H152119   4.469   0.284   1.010 -1.6857  0.3026 -0.9410
 9308TIP3    H252120   4.435   0.428   0.978 -0.5841  0.8287  0.1688
 9309TIP3   OH252121   6.593   3.206   0.990 -0.1505  0.1952  0.0982
 9309TIP3    H152122   6.505   3.242   0.976 -1.4940 -2.6999  0.2856
 9309TIP3    H252123   6.596   3.186   1.084  0.1573 -0.9563 -0.1413
 9310TIP3   OH252124   3.091   1.077   0.463  0.1255  0.2968  0.1120
 9310TIP3    H152125   3.105   1.021   0.540 -0.7646 -0.4161 -0.2292
 9310TIP3    H252126   3.175   1.076   0.417  0.5096  0.3155  0.7991
 9311TIP3   OH252127   6.225   2.707   2.652  0.6845  0.3098  0.1373
 9311TIP3    H152128   6.168   2.630   2.643 -0.7509  1.1897  1.2077
 9311TIP3    H252129   6.236   2.718   2.747 -0.1930  2.1163  0.0783
 9312TIP3   OH252130   7.214   4.505   1.214 -0.0234  0.2403  0.0518
 9312TIP3    H152131   7.234   4.427   1.162  2.1594  0.2830  0.7473
 9312TIP3    H252132   7.211   4.473   1.304 -0.3326  0.7653  0.2292
 9313TIP3   OH252133   6.533   3.534   0.900 -0.5014 -0.0447  0.0113
 9313TIP3    H152134   6.466   3.480   0.941  0.3929  0.0767  1.7324
 9313TIP3    H252135   6.556   3.487   0.820  0.1569 -2.2116  1.3733
 9314TIP3   OH252136   0.591   7.152   2.101 -0.1595 -0.1860 -0.2207
 9314TIP3    H152137   0.507   7.194   2.083  0.8173  1.8884 -0.2018
 9314TIP3    H252138   0.655   7.223   2.098  1.7837 -1.8783 -1.4216
 9315TIP3   OH252139   5.412   4.598   0.755 -0.5985  0.4104  0.2417
 9315TIP3    H152140   5.329   4.620   0.798  0.5915 -0.0758  3.0292
 9315TIP3    H252141   5.431   4.509   0.784  1.6204  1.0554  0.9525
 9316TIP3   OH252142   5.883   2.663   1.900 -0.8612  0.1835 -0.3038
 9316TIP3    H152143   5.956   2.610   1.867 -1.7474  0.0444 -2.1667
 9316TIP3    H252144   5.911   2.690   1.987 -0.3997 -3.3982  0.8252
 9317TIP3   OH252145   0.156   6.926   0.348  0.1022 -0.2640 -0.2114
 9317TIP3    H152146   0.175   6.967   0.431 -0.9794 -1.6600  0.7826
 9317TIP3    H252147   0.117   6.995   0.294  2.5013  1.1332 -0.2835
 9318TIP3   OH252148   0.500   2.795   2.528 -0.4471 -0.0362  0.6201
 9318TIP3    H152149   0.436   2.752   2.585 -0.2466 -0.9098  0.2078
 9318TIP3    H252150   0.447   2.840   2.462 -0.6481 -0.2647  0.6235
 9319TIP3   OH252151   5.268   6.994   0.503 -0.2788 -0.0512  0.4679
 9319TIP3    H152152   5.217   6.931   0.554 -1.0566  1.3969  1.5463
 9319TIP3    H252153   5.230   7.079   0.524  0.4080  0.7585 -1.3394
 9320TIP3   OH252154   5.358   2.712   0.857 -0.5963  0.1714  0.2532
 9320TIP3    H152155   5.321   2.634   0.899  1.2716 -0.0881  1.5426
 9320TIP3    H252156   5.413   2.677   0.786 -1.1009  0.4349 -0.2785
 9321TIP3   OH252157   2.324   3.020   1.375  0.4275  0.2202  0.1367
 9321TIP3    H152158   2.263   3.067   1.318  0.5766 -0.2274 -0.4040
 9321TIP3    H252159   2.333   2.934   1.334  2.0177  0.5260 -0.2364
 9322TIP3   OH252160   4.397   0.023   0.570  0.0034  0.0747  0.9573
 9322TIP3    H152161   4.372   0.111   0.600 -2.1492 -0.7680  1.8454
 9322TIP3    H252162   4.328  -0.001   0.507  0.3048 -1.1630  1.0797
 9323TIP3   OH252163   5.154   7.476   1.468  0.3028  0.0279 -0.2589
 9323TIP3    H152164   5.111   7.392   1.449  1.4670 -0.5586 -0.3743
 9323TIP3    H252165   5.183   7.468   1.558 -1.2743  1.0870  0.3893
 9324TIP3   OH252166   2.766   3.591   0.919  0.2372  0.0341  0.3015
 9324TIP3    H152167   2.828   3.570   0.848  0.3887  1.2239  0.0565
 9324TIP3    H252168   2.701   3.522   0.915  0.0024  0.2974 -1.2988
 9325TIP3   OH252169   0.463   3.944   0.683 -0.3899  0.3148  0.4304
 9325TIP3    H152170   0.476   3.912   0.773 -0.8433 -1.0524  0.0257
 9325TIP3    H252171   0.437   3.867   0.633  2.1295  0.5247 -1.4085
 9326TIP3   OH252172   0.243   5.852   1.383  0.3285  0.0574  0.3299
 9326TIP3    H152173   0.302   5.790   1.426  1.5976  0.1942 -1.1444
 9326TIP3    H252174   0.294   5.933   1.379  0.3390 -0.0113 -1.5696
 9327TIP3   OH252175   3.131   6.074   2.628  0.0285 -0.0440 -0.0709
 9327TIP3    H152176   3.081   6.050   2.549  0.3939 -0.2762 -0.2361
 9327TIP3    H252177   3.181   6.151   2.602  2.1819 -1.6416 -0.9310
 9328TIP3   OH252178   0.577   6.106   2.913  0.0725 -0.0021  0.2027
 9328TIP3    H152179   0.493   6.096   2.870  1.0574  0.7718 -2.0156
 9328TIP3    H252180   0.600   6.017   2.943 -0.0204 -0.8851 -2.1744
 9329TIP3   OH252181   4.853   3.589   1.650 -0.4842  0.3553 -0.1651
 9329TIP3    H152182   4.777   3.549   1.608 -0.9409  0.3739  0.6107
 9329TIP3    H252183   4.824   3.606   1.740  0.1847  1.0747 -0.0715
 9330TIP3   OH252184   7.448   0.391   3.268 -0.0272 -0.2263 -0.3136
 9330TIP3    H152185   7.394   0.471   3.271  0.6929  0.3251 -1.4964
 9330TIP3    H252186   7.534   0.419   3.298  0.1135 -0.6719 -0.2933
 9331TIP3   OH252187   2.756   0.305   1.288 -0.1618  0.2451  0.2062
 9331TIP3    H152188   2.779   0.397   1.278 -1.6172  0.7120  0.8444
 9331TIP3    H252189   2.701   0.285   1.212  2.6660 -1.0495 -1.6822
 9332TIP3   OH252190   6.038   6.575   0.644 -0.0392 -0.5815  0.1084
 9332TIP3    H152191   6.036   6.632   0.721 -0.7315 -0.0498 -0.2899
 9332TIP3    H252192   5.949   6.541   0.637 -0.6098  1.0972 -1.7065
 9333TIP3   OH252193   5.690   0.430   1.239 -0.0387 -0.5157 -0.6504
 9333TIP3    H152194   5.735   0.412   1.322 -0.8292  1.4110  0.2458
 9333TIP3    H252195   5.652   0.345   1.214 -0.0285 -1.0904  1.1155
 9334TIP3   OH252196   6.302   4.336   2.934  0.2387  0.6612 -0.5925
 9334TIP3    H152197   6.214   4.351   2.898 -1.0613 -2.1691  1.0664
 9334TIP3    H252198   6.332   4.255   2.892  0.8584  0.1090  0.8581
 9335TIP3   OH252199   2.810   0.720   0.878 -0.0563 -0.2979  0.3605
 9335TIP3    H152200   2.748   0.649   0.898  0.7561 -0.7180  1.4513
 9335TIP3    H252201   2.875   0.679   0.822 -0.5729  0.0646 -0.5222
 9336TIP3   OH252202   0.966   1.584   0.427 -0.2954 -0.2931 -0.2111
 9336TIP3    H152203   0.956   1.489   0.419 -1.0160 -0.5102  2.4164
 9336TIP3    H252204   0.880   1.614   0.457  0.7545  0.7483  1.9400
 9337TIP3   OH252205   6.328   0.174   2.091 -0.1955  0.6467 -0.1148
 9337TIP3    H152206   6.402   0.114   2.102 -0.2467  0.4179 -0.9146
 9337TIP3    H252207   6.330   0.230   2.168  0.8560  0.6885 -0.1539
 9338TIP3   OH252208   0.112   0.575   2.051 -0.3414 -0.3062 -0.1365
 9338TIP3    H152209   0.149   0.553   2.137 -1.7655  0.2025  0.6432
 9338TIP3    H252210   0.187   0.607   2.001  0.6083 -1.0230  0.7540
 9339TIP3   OH252211   6.794   7.446   2.339 -0.6554  0.6783  0.5454
 9339TIP3    H152212   6.767   7.535   2.360 -1.0451  0.6495  0.1803
 9339TIP3    H252213   6.786   7.440   2.244  1.4878  0.9356  0.3100
 9340TIP3   OH252214   0.264   1.260   0.918  0.0439  0.2501 -0.1082
 9340TIP3    H152215   0.175   1.293   0.907 -0.7276 -1.2894  1.1613
 9340TIP3    H252216   0.272   1.244   1.012  0.8944 -1.6433 -0.4631
 9341TIP3   OH252217   2.931   5.798   1.983 -0.3099 -0.3016 -0.2931
 9341TIP3    H152218   2.907   5.751   2.062 -2.6324  1.2120  0.0060
 9341TIP3    H252219   2.966   5.881   2.014 -1.2549  0.3128 -0.8087
 9342TIP3   OH252220   1.707   2.918   2.259 -0.0727 -0.1563  0.8467
 9342TIP3    H152221   1.739   3.008   2.257 -1.2959  0.2962  1.2422
 9342TIP3    H252222   1.672   2.902   2.171 -0.7058  0.0793  1.0504
 9343TIP3   OH252223   3.578   4.672   2.082 -0.2402 -0.6728  0.2472
 9343TIP3    H152224   3.548   4.716   2.162 -0.1854  0.4096 -0.3107
 9343TIP3    H252225   3.498   4.639   2.041 -0.9449  2.7483 -1.5666
 9344TIP3   OH252226   3.398   4.739   1.265  0.4405  0.3965  0.5970
 9344TIP3    H152227   3.384   4.817   1.318  2.8215  0.7235  0.8821
 9344TIP3    H252228   3.451   4.770   1.191  1.7259 -0.9756  0.9021
 9345TIP3   OH252229   4.268   7.390   2.489  0.1181 -0.2137 -0.2957
 9345TIP3    H152230   4.251   7.477   2.526  0.5759  0.0079 -0.5974
 9345TIP3    H252231   4.287   7.335   2.565  0.3124  0.0647 -0.1396
 9346TIP3   OH252232   2.876   4.875   1.267  0.2211  0.3327  0.1990
 9346TIP3    H152233   2.945   4.908   1.323  0.6269  1.1860 -0.7602
 9346TIP3    H252234   2.796   4.884   1.319  0.6692  0.4547  0.8772
 9347TIP3   OH252235   4.073   5.313   2.503 -0.4410  0.1698 -0.1075
 9347TIP3    H152236   4.150   5.297   2.558 -0.8689  1.7888  1.0472
 9347TIP3    H252237   4.027   5.385   2.547 -2.0745 -0.0737 -1.3284
 9348TIP3   OH252238   3.468   0.542   0.807 -0.3174  0.4611 -0.5915
 9348TIP3    H152239   3.394   0.481   0.813 -0.3368  0.4795 -0.6413
 9348TIP3    H252240   3.539   0.498   0.854  0.3527 -0.6245 -2.4829
 9349TIP3   OH252241   7.282   5.332   1.763  0.3230  0.4768 -0.1905
 9349TIP3    H152242   7.332   5.358   1.841  2.4618 -2.2921 -0.4523
 9349TIP3    H252243   7.191   5.343   1.789  0.9757  1.4836  2.0031
 9350TIP3   OH252244   2.577   5.739   0.740 -0.0255 -0.1497 -0.0898
 9350TIP3    H152245   2.549   5.662   0.789 -0.2784  0.2582  0.4200
 9350TIP3    H252246   2.610   5.799   0.806  1.8354 -0.4999 -0.6496
 9351TIP3   OH252247   6.061   6.341   1.846  0.3760  0.6625 -0.2691
 9351TIP3    H152248   6.034   6.250   1.842  1.4914  0.2897  0.3194
 9351TIP3    H252249   6.063   6.361   1.940  0.6502  1.1298 -0.3717
 9352TIP3   OH252250   5.256   5.335   0.783 -0.0732 -0.4032 -0.1899
 9352TIP3    H152251   5.304   5.344   0.865  0.6069  3.1538 -0.8218
 9352TIP3    H252252   5.311   5.279   0.729  0.0017 -1.8969  1.3552
 9353TIP3   OH252253   1.012   4.252   2.722 -0.3469 -0.8329 -0.0173
 9353TIP3    H152254   1.087   4.201   2.751 -0.5687 -1.5809 -0.7221
 9353TIP3    H252255   0.985   4.302   2.799  0.9066 -0.5050  0.2236
 9354TIP3   OH252256   6.506   0.904   1.959 -0.0464  0.4365 -0.4793
 9354TIP3    H152257   6.494   0.942   1.871  1.2221  2.3341  0.1077
 9354TIP3    H252258   6.557   0.825   1.943  1.1755  1.3590 -1.3962
 9355TIP3   OH252259   4.502   2.012   0.458  0.0380 -0.0229  0.3824
 9355TIP3    H152260   4.537   2.045   0.541 -0.7650 -1.2017  1.2359
 9355TIP3    H252261   4.485   1.919   0.475  3.1497 -1.2386 -2.1774
 9356TIP3   OH252262   0.800   3.256   1.528 -0.2705 -0.2374  0.4126
 9356TIP3    H152263   0.712   3.265   1.565  0.2255  0.7676  1.4052
 9356TIP3    H252264   0.830   3.346   1.515  0.0585 -0.5592 -1.3340
 9357TIP3   OH252265   2.921   3.624   0.686 -0.1540  0.0208  0.1916
 9357TIP3    H152266   2.858   3.633   0.615 -0.9295  0.6717  0.9424
 9357TIP3    H252267   2.988   3.690   0.668  0.4443 -0.8064 -0.7157
 9358TIP3   OH252268   5.232   2.432   1.369  0.3034 -0.3792  0.1167
 9358TIP3    H152269   5.327   2.432   1.361  0.2205 -2.9938 -3.3459
 9358TIP3    H252270   5.210   2.340   1.385 -1.6453  0.2005  0.9753
 9359TIP3   OH252271   7.091   2.221   3.322 -0.0888  0.0465  0.5063
 9359TIP3    H152272   7.064   2.276   3.395 -0.3839 -1.1812  1.3577
 9359TIP3    H252273   7.160   2.165   3.358 -0.6931 -1.0296  0.0537
 9360TIP3   OH252274   4.734   1.944   2.607 -0.4633  0.4992  0.1543
 9360TIP3    H152275   4.712   2.037   2.607  0.7480  0.8092 -0.7022
 9360TIP3    H252276   4.800   1.935   2.539 -1.5586 -1.2455 -0.7465
 9361TIP3   OH252277   6.886   7.444   1.022  0.0053 -0.3490  0.4094
 9361TIP3    H152278   6.921   7.516   1.075 -0.6113  1.1857 -1.1860
 9361TIP3    H252279   6.796   7.469   1.005  0.5639 -0.0609 -2.5193
 9362TIP3   OH252280   1.479   4.687   1.076 -0.1363 -0.5945  0.7013
 9362TIP3    H152281   1.557   4.696   1.020 -0.0744 -1.3535  0.6588
 9362TIP3    H252282   1.429   4.767   1.060 -0.1421 -0.8141 -0.4912
 9363TIP3   OH252283   7.395   5.710   0.560 -1.3330  0.0656 -0.4622
 9363TIP3    H152284   7.405   5.791   0.509 -0.9253  0.2495 -0.0989
 9363TIP3    H252285   7.418   5.735   0.649  0.0009 -0.7276 -0.5588
 9364TIP3   OH252286   2.608   4.423   0.837  0.2358  0.4515  0.7505
 9364TIP3    H152287   2.648   4.493   0.889  0.6795  0.9376 -0.2061
 9364TIP3    H252288   2.652   4.343   0.866  3.2326  1.1476 -1.4043
 9365TIP3   OH252289   5.176   7.243   0.634  0.0222 -0.2410 -0.1280
 9365TIP3    H152290   5.221   7.321   0.666 -0.2995 -0.6960  1.5134
 9365TIP3    H252291   5.161   7.190   0.712  0.1053 -1.8989 -1.1923
 9366TIP3   OH252292   6.612   4.553   1.077  0.3141 -0.1066  0.0016
 9366TIP3    H152293   6.592   4.504   1.156  0.3767 -0.2068 -0.0436
 9366TIP3    H252294   6.706   4.539   1.064  0.3823  0.2220  0.1213
 9367TIP3   OH252295   5.817   0.077   2.975  0.1004 -0.0319  0.3294
 9367TIP3    H152296   5.775   0.028   3.045  0.9884 -1.7494 -0.2785
 9367TIP3    H252297   5.860   0.010   2.922  0.5299  1.3409 -1.1172
 9368TIP3   OH252298   0.551   5.075   2.312 -0.0496  0.5316  0.1217
 9368TIP3    H152299   0.460   5.054   2.330 -0.5353 -0.7321 -3.1446
 9368TIP3    H252300   0.600   5.000   2.347 -0.6004 -0.2613 -0.7710
 9369TIP3   OH252301   6.442   6.110   1.202  0.6087  0.4123 -0.2607
 9369TIP3    H152302   6.451   6.019   1.172  0.6806  0.1969  0.3996
 9369TIP3    H252303   6.531   6.145   1.197  0.5664  0.4743 -0.5987
 9370TIP3   OH252304   1.643   7.331   2.487  0.0955  0.1406  0.3277
 9370TIP3    H152305   1.638   7.257   2.427  0.5103  0.1590  0.2623
 9370TIP3    H252306   1.708   7.305   2.552 -1.8438 -0.7396  2.0169
 9371TIP3   OH252307   5.929   7.196   1.010  0.3650  0.8759 -0.5140
 9371TIP3    H152308   5.871   7.129   1.047  0.6789  1.0207  0.2670
 9371TIP3    H252309   5.997   7.146   0.964  0.1440  0.6856 -0.6404
 9372TIP3   OH252310   0.829   5.460   1.544 -0.2583  0.0058  0.3736
 9372TIP3    H152311   0.845   5.554   1.555  0.1583 -0.1892  1.5253
 9372TIP3    H252312   0.779   5.435   1.622 -0.1954 -0.7699  0.1696
 9373TIP3   OH252313   1.236   3.281   1.087  0.1323 -0.2927 -0.3087
 9373TIP3    H152314   1.303   3.326   1.035  1.4615 -2.2722 -0.4005
 9373TIP3    H252315   1.253   3.311   1.177  2.3553 -2.0534 -0.0594
 9374TIP3   OH252316   5.228   1.077   1.183  0.3402 -0.0796  0.4325
 9374TIP3    H152317   5.312   1.054   1.144  0.6015  2.8682 -1.0449
 9374TIP3    H252318   5.164   1.058   1.114  0.0089 -0.4711  0.8356
 9375TIP3   OH252319   6.025   0.694   1.526 -0.6087 -0.3872 -0.5111
 9375TIP3    H152320   6.059   0.621   1.476 -0.5773 -0.5417 -0.2643
 9375TIP3    H252321   5.955   0.656   1.580  0.7418 -0.6432  1.1168
 9376TIP3   OH252322   6.932   1.976   1.906 -0.0534  0.0354  0.0288
 9376TIP3    H152323   6.929   2.065   1.942  2.1588  1.1620 -2.2127
 9376TIP3    H252324   6.851   1.968   1.856 -0.1501  0.9061  0.0242
 9377TIP3   OH252325   1.303   3.231   1.788  0.3162 -0.3147 -0.0538
 9377TIP3    H152326   1.394   3.202   1.783  0.7189  0.6133  1.2506
 9377TIP3    H252327   1.291   3.286   1.711  1.7503  1.7955  1.1193
 9378TIP3   OH252328   1.166   1.483   2.134  0.4417 -0.3493  0.0271
 9378TIP3    H152329   1.209   1.398   2.135  2.3642  0.5534  1.1575
 9378TIP3    H252330   1.112   1.484   2.214 -0.1412 -0.7465 -0.3551
 9379TIP3   OH252331   6.741   5.485   1.914  0.2452 -0.6297 -0.1472
 9379TIP3    H152332   6.694   5.564   1.886 -0.2724 -0.8346  0.1173
 9379TIP3    H252333   6.734   5.425   1.839  0.6812 -0.4080 -0.3667
 9380TIP3   OH252334   4.014   4.664   1.977 -0.6381 -0.3225  0.3098
 9380TIP3    H152335   4.004   4.621   1.892 -2.9204 -0.4652  0.5923
 9380TIP3    H252336   3.948   4.622   2.033 -0.1311  0.7321  1.7537
 9381TIP3   OH252337   4.970   2.736   1.804  0.4337  0.3044  0.4427
 9381TIP3    H152338   4.986   2.718   1.711  1.2681 -1.0842  0.8228
 9381TIP3    H252339   5.054   2.765   1.838  0.7114 -1.3100  1.2111
 9382TIP3   OH252340   4.754   3.775   0.742  0.0253  0.1022 -0.4561
 9382TIP3    H152341   4.764   3.833   0.817  2.5626 -0.5648 -0.2019
 9382TIP3    H252342   4.831   3.718   0.744  0.0677 -0.1205 -3.4153
 9383TIP3   OH252343   5.669   3.966   2.506 -0.9312  0.1407 -0.2313
 9383TIP3    H152344   5.748   4.018   2.522 -0.9664 -0.2773  1.5251
 9383TIP3    H252345   5.641   3.992   2.418  1.8389 -0.6276 -1.4504
 9384TIP3   OH252346   5.425   7.408   1.257  0.1209  0.1667  0.0133
 9384TIP3    H152347   5.361   7.340   1.234 -0.5875  0.6845  0.4262
 9384TIP3    H252348   5.431   7.404   1.352  1.2885 -0.3809 -0.0540
 9385TIP3   OH252349   1.444   2.991   2.448 -0.3189 -0.3180  0.0073
 9385TIP3    H152350   1.382   3.049   2.491  0.6200  0.8073 -0.1057
 9385TIP3    H252351   1.511   2.973   2.514 -0.1081 -0.5008 -0.2516
 9386TIP3   OH252352   6.531   3.116   1.286  0.4539  0.0221 -0.1821
 9386TIP3    H152353   6.485   3.101   1.369 -0.1329 -0.2356 -0.5428
 9386TIP3    H252354   6.621   3.136   1.311  0.7991 -2.1048  0.4467
 9387TIP3   OH252355   2.343   5.848   1.717 -0.1934 -0.1427  0.4829
 9387TIP3    H152356   2.371   5.826   1.628  0.5047  0.8447  0.4458
 9387TIP3    H252357   2.254   5.882   1.706  0.0203  0.3033  0.1210
 9388TIP3   OH252358   4.214   0.569   1.057  0.4713 -0.4675  0.7782
 9388TIP3    H152359   4.242   0.639   0.999 -0.0884 -0.4312  0.5383
 9388TIP3    H252360   4.294   0.522   1.079  0.7476 -0.2179  0.3236
 9389TIP3   OH252361   4.839   7.491   1.884 -0.3674 -0.1690  0.5254
 9389TIP3    H152362   4.919   7.490   1.832 -0.8833  0.0477 -0.2817
 9389TIP3    H252363   4.848   7.570   1.938 -1.0046  1.1019 -1.1409
 9390TIP3   OH252364   3.727   1.983   3.344  0.4397  0.0285 -0.2066
 9390TIP3    H152365   3.642   1.994   3.386  0.6620 -0.7871  0.5051
 9390TIP3    H252366   3.790   2.006   3.412  0.8290 -2.0978  0.2238
 9391TIP3   OH252367   3.768   1.142   1.504  0.2680  0.3729  0.5381
 9391TIP3    H152368   3.682   1.177   1.528 -0.2361 -1.3224  1.3154
 9391TIP3    H252369   3.750   1.053   1.475  1.1913  1.3684 -3.7667
 9392TIP3   OH252370   3.535   3.746   2.166 -0.7804 -0.1194 -0.6219
 9392TIP3    H152371   3.616   3.782   2.129 -0.9630  0.6197 -0.3330
 9392TIP3    H252372   3.562   3.668   2.213 -0.2763 -0.0300 -0.7602
 9393TIP3   OH252373   1.412   1.426   1.021 -0.1299  0.1269 -0.1260
 9393TIP3    H152374   1.448   1.364   1.084 -1.1553 -0.1937  0.1618
 9393TIP3    H252375   1.371   1.493   1.074  0.4825  0.7708 -0.4484
 9394TIP3   OH252376   1.550   2.741   2.566 -0.5690 -0.2413  0.0666
 9394TIP3    H152377   1.567   2.647   2.569  2.4131  0.2047  0.3061
 9394TIP3    H252378   1.594   2.776   2.643  1.2879  1.6542 -1.7086
 9395TIP3   OH252379   0.019   2.590   2.096  0.1862 -0.3706 -0.3133
 9395TIP3    H152380  -0.037   2.597   2.173  0.6677 -2.2240  0.2607
 9395TIP3    H252381   0.107   2.580   2.132  0.6078  0.2648 -1.1497
 9396TIP3   OH252382   5.806   0.338   1.478 -0.6467 -0.3870  1.0354
 9396TIP3    H152383   5.852   0.267   1.433  1.0987  1.2932  0.0475
 9396TIP3    H252384   5.775   0.299   1.559 -1.2910 -2.7291 -0.2486
 9397TIP3   OH252385   6.722   4.490   3.071  0.6530 -0.1609 -0.0222
 9397TIP3    H152386   6.650   4.551   3.053  0.1472 -0.3472  1.2584
 9397TIP3    H252387   6.801   4.539   3.047  0.1678  0.4163 -0.4823
 9398TIP3   OH252388   4.335   4.055   1.044 -0.0769 -0.1746  0.3058
 9398TIP3    H152389   4.372   4.043   1.132 -1.9974  1.7315  1.4585
 9398TIP3    H252390   4.400   4.109   0.998  0.0681  0.4660  1.2323
 9399TIP3   OH252391   6.523   7.132   2.491 -0.2942  0.3797  0.0067
 9399TIP3    H152392   6.552   7.117   2.401  0.0088 -0.2030  0.1937
 9399TIP3    H252393   6.595   7.178   2.533 -0.3293  0.4190  0.0245
 9400TIP3   OH252394   5.317   4.898   0.637 -0.3403 -0.0346 -0.4616
 9400TIP3    H152395   5.232   4.929   0.608 -0.8507 -0.6425  0.3310
 9400TIP3    H252396   5.297   4.820   0.689  0.4455  1.2220  1.8917
 9401TIP3   OH252397   3.715   3.881   1.293 -0.0564 -0.9485  0.0094
 9401TIP3    H152398   3.685   3.796   1.260 -1.6653 -0.5936  0.4823
 9401TIP3    H252399   3.640   3.917   1.340  0.4812  0.8874 -0.4428
 9402TIP3   OH252400   4.998   3.822   1.270  0.4175  0.0917 -0.4040
 9402TIP3    H152401   4.993   3.906   1.225 -0.1510 -0.4027 -1.2969
 9402TIP3    H252402   5.084   3.787   1.246 -0.7931 -1.2659 -3.2029
 9403TIP3   OH252403   0.045   6.809   2.213 -0.1143 -0.5732  0.3641
 9403TIP3    H152404   0.077   6.842   2.297  1.3806  0.6665 -0.6438
 9403TIP3    H252405  -0.026   6.749   2.236  0.5827 -0.6414  2.5269
 9404TIP3   OH252406   7.095   0.643   2.029 -0.3243 -0.5236  0.1480
 9404TIP3    H152407   7.077   0.713   1.967 -0.7894 -0.4084  0.4073
 9404TIP3    H252408   7.187   0.656   2.054 -0.4352  0.0566  0.2688
 9405TIP3   OH252409   2.647   7.248   2.651 -0.0555  0.3062 -0.2718
 9405TIP3    H152410   2.611   7.306   2.719 -0.0119  0.3223 -0.2619
 9405TIP3    H252411   2.654   7.163   2.693  0.3847  0.4138 -0.1164
 9406TIP3   OH252412   3.665   6.193   0.684 -0.0833 -0.1221 -0.3660
 9406TIP3    H152413   3.609   6.161   0.754  0.9784  1.1221  1.1416
 9406TIP3    H252414   3.657   6.289   0.688  0.9087  0.0188 -1.1411
 9407TIP3   OH252415   7.187   5.727   2.061 -0.3952 -0.0719 -0.5966
 9407TIP3    H152416   7.220   5.645   2.023 -0.8781 -0.3683 -0.3855
 9407TIP3    H252417   7.092   5.719   2.057 -0.4581  0.0848  0.2485
 9408TIP3   OH252418   0.783   5.966   1.214  0.3485 -0.0692 -0.0665
 9408TIP3    H152419   0.842   5.906   1.167  2.0981  1.7472 -0.2942
 9408TIP3    H252420   0.841   6.025   1.262 -1.2146  2.4768 -1.1174
 9409TIP3   OH252421   4.419   2.394   1.848  0.2084  0.8700  0.3204
 9409TIP3    H152422   4.383   2.415   1.934 -0.7413  0.4652  0.0451
 9409TIP3    H252423   4.498   2.344   1.866 -1.1979 -1.2708  1.0244
 9410TIP3   OH252424   6.116   6.893   1.078  0.7494  0.0285  0.4223
 9410TIP3    H152425   6.191   6.900   1.137  1.6308  0.9822 -0.7504
 9410TIP3    H252426   6.131   6.812   1.029  0.6190 -0.1581  0.6855
 9411TIP3   OH252427   4.061   7.175   3.077 -0.2932 -0.5209  0.4293
 9411TIP3    H152428   4.088   7.094   3.120 -1.4294 -0.8639  0.5222
 9411TIP3    H252429   4.034   7.149   2.990  1.4741  0.1002 -0.3446
 9412TIP3   OH252430   3.591   5.114   2.753 -0.0366 -0.4180 -0.4119
 9412TIP3    H152431   3.615   5.182   2.816  2.2970 -1.4303 -0.1242
 9412TIP3    H252432   3.564   5.040   2.807  0.7564 -0.8596 -0.6079
 9413TIP3   OH252433   1.899   3.952   3.376  0.1040 -0.3955 -0.3053
 9413TIP3    H152434   1.926   3.933   3.287 -3.2677  1.7632 -2.0163
 9413TIP3    H252435   1.851   3.873   3.404 -1.3671 -0.0298 -1.6460
 9414TIP3   OH252436   4.516   6.624   1.653  0.2569  0.1673 -0.2641
 9414TIP3    H152437   4.436   6.607   1.603 -0.6866 -1.0572  1.5643
 9414TIP3    H252438   4.584   6.575   1.606 -0.3490  0.0519 -1.0370
 9415TIP3   OH252439   0.274   1.220   2.040 -0.0075 -0.1017 -0.1336
 9415TIP3    H152440   0.278   1.252   1.950 -0.8004 -1.6031 -0.7428
 9415TIP3    H252441   0.229   1.289   2.089  2.2683  1.6751 -0.3947
 9416TIP3   OH252442   0.166   0.614   0.999 -0.3107  0.0261 -0.1490
 9416TIP3    H152443   0.167   0.615   0.903 -0.5763  3.1127 -0.2162
 9416TIP3    H252444   0.074   0.624   1.022 -0.0958  0.9654  0.3633
 9417TIP3   OH252445   3.861   0.166   1.707 -0.3821  0.0484 -0.2631
 9417TIP3    H152446   3.942   0.116   1.698 -0.0669  0.5241 -0.1074
 9417TIP3    H252447   3.832   0.181   1.617 -0.8292 -0.9677 -0.2998
 9418TIP3   OH252448   1.204   6.572   3.091 -0.4648  0.3325  0.2147
 9418TIP3    H152449   1.158   6.523   3.159 -0.8103  1.4790  0.8290
 9418TIP3    H252450   1.152   6.557   3.012  0.2431 -1.4566  0.0460
 9419TIP3   OH252451   4.870   3.198   2.608  0.5519 -0.0898  0.1282
 9419TIP3    H152452   4.826   3.214   2.525  2.5650  0.1755 -0.9719
 9419TIP3    H252453   4.840   3.268   2.665 -0.9665 -0.3501 -0.3120
 9420TIP3   OH252454   1.080   0.098   1.034 -0.0185  0.1338  0.0357
 9420TIP3    H152455   1.019   0.094   0.961  0.6410  1.3517 -0.6032
 9420TIP3    H252456   1.057   0.023   1.088 -0.1915 -1.0913 -1.6711
 9421TIP3   OH252457   0.794   6.231   2.816 -0.4392 -0.4592  0.6499
 9421TIP3    H152458   0.734   6.174   2.864 -2.9394  1.4053 -0.0663
 9421TIP3    H252459   0.796   6.312   2.867  0.6057 -0.0808  0.0465
 9422TIP3   OH252460   3.441   6.781   1.271  0.5426 -0.2768 -0.5532
 9422TIP3    H152461   3.532   6.770   1.300  0.5294  0.5835 -0.1430
 9422TIP3    H252462   3.408   6.692   1.259  1.1906 -0.6118  0.0984
 9423TIP3   OH252463   5.256   3.508   1.712  0.2837 -0.0552 -0.7834
 9423TIP3    H152464   5.189   3.458   1.664  0.9095 -1.4442 -0.2595
 9423TIP3    H252465   5.335   3.498   1.659 -0.0875  2.4671 -1.9633
 9424TIP3   OH252466   6.623   0.773   0.451 -0.4204 -0.2875  0.2811
 9424TIP3    H152467   6.681   0.722   0.508 -0.6499 -1.0786 -0.1750
 9424TIP3    H252468   6.567   0.707   0.409  0.6436  0.1055 -1.8834
 9425TIP3   OH252469   7.237   5.940   0.915  0.3857 -0.3718  0.8336
 9425TIP3    H152470   7.219   5.951   1.009  1.1377 -2.6314  1.3103
 9425TIP3    H252471   7.269   6.026   0.887 -3.3654  1.5388  1.6996
 9426TIP3   OH252472   3.265   2.914   1.570 -0.2504  0.6595  0.4084
 9426TIP3    H152473   3.330   2.980   1.592  0.2916  0.4065 -0.3992
 9426TIP3    H252474   3.251   2.924   1.476  1.4811 -1.7803 -0.2090
 9427TIP3   OH252475   7.007   0.130   2.280  0.0485 -0.0538 -0.0669
 9427TIP3    H152476   7.039   0.201   2.335 -0.7335  0.0349  0.2925
 9427TIP3    H252477   7.082   0.104   2.227  1.3191 -1.2179  2.1419
 9428TIP3   OH252478   1.899   2.388   2.625 -0.7395  0.0697 -0.7996
 9428TIP3    H152479   1.898   2.424   2.713  1.4515 -0.2310 -0.5999
 9428TIP3    H252480   1.913   2.294   2.637 -0.4230  0.0237 -1.4665
 9429TIP3   OH252481   1.023   3.743   1.464 -0.0221 -0.2330 -0.2386
 9429TIP3    H152482   1.003   3.755   1.371 -0.1809 -1.9184 -0.4492
 9429TIP3    H252483   1.117   3.756   1.470 -0.2258  1.4609 -0.3413
 9430TIP3   OH252484   6.894   4.336   0.945  0.1980  0.1760  0.4835
 9430TIP3    H152485   6.802   4.315   0.932 -0.3107  2.8795 -0.9431
 9430TIP3    H252486   6.894   4.403   1.014  1.2596 -0.7903  1.4668
 9431TIP3   OH252487   3.856   2.204   0.887  0.2217 -0.5151  0.1932
 9431TIP3    H152488   3.772   2.166   0.913  0.0528  0.0074  0.4464
 9431TIP3    H252489   3.920   2.133   0.899  0.1290 -0.3587  1.9518
 9432TIP3   OH252490   0.266   0.294   3.623 -0.2041 -0.2743  0.4331
 9432TIP3    H152491   0.198   0.303   3.689 -1.2505 -0.7526 -0.5521
 9432TIP3    H252492   0.219   0.291   3.540  1.0004 -0.8670 -0.2532
 9433TIP3   OH252493   3.865   5.028   2.002 -0.2833  0.1313  0.4324
 9433TIP3    H152494   3.929   4.992   1.940 -0.8991  0.1798 -0.2435
 9433TIP3    H252495   3.828   5.104   1.956  0.6120  1.3370  1.6105
 9434TIP3   OH252496   7.359   6.951   1.335  0.5321 -0.1820  0.0756
 9434TIP3    H152497   7.372   6.993   1.420  1.1714 -0.0210 -0.0940
 9434TIP3    H252498   7.367   7.022   1.271 -0.2089 -0.2559 -0.1085
 9435TIP3   OH252499   3.668   6.714   1.020 -0.4685  0.0121 -0.2966
 9435TIP3    H152500   3.624   6.633   0.994  0.4051  0.0346 -1.9618
 9435TIP3    H252501   3.761   6.695   1.013 -0.2380  1.3789 -1.5719
 9436TIP3   OH252502   1.862   3.606   0.437 -0.1165 -0.2201 -0.1312
 9436TIP3    H152503   1.881   3.686   0.487 -0.3492 -0.8694  1.0387
 9436TIP3    H252504   1.907   3.618   0.354  0.3959  0.8514  0.2879
 9437TIP3   OH252505   4.129   2.525   0.458 -0.1564  0.3201 -0.2855
 9437TIP3    H152506   4.213   2.481   0.444  0.0801  1.0180 -1.1619
 9437TIP3    H252507   4.063   2.457   0.444  0.2002  0.2100 -1.5295
 9438TIP3   OH252508   5.578   5.827   1.458 -0.5232 -0.2205  0.3112
 9438TIP3    H152509   5.640   5.775   1.406  0.2956  1.3711 -0.3779
 9438TIP3    H252510   5.492   5.790   1.436 -0.0845 -0.3970 -1.2265
 9439TIP3   OH252511   6.356   6.401   3.302 -1.1319 -0.1589 -0.2163
 9439TIP3    H152512   6.268   6.435   3.292 -1.3497 -1.0739 -1.7253
 9439TIP3    H252513   6.412   6.462   3.255 -0.6959  1.2920  2.0562
 9440TIP3   OH252514   5.579   4.911   1.028 -0.1041 -0.1087 -0.0264
 9440TIP3    H152515   5.516   4.861   1.081  2.1231 -0.4333  2.5213
 9440TIP3    H252516   5.617   4.973   1.090  0.7660  1.3596 -1.9591
 9441TIP3   OH252517   5.907   0.788   2.437 -0.0445 -0.1200  0.0736
 9441TIP3    H152518   5.845   0.792   2.511  2.2838 -2.2798  2.3044
 9441TIP3    H252519   5.967   0.860   2.453  0.0127 -0.1052 -0.2006
 9442TIP3   OH252520   2.595   0.351   0.393 -0.4848  0.1764  0.0799
 9442TIP3    H152521   2.571   0.441   0.371 -0.2809  0.2341  0.0978
 9442TIP3    H252522   2.516   0.315   0.435 -1.2490 -0.2499 -1.6470
 9443TIP3   OH252523   2.988   6.018   2.371  0.2188  0.0404  0.1683
 9443TIP3    H152524   2.907   5.969   2.384 -1.7145  2.2769 -2.2692
 9443TIP3    H252525   3.009   6.007   2.279  1.0347  1.8416  0.0874
 9444TIP3   OH252526   2.588   2.072   3.021 -0.5531 -0.1515 -0.4295
 9444TIP3    H152527   2.549   2.060   3.108 -1.9456  0.1866 -0.9886
 9444TIP3    H252528   2.646   1.996   3.011 -1.0133 -0.6472  0.4520
 9445TIP3   OH252529   6.506   6.323   0.550  0.2438 -1.5637  0.1851
 9445TIP3    H152530   6.424   6.371   0.561  0.3941 -1.4934  1.1091
 9445TIP3    H252531   6.484   6.250   0.492 -0.4632 -1.5195  0.3872
 9446TIP3   OH252532   3.690   7.112   0.428 -0.0480 -0.5525 -0.0687
 9446TIP3    H152533   3.750   7.070   0.367  1.1023 -1.6607  1.7287
 9446TIP3    H252534   3.729   7.197   0.447 -0.1379 -0.4229 -0.4568
 9447TIP3   OH252535   6.926   1.843   3.353  0.2345  0.1469 -0.3437
 9447TIP3    H152536   6.883   1.928   3.339  0.0320  0.1221  0.1288
 9447TIP3    H252537   6.978   1.856   3.432 -2.7638 -1.2861  2.0648
 9448TIP3   OH252538   1.912   4.616   1.475 -0.7184  0.0245  0.1258
 9448TIP3    H152539   1.898   4.654   1.389  0.0623  0.0165 -0.0089
 9448TIP3    H252540   1.969   4.679   1.520  0.4452 -0.8746 -0.0353
 9449TIP3   OH252541   1.182   2.549   1.570 -0.2430 -0.1120 -0.0947
 9449TIP3    H152542   1.097   2.593   1.567 -1.1888 -1.8832 -1.8990
 9449TIP3    H252543   1.218   2.562   1.482  0.7570 -0.4783  0.2500
 9450TIP3   OH252544   0.300   7.329   1.745 -0.1222  0.3347 -0.1111
 9450TIP3    H152545   0.211   7.359   1.761 -0.7801 -1.5909  0.0581
 9450TIP3    H252546   0.299   7.298   1.655 -0.2315 -1.5846  0.5085
 9451TIP3   OH252547   0.320   4.415   0.717 -0.2678 -0.0085 -0.4660
 9451TIP3    H152548   0.348   4.457   0.798 -0.8042 -4.3150  2.2227
 9451TIP3    H252549   0.230   4.444   0.705 -0.1089  0.8445  0.2761
 9452TIP3   OH252550   5.136   7.160   1.797 -0.3257  0.1852 -0.2488
 9452TIP3    H152551   5.057   7.214   1.801 -0.2112  0.2466  1.8557
 9452TIP3    H252552   5.207   7.222   1.781 -0.5669  0.2259 -1.2620
 9453TIP3   OH252553   7.362   2.412   3.435 -0.2904 -0.1585 -0.1927
 9453TIP3    H152554   7.377   2.326   3.395  0.2932 -1.0493  1.7963
 9453TIP3    H252555   7.271   2.409   3.464 -0.7006  0.4718 -1.3422
 9454TIP3   OH252556   4.009   0.584   2.885 -0.0234  0.2607 -0.0552
 9454TIP3    H152557   4.056   0.502   2.873 -0.1798  0.1453  0.1195
 9454TIP3    H252558   4.035   0.615   2.972 -1.2361 -0.4459  0.5991
 9455TIP3   OH252559   4.067   5.647   1.199  0.6721 -0.2191 -0.3334
 9455TIP3    H152560   4.135   5.676   1.261  0.3707 -0.9295  0.3395
 9455TIP3    H252561   4.052   5.724   1.144  0.6276  0.5839  0.7561
 9456TIP3   OH252562   2.564   0.823   1.743  0.4802  0.0318 -0.2429
 9456TIP3    H152563   2.505   0.766   1.793  1.2491 -1.9568 -1.4679
 9456TIP3    H252564   2.506   0.888   1.703 -0.3939  0.3568  1.4415
 9457TIP3   OH252565   0.435   3.253   0.984 -0.1596  0.3668  0.2130
 9457TIP3    H152566   0.519   3.209   0.995  1.0404  1.5732 -3.0186
 9457TIP3    H252567   0.398   3.215   0.904 -0.6425  2.7789 -0.7997
 9458TIP3   OH252568   2.478   6.757   2.793 -0.8655  0.0395  0.1793
 9458TIP3    H152569   2.568   6.740   2.817 -0.6456  1.1777  0.2391
 9458TIP3    H252570   2.437   6.671   2.786  0.9995 -0.7517 -2.8984
 9459TIP3   OH252571   4.516   4.555   0.649  0.1888 -0.2457 -0.7899
 9459TIP3    H152572   4.487   4.475   0.605 -0.6759 -0.6187  0.3921
 9459TIP3    H252573   4.555   4.524   0.731  0.3246  0.5086 -0.5627
 9460TIP3   OH252574   4.414   2.517   0.880  0.3928  0.3358 -0.3376
 9460TIP3    H152575   4.490   2.460   0.875 -0.7839 -1.3951  0.5696
 9460TIP3    H252576   4.363   2.483   0.954 -0.4629  2.4608  0.1326
 9461TIP3   OH252577   4.235   1.682   1.943  0.1072 -0.8147  0.1093
 9461TIP3    H152578   4.325   1.697   1.973  0.2143  0.1709 -0.6672
 9461TIP3    H252579   4.198   1.623   2.009  0.5116  0.8118  1.9100
 9462TIP3   OH252580   5.388   0.312   0.742  0.3475 -0.0795  0.1242
 9462TIP3    H152581   5.309   0.305   0.689  1.0584  0.0801 -0.9840
 9462TIP3    H252582   5.362   0.277   0.828 -0.4915 -1.4565 -0.6537
 9463TIP3   OH252583   0.128   6.250   1.220  0.4886  0.2719 -0.6751
 9463TIP3    H152584   0.064   6.309   1.180  1.8973  1.3714 -1.3894
 9463TIP3    H252585   0.167   6.204   1.147  0.2408 -0.7123 -0.2055
 9464TIP3   OH252586   3.273   5.782   2.472  0.4888  0.1811 -0.3490
 9464TIP3    H152587   3.304   5.872   2.463  1.6087 -0.0883  0.5655
 9464TIP3    H252588   3.218   5.784   2.551  2.9174 -0.4788  1.4850
 9465TIP3   OH252589   2.769   3.156   1.588 -0.1338  0.5851 -0.5167
 9465TIP3    H152590   2.736   3.068   1.574  0.1499  0.4123 -0.1232
 9465TIP3    H252591   2.699   3.213   1.558 -0.0606  0.2363 -1.3852
 9466TIP3   OH252592   5.212   1.141   0.571  0.2279  0.5915 -0.1474
 9466TIP3    H152593   5.162   1.063   0.594 -1.7123  1.2557 -1.8345
 9466TIP3    H252594   5.286   1.108   0.519 -0.0460 -0.1814 -0.0604
 9467TIP3   OH252595   0.942   6.795   0.615  0.2400  0.4663  0.3575
 9467TIP3    H152596   0.858   6.826   0.583  0.1838  0.1644  0.2140
 9467TIP3    H252597   0.921   6.723   0.675  0.2518  1.8490  2.1256
 9468TIP3   OH252598   5.490   6.704   1.658  0.4755 -0.1760  0.3613
 9468TIP3    H152599   5.557   6.693   1.725  0.8212  0.2035  0.0867
 9468TIP3    H252600   5.457   6.616   1.640 -0.1040 -0.2078  1.5199
 9469TIP3   OH252601   1.494   5.686   0.855  0.1636  0.2075  0.1742
 9469TIP3    H152602   1.559   5.756   0.849  1.9128 -1.2256  1.3290
 9469TIP3    H252603   1.441   5.696   0.776  0.0976  3.0128  0.4591
 9470TIP3   OH252604   5.883   4.200   1.231 -0.4095 -0.0673  0.2074
 9470TIP3    H152605   5.910   4.158   1.150 -0.6829  1.5002 -0.7429
 9470TIP3    H252606   5.916   4.290   1.223  0.3565 -0.1107  2.2431
 9471TIP3   OH252607   0.424   4.697   1.517  0.8487 -0.1541 -0.1812
 9471TIP3    H152608   0.427   4.726   1.426  0.8338 -0.4069 -0.2626
 9471TIP3    H252609   0.412   4.602   1.512  1.9027 -0.3099  0.0833
 9472TIP3   OH252610   0.639   3.127   1.139  0.1416 -0.2804 -0.0509
 9472TIP3    H152611   0.649   3.032   1.139  1.3786 -0.2007 -1.7176
 9472TIP3    H252612   0.725   3.159   1.165  0.0889  0.3746 -0.6550
 9473TIP3   OH252613   2.562   6.146   1.089 -0.1720 -1.1038  0.2399
 9473TIP3    H152614   2.655   6.135   1.068 -0.1146 -0.3950  0.1023
 9473TIP3    H252615   2.554   6.112   1.178  0.2032 -1.2525  0.2211
 9474TIP3   OH252616   0.045   1.419   1.640  0.4457 -0.8097 -0.2721
 9474TIP3    H152617  -0.018   1.351   1.666 -0.2299  0.9154  3.1847
 9474TIP3    H252618  -0.009   1.489   1.602  0.5183 -0.2913  0.5535
 9475TIP3   OH252619   6.328   4.337   1.515 -0.2736 -0.3038  0.1681
 9475TIP3    H152620   6.363   4.270   1.574  1.2465  0.7158  0.4726
 9475TIP3    H252621   6.236   4.345   1.540 -0.6773 -2.6782 -0.2847
 9476TIP3   OH252622   5.970   7.370   1.236  0.4311 -0.6349 -0.2360
 9476TIP3    H152623   6.004   7.321   1.161 -0.6178  1.9269 -2.5594
 9476TIP3    H252624   5.877   7.382   1.217  0.2121  0.4052  1.3097
 9477TIP3   OH252625   5.536   2.919   1.340  0.5766  0.7157  0.0125
 9477TIP3    H152626   5.572   3.004   1.316 -1.4185  1.6284  0.0741
 9477TIP3    H252627   5.486   2.891   1.263  1.7891 -0.7771 -0.2812
 9478TIP3   OH252628   2.669   6.312   1.796 -0.3020 -0.0438  0.4690
 9478TIP3    H152629   2.587   6.325   1.845 -0.2291  1.0299  0.3316
 9478TIP3    H252630   2.660   6.367   1.719  0.5009 -0.0201  0.3830
 9479TIP3   OH252631   1.304   3.722   1.438 -0.1145 -0.5372 -0.0283
 9479TIP3    H152632   1.394   3.691   1.445  0.4545  1.0961  0.3500
 9479TIP3    H252633   1.288   3.728   1.344  0.6824  0.4699 -0.1221
 9480TIP3   OH252634   5.850   7.117   1.571 -0.1187  0.8893  0.5286
 9480TIP3    H152635   5.936   7.159   1.565 -0.3020  1.2161  0.1850
 9480TIP3    H252636   5.790   7.188   1.596 -0.3691  0.7639  0.2917
 9481TIP3   OH252637   6.275   0.458   3.309  0.2816 -0.2471 -0.2411
 9481TIP3    H152638   6.213   0.491   3.373 -1.7818 -0.2908 -2.1186
 9481TIP3    H252639   6.347   0.521   3.310  0.3204 -0.2603  2.0507
 9482TIP3   OH252640   0.424   5.638   2.780  0.0714 -0.5060 -0.4668
 9482TIP3    H152641   0.512   5.669   2.800 -1.7218  2.0787  5.3865
 9482TIP3    H252642   0.417   5.554   2.825 -0.8836  0.0865  0.5240
 9483TIP3   OH252643   4.896   6.965   0.701 -0.0614 -0.3695  0.7400
 9483TIP3    H152644   4.819   6.911   0.718 -1.0893  0.4732 -0.9336
 9483TIP3    H252645   4.947   6.914   0.637 -1.8142  1.1400 -2.0823
 9484TIP3   OH252646   0.998   3.739   1.861 -0.1386 -0.6637  0.3382
 9484TIP3    H152647   1.057   3.699   1.926  0.6207  0.5331  0.4188
 9484TIP3    H252648   1.056   3.761   1.788 -0.8610 -1.3292 -0.4391
 9485TIP3   OH252649   0.878   4.319   2.973 -0.0935 -0.9215 -0.0982
 9485TIP3    H152650   0.851   4.230   2.995 -1.1150 -0.4972  0.4002
 9485TIP3    H252651   0.802   4.373   2.992  0.6932  0.1419  0.1237
 9486TIP3   OH252652   3.313   2.916   2.832 -0.5366  0.3132  0.1042
 9486TIP3    H152653   3.389   2.969   2.856 -0.9052  0.9158 -0.0543
 9486TIP3    H252654   3.241   2.952   2.883 -0.0317 -2.6896  3.3557
 9487TIP3   OH252655   2.644   7.392   1.444 -0.4047 -0.1041  1.0172
 9487TIP3    H152656   2.586   7.468   1.452 -1.2590 -0.7781  1.3633
 9487TIP3    H252657   2.585   7.316   1.444  0.3208 -0.7148 -0.9554
 9488TIP3   OH252658   2.928   6.294   1.259  0.2141 -0.6693 -0.3962
 9488TIP3    H152659   2.930   6.304   1.164  2.6503 -1.6266 -0.5067
 9488TIP3    H252660   2.866   6.223   1.274 -0.8441  0.0648 -1.1781
 9489TIP3   OH252661   0.200   4.173   1.481  0.1306 -0.1590  0.3790
 9489TIP3    H152662   0.124   4.229   1.465  0.4173  0.0931 -0.1402
 9489TIP3    H252663   0.170   4.111   1.547 -0.5191 -0.0399  0.2115
 9490TIP3   OH252664   4.633   2.266   2.104 -0.3674 -0.6874  0.7660
 9490TIP3    H152665   4.708   2.216   2.135 -0.1785 -0.1043  1.2855
 9490TIP3    H252666   4.628   2.248   2.010  1.1882  0.2383  0.4707
 9491TIP3   OH252667   4.512   3.210   2.967  0.2237 -0.1601 -0.2847
 9491TIP3    H152668   4.520   3.210   3.063  1.1313 -0.4182 -0.3540
 9491TIP3    H252669   4.582   3.152   2.937  1.1660  1.4066 -1.2027
 9492TIP3   OH252670   4.142   6.028   0.854 -0.2308 -0.7361  0.2780
 9492TIP3    H152671   4.085   6.102   0.833  0.5929 -0.0224  0.5085
 9492TIP3    H252672   4.153   5.982   0.771  0.0429 -0.0327 -0.0853
 9493TIP3   OH252673   0.502   3.990   2.997  0.1596 -0.7022 -0.6941
 9493TIP3    H152674   0.516   4.081   2.971 -2.2387  0.2214  0.8970
 9493TIP3    H252675   0.548   3.982   3.081 -0.9697 -0.4389 -0.0362
 9494TIP3   OH252676   2.362   1.384   2.662  0.1059  0.3144 -0.3790
 9494TIP3    H152677   2.333   1.433   2.738  0.2093  1.2830 -0.9501
 9494TIP3    H252678   2.396   1.302   2.698 -1.2483  0.1088  0.4777
 9495TIP3   OH252679   1.081   1.736   3.363  0.2027  0.1889 -0.2338
 9495TIP3    H152680   1.015   1.775   3.419  0.7516 -0.2554  0.7537
 9495TIP3    H252681   1.048   1.648   3.345  0.6004 -0.1009  0.4177
 9496TIP3   OH252682   1.041   6.283   1.905  0.1550  0.1797  0.3178
 9496TIP3    H152683   0.963   6.254   1.857  0.2887 -1.2483  0.9206
 9496TIP3    H252684   1.017   6.276   1.997  0.9243 -0.0854  0.5056
 9497TIP3   OH252685   3.744   6.992   2.766 -0.2088 -0.8877 -0.6815
 9497TIP3    H152686   3.833   7.025   2.778 -0.4207 -0.0108 -1.3776
 9497TIP3    H252687   3.742   6.962   2.675 -0.8814  0.0097 -0.9872
 9498TIP3   OH252688   4.347   5.387   1.335  0.2233  0.0917 -0.3016
 9498TIP3    H152689   4.265   5.426   1.365 -0.4158  0.1210 -1.9695
 9498TIP3    H252690   4.323   5.296   1.315  0.7807 -0.0969 -0.1199
 9499TIP3   OH252691   2.158   6.058   1.639  0.2432 -0.7476 -0.4291
 9499TIP3    H152692   2.119   6.106   1.713 -0.0414  0.2009 -1.1733
 9499TIP3    H252693   2.091   6.061   1.571  0.9911 -0.5040 -1.1678
 9500TIP3   OH252694   4.908   7.565   1.359  0.6281 -0.1338 -0.0169
 9500TIP3    H152695   4.913   7.620   1.280  1.4336  0.4543  0.4189
 9500TIP3    H252696   5.000   7.553   1.384  0.3584  0.1998  1.1703
 9501TIP3   OH252697   4.177   5.758   1.578 -0.0006 -0.1936  0.2410
 9501TIP3    H152698   4.229   5.678   1.591  0.2699  0.2898  2.8265
 9501TIP3    H252699   4.099   5.744   1.632 -1.8937 -0.2400 -2.3392
 9502TIP3   OH252700   0.979   0.940   2.642 -0.0079 -0.3554  0.3990
 9502TIP3    H152701   0.912   0.985   2.694  1.7556 -0.0612  2.6091
 9502TIP3    H252702   1.046   0.916   2.707  1.0945 -2.3963 -1.3858
 9503TIP3   OH252703   1.891   5.141   1.243 -0.3368  0.0044 -0.0155
 9503TIP3    H152704   1.913   5.186   1.161  0.5519 -1.6583 -0.7303
 9503TIP3    H252705   1.806   5.101   1.226  0.8251 -2.2571 -1.0442
 9504TIP3   OH252706   1.752   3.506   1.996  0.2162 -0.1676  0.2682
 9504TIP3    H152707   1.810   3.565   1.949 -0.1873  1.2187  1.4277
 9504TIP3    H252708   1.664   3.530   1.968  0.0210  0.1021  1.0680
 9505TIP3   OH252709   2.183   5.640   3.076  0.2383 -0.7615 -0.5054
 9505TIP3    H152710   2.135   5.558   3.078  0.9764 -1.2143 -0.7689
 9505TIP3    H252711   2.241   5.635   3.153  1.2268 -1.0868 -1.2576
 9506TIP3   OH252712   5.336   4.515   1.222  0.0836  0.3560  0.1181
 9506TIP3    H152713   5.342   4.458   1.299 -0.7386 -0.4369 -0.3815
 9506TIP3    H252714   5.339   4.454   1.148  1.3512  1.1427 -0.5100
 9507TIP3   OH252715   1.154   0.687   1.594  0.0931  0.1357 -0.3614
 9507TIP3    H152716   1.098   0.745   1.645 -0.1297  0.0556 -0.5172
 9507TIP3    H252717   1.228   0.668   1.653 -0.2128 -0.0382 -0.0290
 9508TIP3   OH252718   6.456   2.063   0.806  0.4926  0.5799  0.2034
 9508TIP3    H152719   6.545   2.043   0.838  1.2311  2.9215 -0.1911
 9508TIP3    H252720   6.433   2.145   0.849 -0.2413  1.5808 -1.9662
 9509TIP3   OH252721   3.007   6.872   1.651  0.6562 -0.9309 -0.3257
 9509TIP3    H152722   3.029   6.957   1.690  0.8267 -1.1919  0.1554
 9509TIP3    H252723   3.091   6.828   1.641  0.6326 -0.7864 -1.1894
 9510TIP3   OH252724   7.241   6.300   2.970 -0.1826 -0.3843  0.2095
 9510TIP3    H152725   7.195   6.284   3.053  0.1409 -1.0165  0.2723
 9510TIP3    H252726   7.302   6.371   2.990  0.6912 -1.2753  0.8320
 9511TIP3   OH252727   3.937   7.565   2.123 -0.4738  0.2559 -0.4229
 9511TIP3    H152728   3.945   7.660   2.117  1.0300  0.4066  2.2597
 9511TIP3    H252729   4.025   7.535   2.148 -1.8587 -1.2641  3.3687
 9512TIP3   OH252730   4.200   1.565   2.558 -0.0926  0.5146  0.1296
 9512TIP3    H152731   4.202   1.496   2.624  0.1215  1.1715  0.8237
 9512TIP3    H252732   4.288   1.564   2.521 -0.0178  0.5724  0.3046
 9513TIP3   OH252733   6.532   3.554   2.172 -0.0317 -0.1949 -0.3306
 9513TIP3    H152734   6.454   3.516   2.133 -0.0212  0.4813 -1.0290
 9513TIP3    H252735   6.570   3.483   2.224 -1.8120 -0.1760  1.0977
 9514TIP3   OH252736   0.998   2.436   1.263  0.5139  0.2572 -0.4397
 9514TIP3    H152737   1.079   2.487   1.271  0.2025  0.8700 -1.0892
 9514TIP3    H252738   1.008   2.365   1.327 -0.6054  3.0801  3.1687
 9515TIP3   OH252739   6.743   0.635   0.683 -0.2138 -0.1937 -0.4406
 9515TIP3    H152740   6.653   0.602   0.681 -0.3254  0.0799 -0.0857
 9515TIP3    H252741   6.744   0.696   0.757  0.6089 -1.2265  0.4359
 9516TIP3   OH252742   0.363   2.421   0.991 -0.7261  0.0860  0.2883
 9516TIP3    H152743   0.426   2.451   1.057  0.7548  1.4275 -1.5936
 9516TIP3    H252744   0.308   2.498   0.974 -0.6650 -0.0271 -0.4661
 9517TIP3   OH252745   3.954   6.412   0.579 -0.1580  0.6208 -0.4476
 9517TIP3    H152746   3.912   6.376   0.501 -1.9013  2.0603 -0.2330
 9517TIP3    H252747   3.948   6.342   0.644  1.5684 -0.7014 -1.6144
 9518TIP3   OH252748   1.221   3.889   2.241 -0.0188 -0.4205 -0.2192
 9518TIP3    H152749   1.159   3.955   2.209 -1.8552 -2.1868 -0.5340
 9518TIP3    H252750   1.221   3.821   2.173  0.5894 -1.4827  0.8056
 9519TIP3   OH252751   5.459   5.147   0.664  0.1940 -0.4255  0.0279
 9519TIP3    H152752   5.533   5.124   0.719  0.3417 -0.1802 -0.0681
 9519TIP3    H252753   5.426   5.063   0.631  1.4243 -0.4465 -1.2352
 9520TIP3   OH252754   6.496   0.518   0.610 -0.2791 -0.4330  0.4660
 9520TIP3    H152755   6.419   0.487   0.658 -1.8449  0.7801 -1.0810
 9520TIP3    H252756   6.459   0.563   0.533  2.0093 -0.1093 -0.5282
 9521TIP3   OH252757   4.837   0.807   1.638 -1.1228  0.0754 -0.4160
 9521TIP3    H152758   4.801   0.783   1.723 -1.1658 -0.3736 -0.5625
 9521TIP3    H252759   4.819   0.901   1.630 -0.0804  0.3828  0.5863
 9522TIP3   OH252760   3.224   3.236   0.437  0.3816  0.3244  0.5026
 9522TIP3    H152761   3.245   3.142   0.437  0.8562  0.4289  0.7302
 9522TIP3    H252762   3.299   3.277   0.479  0.2941  0.8380  0.1640
 9523TIP3   OH252763   0.991   3.067   0.435 -0.5023 -0.0415 -0.1061
 9523TIP3    H152764   0.935   2.991   0.422 -1.0646  0.3496  0.0133
 9523TIP3    H252765   1.080   3.033   0.423 -0.7731 -0.6073 -0.5523
 9524TIP3   OH252766   4.875   7.148   1.925  0.1221 -0.6173 -0.7765
 9524TIP3    H152767   4.921   7.069   1.953 -0.2212 -0.3158  0.7282
 9524TIP3    H252768   4.885   7.209   1.998  2.4599  1.6791 -2.8226
 9525TIP3   OH252769   5.202   6.102   0.775  0.0689  0.2153  0.1977
 9525TIP3    H152770   5.226   6.010   0.764  0.5216  0.4316 -0.7747
 9525TIP3    H252771   5.237   6.127   0.861 -1.1024 -0.8294  1.0065
 9526TIP3   OH252772   2.484   5.060   2.286 -0.0780  0.3556 -0.0616
 9526TIP3    H152773   2.412   4.999   2.271  1.0362 -0.9306 -0.3550
 9526TIP3    H252774   2.448   5.124   2.348 -0.7139 -1.7036  1.8254
 9527TIP3   OH252775   5.961   5.249   1.005 -0.1890  0.0185 -0.6466
 9527TIP3    H152776   5.971   5.240   1.100  0.7455 -0.3934 -0.7645
 9527TIP3    H252777   5.927   5.337   0.992  0.3241  0.3307  0.0472
 9528TIP3   OH252778   3.267   3.191   0.814  0.1024  0.1791 -0.2389
 9528TIP3    H152779   3.177   3.185   0.781  0.8102  0.9970 -2.5192
 9528TIP3    H252780   3.320   3.205   0.735  2.3159 -0.9274  0.9718
 9529TIP3   OH252781   5.768   1.907   1.710  0.0227 -0.0656 -0.2467
 9529TIP3    H152782   5.761   1.998   1.681 -1.8047 -0.2668 -0.5947
 9529TIP3    H252783   5.707   1.901   1.784 -0.2104 -1.0928 -0.5045
 9530TIP3   OH252784   5.429   1.852   1.116  0.4006 -0.4091  0.1955
 9530TIP3    H152785   5.339   1.833   1.143  0.5532  0.9257  1.8152
 9530TIP3    H252786   5.446   1.790   1.045 -1.4447 -1.3649  0.5115
 9531TIP3   OH252787   6.701   0.072   0.675  0.4273  0.2826 -0.0542
 9531TIP3    H152788   6.735  -0.013   0.700  0.3724  0.6078  1.1609
 9531TIP3    H252789   6.693   0.067   0.579 -1.8838 -1.9559  0.1481
 9532TIP3   OH252790   5.948   7.426   3.356  0.4169 -0.3500 -0.0872
 9532TIP3    H152791   5.942   7.338   3.394  1.4495 -0.2540  0.3217
 9532TIP3    H252792   5.878   7.428   3.291 -1.6270 -0.4238  1.9660
 9533TIP3   OH252793   5.756   3.689   2.151 -0.1539  0.1002  0.5613
 9533TIP3    H152794   5.676   3.727   2.186  0.9800  0.8887  2.4541
 9533TIP3    H252795   5.789   3.755   2.090 -1.2535 -0.5310 -0.7728
 9534TIP3   OH252796   3.016   4.043   2.073  0.4436  0.0422  0.1877
 9534TIP3    H152797   3.016   4.095   2.153  1.3933  0.5867 -0.1440
 9534TIP3    H252798   2.929   4.003   2.069 -0.0393  1.0165  0.8338
 9535TIP3   OH252799   3.147   6.624   1.972  0.3716  0.1488 -0.0765
 9535TIP3    H152800   3.100   6.645   2.053  1.5427  1.4079  0.3061
 9535TIP3    H252801   3.078   6.595   1.912 -0.6346  0.0807  1.0751
 9536TIP3   OH252802   3.515   6.880   2.095  0.4170  0.1814  0.2970
 9536TIP3    H152803   3.544   6.966   2.064 -1.2925  0.0231 -1.9992
 9536TIP3    H252804   3.571   6.818   2.048  0.0206 -0.0068  0.0728
 9537TIP3   OH252805   6.197   5.620   1.903  0.5672 -0.4052 -0.1027
 9537TIP3    H152806   6.214   5.528   1.923  0.7558 -0.1350  1.0438
 9537TIP3    H252807   6.134   5.618   1.831 -0.8352 -1.4512  1.1028
 9538TIP3   OH252808   6.145   2.975   0.988  0.4455  0.2316  0.3401
 9538TIP3    H152809   6.165   3.004   0.899  2.3914 -1.8784  0.0008
 9538TIP3    H252810   6.184   3.041   1.045 -0.9263  1.6655 -0.3150
 9539TIP3   OH252811   4.747   4.824   0.865  0.4158  0.5655  0.0753
 9539TIP3    H152812   4.744   4.775   0.783  1.0091  0.2479  0.2361
 9539TIP3    H252813   4.825   4.879   0.858 -0.1294  1.3459 -0.0139
 9540TIP3   OH252814   3.487   6.032   0.867  0.2454 -0.0913  0.6333
 9540TIP3    H152815   3.417   6.021   0.930 -0.8030 -0.1225 -0.5082
 9540TIP3    H252816   3.466   5.972   0.795  0.7235  0.8259 -0.3143
 9541TIP3   OH252817   5.339   3.531   3.563 -0.3879 -0.1135  0.3703
 9541TIP3    H152818   5.289   3.451   3.550 -1.0143  0.6098 -2.3500
 9541TIP3    H252819   5.430   3.502   3.565 -0.6745 -1.0155  0.6821
 9542TIP3   OH252820   3.717   0.354   0.789  0.1105 -0.2793 -0.6308
 9542TIP3    H152821   3.672   0.271   0.804 -2.3567  0.8312 -1.3964
 9542TIP3    H252822   3.729   0.391   0.877 -1.2318 -0.2408 -0.4538
 9543TIP3   OH252823   1.608   4.365   3.286  0.3787 -0.0514  1.1220
 9543TIP3    H152824   1.693   4.406   3.301  1.0526 -0.9593 -0.0268
 9543TIP3    H252825   1.561   4.426   3.229  1.1407 -0.5674 -0.0841
 9544TIP3   OH252826   7.205   4.265   2.251  0.5150  0.1707  0.1678
 9544TIP3    H152827   7.249   4.305   2.176  1.5611 -0.1573  0.5870
 9544TIP3    H252828   7.181   4.177   2.220  2.2940 -0.5336  0.6440
 9545TIP3   OH252829   0.287   1.274   1.190 -0.1341  0.1676 -0.6232
 9545TIP3    H152830   0.287   1.365   1.218 -2.5703  0.2361 -0.6204
 9545TIP3    H252831   0.259   1.225   1.267 -0.6703 -0.3423 -1.1318
 9546TIP3   OH252832   2.528   7.060   0.618 -0.0620 -0.1440 -0.6257
 9546TIP3    H152833   2.443   7.098   0.599  0.0678  0.2647 -0.3888
 9546TIP3    H252834   2.569   7.121   0.679 -0.0502 -0.9025  0.1463
 9547TIP3   OH252835   1.586   3.285   2.144 -0.3963 -0.5737  0.0742
 9547TIP3    H152836   1.642   3.214   2.112  1.0783 -0.3475  1.9794
 9547TIP3    H252837   1.643   3.361   2.146 -1.7533  0.5400 -1.1906
 9548TIP3   OH252838   1.936   0.066   1.278  0.3681 -0.2050  0.3265
 9548TIP3    H152839   1.982  -0.008   1.241  1.0592  0.8552 -1.0250
 9548TIP3    H252840   2.002   0.114   1.329  0.2006  0.0781  0.2844
 9549TIP3   OH252841   7.322   1.558   2.276 -0.3396  0.0096 -0.6806
 9549TIP3    H152842   7.330   1.487   2.340  0.2407 -0.7738 -1.5982
 9549TIP3    H252843   7.280   1.629   2.324 -0.5563 -0.8103  0.3735
 9550TIP3   OH252844   1.255   5.951   1.703 -0.5073  0.2260 -0.4084
 9550TIP3    H152845   1.241   5.999   1.785 -0.2142 -0.9522  0.3611
 9550TIP3    H252846   1.185   5.886   1.702  0.4580 -0.8463 -0.2501
 9551TIP3   OH252847   2.370   3.469   1.919  0.0149 -0.1508  0.4616
 9551TIP3    H152848   2.358   3.533   1.989 -0.6518  0.1565  0.0773
 9551TIP3    H252849   2.281   3.440   1.897  0.3385 -1.5371  0.9259
 9552TIP3   OH252850   6.328   5.097   1.176 -0.2806 -0.1889 -0.4190
 9552TIP3    H152851   6.378   5.043   1.238  1.8323  0.7142 -1.2682
 9552TIP3    H252852   6.301   5.173   1.227  1.0258  0.3163 -0.4560
 9553TIP3   OH252853   6.259   2.254   1.408  0.0334  0.4032  0.4024
 9553TIP3    H152854   6.232   2.162   1.412  0.1966  0.3959  1.6665
 9553TIP3    H252855   6.295   2.264   1.320 -0.0158 -0.7401  0.2362
 9554TIP3   OH252856   6.809   4.076   1.732  0.2907  0.2720 -0.5956
 9554TIP3    H152857   6.872   4.146   1.714  0.3642 -0.3610 -3.1126
 9554TIP3    H252858   6.838   4.002   1.679 -2.1538 -0.2531 -1.3727
 9555TIP3   OH252859   4.725   3.321   2.416  0.4588  0.2484  0.7531
 9555TIP3    H152860   4.760   3.404   2.382  0.4602  0.0181  0.1883
 9555TIP3    H252861   4.665   3.291   2.348 -1.3193  0.9431  1.9516
 9556TIP3   OH252862   0.800   5.394   0.505 -0.2304 -0.0078 -0.2224
 9556TIP3    H152863   0.775   5.306   0.477  0.3573  0.0374 -0.9180
 9556TIP3    H252864   0.728   5.450   0.477 -0.3839 -0.1909 -0.1995
 9557TIP3   OH252865   7.515   6.378   1.062 -0.7025  0.5104 -0.1906
 9557TIP3    H152866   7.432   6.331   1.068 -1.4083  1.5214 -1.4931
 9557TIP3    H252867   7.518   6.410   0.972  1.8078 -0.7675 -0.6636
 9558TIP3   OH252868   7.372   6.712   2.237 -0.4397  0.0246 -0.4319
 9558TIP3    H152869   7.298   6.665   2.276 -1.3577 -0.1613 -2.2771
 9558TIP3    H252870   7.364   6.694   2.143  0.5477  1.9873 -0.9287
 9559TIP3   OH252871   6.194   1.365   2.450  0.4318 -0.2873  0.3443
 9559TIP3    H152872   6.257   1.431   2.479  0.6439  0.3790 -1.4800
 9559TIP3    H252873   6.239   1.320   2.378 -0.3604 -1.2804  0.4568
 9560TIP3   OH252874   1.346   1.668   1.191 -0.5607  0.6150  0.4311
 9560TIP3    H152875   1.382   1.665   1.279  0.1620  4.1022  0.3761
 9560TIP3    H252876   1.410   1.717   1.140 -1.3759 -0.5459 -1.8738
 9561TIP3   OH252877   6.980   6.327   1.541 -0.2551  0.2779 -0.1678
 9561TIP3    H152878   6.965   6.376   1.460 -0.3674 -1.8273 -1.5037
 9561TIP3    H252879   6.896   6.287   1.562  0.0062  0.0271  0.4526
 9562TIP3   OH252880   5.202   0.383   3.379 -0.0954  0.2525  0.3742
 9562TIP3    H152881   5.297   0.370   3.370 -0.1712  0.5475 -1.1521
 9562TIP3    H252882   5.165   0.296   3.367  0.0678 -0.3440  3.5104
 9563TIP3   OH252883   3.013   4.297   1.720 -0.1838  0.2954 -0.5925
 9563TIP3    H152884   2.984   4.313   1.810 -1.8309 -1.6739 -0.7137
 9563TIP3    H252885   2.946   4.240   1.683  0.5939  0.8527 -3.0193
 9564TIP3   OH252886   5.531   7.068   2.531  0.6245  0.0510  0.4467
 9564TIP3    H152887   5.551   7.161   2.526  0.3410  0.1729  1.3608
 9564TIP3    H252888   5.554   7.043   2.621 -0.4580 -0.4692  0.6018
 9565TIP3   OH252889   3.977   4.347   1.508 -0.0189  0.3940 -0.5425
 9565TIP3    H152890   3.995   4.328   1.416  0.9522 -0.1679 -0.2480
 9565TIP3    H252891   3.968   4.261   1.549  1.1915  0.5928  0.1895
 9566TIP3   OH252892   6.315   0.560   2.162 -0.2751  0.0898 -0.8169
 9566TIP3    H152893   6.335   0.477   2.204 -2.2122 -0.3540 -0.7013
 9566TIP3    H252894   6.222   0.575   2.179 -0.7808  0.6743 -3.5691
 9567TIP3   OH252895   7.039   1.979   1.443 -0.4944 -0.2970 -0.4233
 9567TIP3    H152896   6.966   2.003   1.500 -0.0759 -0.8794  0.3764
 9567TIP3    H252897   7.105   2.047   1.459 -0.9215  0.3322 -1.2831
 9568TIP3   OH252898   7.220   7.530   1.618 -0.1538  0.0585  0.3626
 9568TIP3    H152899   7.253   7.486   1.540 -2.1966 -1.9748  0.5335
 9568TIP3    H252900   7.221   7.461   1.686 -0.7335  1.0918  1.4561
 9569TIP3   OH252901   0.407   2.737   1.033  0.2636 -0.0625  0.1472
 9569TIP3    H152902   0.435   2.663   1.087 -0.0907 -0.3804 -0.0958
 9569TIP3    H252903   0.313   2.724   1.022  0.0538  0.8510  0.7498
 9570TIP3   OH252904   6.999   6.475   0.605  0.2889  0.7344  0.0165
 9570TIP3    H152905   6.910   6.442   0.623  0.7680 -0.1251  0.8813
 9570TIP3    H252906   6.996   6.501   0.513 -0.5814 -0.2671 -0.2619
 9571TIP3   OH252907   3.142   6.885   0.862  0.2223  0.5309  0.3418
 9571TIP3    H152908   3.157   6.872   0.956 -1.0097 -0.1044  0.4792
 9571TIP3    H252909   3.110   6.975   0.855  0.5606  0.6637  0.5030
 9572TIP3   OH252910   6.376   1.612   3.108  0.1702  0.0243  0.8790
 9572TIP3    H152911   6.437   1.648   3.173 -0.0431 -0.6844  1.4865
 9572TIP3    H252912   6.392   1.518   3.110  1.7111  0.1363 -1.6793
 9573TIP3   OH252913   1.998   0.005   2.316 -0.0950 -0.1183  0.2705
 9573TIP3    H152914   1.958   0.089   2.338 -0.3011 -0.4776  1.3117
 9573TIP3    H252915   2.033  -0.028   2.399  0.9501 -0.5621 -0.3265
 9574TIP3   OH252916   5.705   2.465   1.819  0.1342 -0.1039  0.8595
 9574TIP3    H152917   5.772   2.531   1.838 -0.8549  0.7725  1.4083
 9574TIP3    H252918   5.667   2.493   1.736 -0.5575  0.2537  1.2904
 9575TIP3   OH252919   2.056   0.635   1.576  0.1459  0.1793  0.0384
 9575TIP3    H152920   1.967   0.641   1.540 -0.1985  2.5284  1.1662
 9575TIP3    H252921   2.068   0.541   1.592 -1.8079 -0.2875 -0.8562
 9576TIP3   OH252922   2.706   0.424   0.845 -0.0156 -0.3877 -0.5678
 9576TIP3    H152923   2.706   0.373   0.764  0.2500 -0.8367 -0.2930
 9576TIP3    H252924   2.697   0.358   0.914  0.5223 -0.0789 -0.1999
 9577TIP3   OH252925   3.194   5.733   2.901 -0.1072  0.5734  0.6774
 9577TIP3    H152926   3.111   5.751   2.856  0.4177 -0.5854 -0.8604
 9577TIP3    H252927   3.182   5.647   2.940  0.2431  0.5470  0.7300
 9578TIP3   OH252928   4.891   6.022   1.508  0.2830  0.1819  0.5152
 9578TIP3    H152929   4.809   5.982   1.481  0.7832 -0.5899  0.1168
 9578TIP3    H252930   4.867   6.076   1.584 -0.8350  1.0490 -0.4133
 9579TIP3   OH252931   0.400   6.886   1.883  0.6170  0.1637  0.2658
 9579TIP3    H152932   0.464   6.873   1.953 -0.6904 -0.3728  1.3904
 9579TIP3    H252933   0.406   6.807   1.830 -1.1869 -1.2981  2.1064
 9580TIP3   OH252934   3.760   5.742   1.493 -0.0094 -0.2084 -0.3941
 9580TIP3    H152935   3.835   5.784   1.535 -0.2266 -2.1259  2.1109
 9580TIP3    H252936   3.795   5.659   1.459 -1.0460 -1.5079  1.5127
 9581TIP3   OH252937   4.725   2.013   3.446  0.2315  0.4352  0.6398
 9581TIP3    H152938   4.820   2.015   3.439  0.1094  2.0922 -2.7536
 9581TIP3    H252939   4.698   2.105   3.440 -1.5899 -0.1051 -0.4470
 9582TIP3   OH252940   5.720   4.981   3.030 -0.3973 -0.7773 -0.1812
 9582TIP3    H152941   5.782   4.914   3.060 -0.6476 -0.5486  0.9118
 9582TIP3    H252942   5.701   4.958   2.939  0.6100 -1.3598 -0.2569
 9583TIP3   OH252943   4.989   4.153   2.357 -0.3351  0.0375  0.0211
 9583TIP3    H152944   4.974   4.204   2.437 -1.3793  2.6503 -1.7397
 9583TIP3    H252945   5.048   4.206   2.305 -0.5323 -1.1124 -1.4343
 9584TIP3   OH252946   6.697   1.392   0.822 -0.3724  0.0614 -0.7882
 9584TIP3    H152947   6.602   1.397   0.807 -0.8950  0.9190  2.1548
 9584TIP3    H252948   6.712   1.451   0.896  2.4282 -0.3977 -0.8973
 9585TIP3   OH252949   2.525   5.347   1.802 -0.2157  0.6726  0.3068
 9585TIP3    H152950   2.607   5.395   1.812  0.2459 -0.1619  0.6248
 9585TIP3    H252951   2.516   5.298   1.884  0.1585 -1.0345 -0.6509
 9586TIP3   OH252952   6.562   4.489   2.123 -0.0475 -0.5095 -0.6830
 9586TIP3    H152953   6.651   4.502   2.156  0.1542 -0.7140 -1.1414
 9586TIP3    H252954   6.506   4.526   2.191  0.4422  1.1553 -1.1369
 9587TIP3   OH252955   0.074   0.073   0.659  0.2159  0.0103 -0.2090
 9587TIP3    H152956  -0.012   0.116   0.658  0.5096  0.6591  0.7896
 9587TIP3    H252957   0.130   0.134   0.707  0.7071 -1.3738  1.0351
 9588TIP3   OH252958   3.823   3.007   1.969 -0.1573 -0.4452  0.3752
 9588TIP3    H152959   3.869   2.984   1.889  1.3585  1.4319  0.6286
 9588TIP3    H252960   3.886   2.992   2.039 -0.2355  1.1610  0.8418
 9589TIP3   OH252961   3.188   1.834   2.026  0.4767  0.4664  0.0577
 9589TIP3    H152962   3.164   1.777   1.953  0.3566  0.1353  0.3536
 9589TIP3    H252963   3.253   1.894   1.989  1.4749 -0.6002  0.0275
 9590TIP3   OH252964   7.229   3.922   0.489 -0.2009 -0.0766 -0.4938
 9590TIP3    H152965   7.303   3.881   0.534 -1.6086 -0.9535  1.1083
 9590TIP3    H252966   7.174   3.849   0.461 -2.1863  0.5897  1.4101
 9591TIP3   OH252967   5.867   0.167   1.687  0.0909  0.0831 -0.0492
 9591TIP3    H152968   5.899   0.123   1.608 -0.1605 -1.1805  0.5221
 9591TIP3    H252969   5.851   0.096   1.749  0.4852  1.0670  1.2225
 9592TIP3   OH252970   6.912   6.444   1.233 -0.2211 -0.3788  0.0148
 9592TIP3    H152971   6.994   6.492   1.221  0.6057 -2.0446 -1.4085
 9592TIP3    H252972   6.929   6.358   1.196 -2.7306 -0.6692 -0.6508
 9593TIP3   OH252973   5.374   6.125   1.677 -0.1140 -0.5634  0.1019
 9593TIP3    H152974   5.281   6.104   1.691 -0.5420  0.0706 -1.5446
 9593TIP3    H252975   5.381   6.218   1.701  0.0995 -0.6091  0.2172
 9594TIP3   OH252976   2.313   7.216   1.485 -0.0514 -0.0894  0.7645
 9594TIP3    H152977   2.357   7.145   1.531  3.1789  1.2685  0.0070
 9594TIP3    H252978   2.291   7.279   1.553  1.2115  0.1872  0.9349
 9595TIP3   OH252979   1.008   4.238   0.969  0.0354  0.0672  0.2178
 9595TIP3    H152980   0.975   4.183   1.040 -0.7308 -1.3844 -1.2004
 9595TIP3    H252981   1.090   4.196   0.943 -1.5170 -1.7272 -2.1982
 9596TIP3   OH252982   3.254   5.719   2.196 -0.0615 -0.2068  0.4739
 9596TIP3    H152983   3.189   5.781   2.164  0.8756 -0.1612 -1.4509
 9596TIP3    H252984   3.242   5.719   2.291 -1.7608  1.0044  0.3075
 9597TIP3   OH252985   1.992   0.818   0.818 -0.1677 -0.3684 -0.3700
 9597TIP3    H152986   1.978   0.728   0.845 -1.2278  0.0092  0.4012
 9597TIP3    H252987   2.048   0.855   0.886  0.0738 -0.3719 -0.5637
 9598TIP3   OH252988   1.222   5.699   1.188  0.5066  0.9264  0.3721
 9598TIP3    H152989   1.268   5.617   1.205 -0.0068  0.2407 -1.2913
 9598TIP3    H252990   1.175   5.718   1.269 -0.7531 -1.3698  0.2622
 9599TIP3   OH252991   1.128   1.987   1.234  0.6735 -0.0169  0.3854
 9599TIP3    H152992   1.112   1.938   1.154  2.0412 -1.7142  1.1023
 9599TIP3    H252993   1.056   2.050   1.238 -0.3357 -0.9881 -1.3162
 9600TIP3   OH252994   0.079   4.001   0.514  0.6023  0.3749  0.0313
 9600TIP3    H152995   0.023   4.045   0.451  0.7824  1.6042  0.7007
 9600TIP3    H252996   0.125   3.934   0.463 -0.0997  0.5778 -0.8929
 9601TIP3   OH252997   3.833   0.327   2.902 -0.1809 -0.1146 -0.1809
 9601TIP3    H152998   3.916   0.306   2.946  0.2732  1.9312  0.0282
 9601TIP3    H252999   3.767   0.319   2.971 -0.0505 -0.9210 -0.1392
 9602TIP3   OH253000   2.289   1.479   2.906 -0.0077  0.4558  0.3284
 9602TIP3    H153001   2.238   1.401   2.927  0.8693 -0.3189 -0.2993
 9602TIP3    H253002   2.296   1.526   2.989  0.1221 -0.5564  0.9177
 9603TIP3   OH253003   0.626   4.213   2.765 -0.3331 -0.0459  0.1920
 9603TIP3    H153004   0.630   4.263   2.847 -0.8048  0.9004 -0.3438
 9603TIP3    H253005   0.612   4.279   2.698  0.7136 -0.7493 -0.7449
 9604TIP3   OH253006   5.011   4.143   2.016  0.2355 -0.0129 -0.8259
 9604TIP3    H153007   4.927   4.147   2.061 -0.1522 -0.3001 -1.4994
 9604TIP3    H253008   5.025   4.231   1.982  0.4228  0.1466 -0.3500
 9605TIP3   OH253009   1.806   3.781   1.484  0.5489 -0.2520  0.2364
 9605TIP3    H153010   1.896   3.756   1.506  0.6706 -0.2920 -0.2906
 9605TIP3    H253011   1.800   3.770   1.389 -0.3124 -1.2317  0.3817
 9606TIP3   OH253012   2.769   5.513   2.730 -0.4721  0.3539 -0.0056
 9606TIP3    H153013   2.726   5.587   2.773 -3.3754 -1.1190 -0.1349
 9606TIP3    H253014   2.718   5.437   2.757  0.9610 -1.3268 -1.7572
 9607TIP3   OH253015   1.212   3.056   2.633 -0.0368  0.0080  0.4548
 9607TIP3    H153016   1.193   3.142   2.671 -1.5728 -0.2857  0.4067
 9607TIP3    H253017   1.267   3.013   2.699 -0.0897  0.6495  0.9345
 9608TIP3   OH253018   5.138   1.570   1.625 -0.0565 -0.4897 -0.1830
 9608TIP3    H153019   5.192   1.495   1.600 -0.0221 -0.7712  0.7098
 9608TIP3    H253020   5.055   1.556   1.580  0.9280  0.4911 -2.4463
 9609TIP3   OH253021   1.376   3.436   2.883  0.4262 -0.0934  0.4205
 9609TIP3    H153022   1.421   3.352   2.890 -0.2395 -0.4095  1.1846
 9609TIP3    H253023   1.410   3.487   2.957 -1.1658 -0.7103  1.6524
 9610TIP3   OH253024   1.175   1.859   0.976 -0.4852  0.1602 -0.0752
 9610TIP3    H153025   1.251   1.908   0.944  0.3952 -0.8384  0.4240
 9610TIP3    H253026   1.210   1.772   0.998 -1.9653 -0.6481 -0.7796
 9611TIP3   OH253027   2.141   0.295   1.192 -0.1662 -0.3294 -0.1993
 9611TIP3    H153028   2.126   0.259   1.279  0.9093  0.5356  0.3745
 9611TIP3    H253029   2.071   0.359   1.179 -0.2966 -0.4222  0.0533
 9612TIP3   OH253030   3.074   6.354   0.528  0.0317  0.2529  0.2414
 9612TIP3    H153031   3.089   6.261   0.544  0.5660  0.7170  3.0217
 9612TIP3    H253032   3.160   6.394   0.540 -0.3744  1.2080  0.0625
 9613TIP3   OH253033   5.066   2.155   2.699  0.4230  0.2719 -0.9143
 9613TIP3    H153034   5.130   2.217   2.734  0.1253  0.1872 -0.2141
 9613TIP3    H253035   5.020   2.204   2.631  0.9981  0.4373 -1.1924
 9614TIP3   OH253036   2.433   2.256   1.998  0.4071 -0.0838 -0.3625
 9614TIP3    H153037   2.403   2.277   2.086 -0.3746  0.4525 -0.7479
 9614TIP3    H253038   2.452   2.341   1.958 -0.3290 -0.2379 -1.0744
 9615TIP3   OH253039   2.090   3.998   1.686  0.2359  0.4762 -0.7615
 9615TIP3    H153040   2.056   3.976   1.600 -3.3239 -1.6975  0.9409
 9615TIP3    H253041   2.169   3.946   1.695 -0.9423 -1.5974 -1.7359
 9616TIP3   OH253042   5.546   7.038   1.991  0.5429  0.1340 -0.3290
 9616TIP3    H153043   5.560   7.029   2.086  1.4791  0.4333 -0.4340
 9616TIP3    H253044   5.633   7.029   1.953 -0.0777 -2.2869 -1.3628
 9617TIP3   OH253045   3.737   2.968   0.605  0.1548  0.1911  0.0968
 9617TIP3    H153046   3.806   2.925   0.555 -1.6803  0.1975 -2.6405
 9617TIP3    H253047   3.700   2.898   0.660  1.4957 -0.0840  0.6891
 9618TIP3   OH253048   1.539   5.053   1.653  0.7617  0.8700  0.1019
 9618TIP3    H153049   1.565   4.993   1.723  0.5041  2.4485  1.6165
 9618TIP3    H253050   1.452   5.024   1.627  1.4701 -0.6770 -0.7024
 9619TIP3   OH253051   7.077   0.681   3.139  0.0527 -0.2361  0.5382
 9619TIP3    H153052   7.071   0.776   3.147  0.2830 -0.2436  0.8571
 9619TIP3    H253053   7.007   0.656   3.079  0.6370  0.2420 -0.3694
 9620TIP3   OH253054   5.396   4.705   0.449  0.2053 -0.1936 -0.6016
 9620TIP3    H153055   5.491   4.708   0.438  0.0147  1.2029 -2.2037
 9620TIP3    H253056   5.376   4.780   0.505 -0.2180  1.6242 -3.0421
 9621TIP3   OH253057   0.994   6.565   2.923  0.3513 -0.0801 -0.6132
 9621TIP3    H153058   0.929   6.501   2.951  1.4792  0.5334  4.5004
 9621TIP3    H253059   0.957   6.649   2.948  1.3778  0.6947 -1.5976
 9622TIP3   OH253060   0.361   4.409   3.632 -0.3807  0.0889 -0.5645
 9622TIP3    H153061   0.362   4.380   3.723  0.2893 -0.4310 -0.7287
 9622TIP3    H253062   0.269   4.420   3.611 -0.5441  0.1015  0.1446
 9623TIP3   OH253063   7.094   2.892   2.482 -0.0536 -0.5548  0.0799
 9623TIP3    H153064   7.090   2.959   2.550  0.5452 -0.0683 -0.3585
 9623TIP3    H253065   7.016   2.838   2.497  0.9438 -1.5143  2.2157
 9624TIP3   OH253066   7.290   7.341   1.418 -0.1650  0.0492  0.6034
 9624TIP3    H153067   7.204   7.337   1.377  1.5194 -2.1130 -3.2924
 9624TIP3    H253068   7.298   7.259   1.465 -0.1881  0.2199  0.9077
 9625TIP3   OH253069   6.294   1.801   1.852  0.1144 -0.1434  0.0793
 9625TIP3    H153070   6.202   1.825   1.836  0.2944 -0.2161 -1.2111
 9625TIP3    H253071   6.343   1.879   1.826  0.4777 -0.5011 -0.3079
 9626TIP3   OH253072   7.413   4.127   1.431  0.4476  0.1298  0.0971
 9626TIP3    H153073   7.464   4.081   1.363  0.9381 -0.2157  0.6908
 9626TIP3    H253074   7.359   4.059   1.470 -3.1868  1.0012 -2.8167
 9627TIP3   OH253075   2.003   2.533   0.934  0.3758 -0.3888 -0.0538
 9627TIP3    H153076   2.009   2.533   1.029  0.3453 -0.4270 -0.0515
 9627TIP3    H253077   2.012   2.624   0.908 -1.6700 -0.0783  0.1121
 9628TIP3   OH253078   3.926   4.266   2.173 -0.1569 -0.3138 -0.0003
 9628TIP3    H153079   3.886   4.353   2.179  0.6477  0.4118 -3.1138
 9628TIP3    H253080   3.858   4.206   2.204 -1.6708  1.2288 -0.1519
 9629TIP3   OH253081   1.527   4.547   2.359  1.1109 -0.2133  0.0037
 9629TIP3    H153082   1.542   4.453   2.349  1.1623 -0.0287 -2.0121
 9629TIP3    H253083   1.474   4.555   2.439  1.0713 -1.9326  0.1824
 9630TIP3   OH253084   6.318   6.094   1.437  0.6149 -0.3193  0.3268
 9630TIP3    H153085   6.374   6.165   1.467 -1.3152  2.2254 -1.6006
 9630TIP3    H253086   6.356   6.066   1.354  0.8965 -0.9934  0.6733
 9631TIP3   OH253087   1.138   6.415   0.615  0.5361 -0.3692  0.1556
 9631TIP3    H153088   1.203   6.463   0.563 -0.1315 -0.4892 -0.8298
 9631TIP3    H253089   1.159   6.323   0.601  0.5261 -0.3984  0.3306
 9632TIP3   OH253090   1.390   6.355   2.551  0.8242  0.1975 -0.2926
 9632TIP3    H153091   1.379   6.265   2.581  0.8075  0.3778  0.2682
 9632TIP3    H253092   1.327   6.405   2.603  0.9941  0.5623 -0.4337
 9633TIP3   OH253093   0.501   3.086   1.387  0.9079  0.1864  0.0950
 9633TIP3    H153094   0.579   3.033   1.368  0.4216 -0.6267  0.3316
 9633TIP3    H253095   0.535   3.176   1.393  2.0517 -0.2860  1.4252
 9634TIP3   OH253096   1.251   0.285   2.106  0.0174  0.4771 -0.9802
 9634TIP3    H153097   1.252   0.276   2.010 -2.1006  2.4275 -1.2820
 9634TIP3    H253098   1.175   0.235   2.134 -1.1512  2.2907 -0.7303
 9635TIP3   OH253099   3.310   4.388   2.690  0.2070 -0.3098  0.0094
 9635TIP3    H153100   3.399   4.357   2.672 -0.4484 -2.1828 -0.2417
 9635TIP3    H253101   3.320   4.481   2.708  2.0074 -0.1135 -1.6957
 9636TIP3   OH253102   4.164   3.267   2.280 -0.0817 -0.3247  0.3311
 9636TIP3    H153103   4.229   3.311   2.335  0.2820  0.0197 -0.3475
 9636TIP3    H253104   4.197   3.178   2.270  1.0905  0.2428 -1.2047
 9637TIP3   OH253105   1.126   6.504   2.682  0.0802 -0.2730  0.6606
 9637TIP3    H153106   1.158   6.424   2.723  1.5921  0.0072  0.0760
 9637TIP3    H253107   1.077   6.548   2.752  1.2346 -0.5839  1.7072
 9638TIP3   OH253108   3.293   7.324   0.622  0.1607  0.0785  0.1074
 9638TIP3    H153109   3.268   7.416   0.636  2.6739  0.7852  0.4442
 9638TIP3    H253110   3.228   7.274   0.671 -2.3002  1.5256 -1.4688
 9639TIP3   OH253111   1.050   6.007   0.785  0.0941 -0.3475  0.2447
 9639TIP3    H153112   0.980   5.944   0.772 -1.1855  0.5507  2.1782
 9639TIP3    H253113   1.110   5.965   0.847  0.4031 -0.4688 -0.1283
 9640TIP3   OH253114   4.867   3.500   2.002 -0.4292 -0.7278 -0.4511
 9640TIP3    H153115   4.961   3.508   1.989 -0.4112 -0.1273 -0.0154
 9640TIP3    H253116   4.842   3.420   1.956 -0.0493  0.1724 -2.3155
 9641TIP3   OH253117   4.987   2.051   3.379 -0.3476 -0.4097  0.2745
 9641TIP3    H153118   5.067   2.086   3.419 -0.4721  1.1213 -0.7641
 9641TIP3    H253119   5.017   2.002   3.303 -0.4051  0.5737 -0.3972
 9642TIP3   OH253120   6.364   4.888   1.583 -0.2071  0.3922  0.0760
 9642TIP3    H153121   6.308   4.811   1.597 -0.5859  0.7189  0.3814
 9642TIP3    H253122   6.363   4.933   1.667  2.4152 -0.8256  0.8711
 9643TIP3   OH253123   0.573   4.480   1.354  1.0367 -0.0852 -0.1425
 9643TIP3    H153124   0.608   4.533   1.283  2.6369  0.2058  0.8026
 9643TIP3    H253125   0.651   4.439   1.394  0.0344 -1.5193  0.4257
 9644TIP3   OH253126   2.940   5.585   2.206 -0.1532 -0.7722 -0.1365
 9644TIP3    H153127   2.988   5.502   2.209 -1.3668 -1.4938  1.7966
 9644TIP3    H253128   2.913   5.600   2.297 -1.7385  0.6632 -0.7882
 9645TIP3   OH253129   6.960   0.115   1.660 -0.0487  0.1816 -0.2324
 9645TIP3    H153130   6.911   0.063   1.597  0.7812  0.9183 -1.5484
 9645TIP3    H253131   7.047   0.076   1.661 -0.2572 -0.3128  1.0963
 9646TIP3   OH253132   4.662   7.484   1.048  0.3417 -0.3083 -0.1093
 9646TIP3    H153133   4.655   7.578   1.064  0.1827 -0.3848  0.2758
 9646TIP3    H253134   4.647   7.444   1.134  0.9607 -0.6632 -0.1672
 9647TIP3   OH253135   6.762   6.548   1.987 -0.5275 -0.3782 -0.2041
 9647TIP3    H153136   6.823   6.474   1.990 -2.5762 -2.1962  2.8489
 9647TIP3    H253137   6.681   6.511   1.952 -0.9723  1.0213 -0.7086
 9648TIP3   OH253138   4.295   1.143   2.429  0.3676  0.1128 -0.1697
 9648TIP3    H153139   4.302   1.098   2.513 -2.5366  1.1450  0.7415
 9648TIP3    H253140   4.354   1.218   2.437  0.1625  0.1757  0.9374
 9649TIP3   OH253141   6.726   7.162   1.846  0.1436 -0.3984 -0.0326
 9649TIP3    H153142   6.760   7.096   1.786 -0.9836 -0.3106 -0.7988
 9649TIP3    H253143   6.633   7.168   1.826  0.0860  0.9530  0.4802
 9650TIP3   OH253144   4.536   7.395   3.009 -0.1280  0.6222 -0.3639
 9650TIP3    H153145   4.539   7.302   2.985 -0.8013  0.9252 -1.7213
 9650TIP3    H253146   4.509   7.395   3.101 -0.5535 -0.5237 -0.4736
 9651TIP3   OH253147   5.544   4.985   1.937 -0.0892 -0.1014  0.8065
 9651TIP3    H153148   5.586   4.919   1.992  0.7364  0.4728  0.8837
 9651TIP3    H253149   5.602   5.060   1.941 -0.0175 -0.0206 -0.8119
 9652TIP3   OH253150   3.676   5.638   0.421 -0.3221 -0.0969  0.2527
 9652TIP3    H153151   3.615   5.688   0.474  0.6079 -0.4068  1.6614
 9652TIP3    H253152   3.638   5.551   0.414 -0.1883 -0.2130  0.9013
 9653TIP3   OH253153   3.335   2.995   0.534 -0.3248  0.1000  0.0586
 9653TIP3    H153154   3.406   3.040   0.579 -1.2302  0.2746  1.3829
 9653TIP3    H253155   3.284   2.954   0.604 -1.6452  0.1437 -0.8276
 9654TIP3   OH253156   5.608   6.815   3.014  0.2811 -0.8122 -0.2831
 9654TIP3    H153157   5.657   6.763   3.078 -1.5916 -2.2634  0.0556
 9654TIP3    H253158   5.545   6.864   3.067 -1.8383 -2.6312 -0.9758
 9655TIP3   OH253159   4.898   0.314   0.765  0.0406 -0.3255  0.6093
 9655TIP3    H153160   4.838   0.252   0.724 -0.7786 -0.2092  1.5827
 9655TIP3    H253161   4.849   0.396   0.767  1.3460  0.5727 -1.2555
 9656TIP3   OH253162   2.770   0.265   0.600  0.4264 -0.7495 -0.6817
 9656TIP3    H153163   2.703   0.282   0.535 -0.2564 -0.3770  0.1038
 9656TIP3    H253164   2.821   0.192   0.564  0.9266  0.3444 -2.2570
 9657TIP3   OH253165   2.548   5.130   1.008 -0.2113  0.0936  0.5291
 9657TIP3    H153166   2.481   5.172   0.955  1.1773  1.1802 -0.4663
 9657TIP3    H253167   2.625   5.127   0.952  1.0942  0.5236  2.1861
 9658TIP3   OH253168   5.288   4.310   1.912  0.4054  0.3628  0.5256
 9658TIP3    H153169   5.196   4.325   1.931  0.3648  0.7261  0.0590
 9658TIP3    H253170   5.291   4.224   1.870  0.1426  0.8073 -0.4286
 9659TIP3   OH253171   2.107   0.193   0.481  0.1731 -0.6593 -0.2224
 9659TIP3    H153172   2.199   0.178   0.462 -0.0739  0.0020 -2.1688
 9659TIP3    H253173   2.077   0.112   0.523  2.2556  0.1527  3.2319
 9660TIP3   OH253174   4.592   6.930   2.848 -0.4424  0.3172 -0.6115
 9660TIP3    H153175   4.671   6.877   2.861 -0.0210  1.0590 -0.0602
 9660TIP3    H253176   4.521   6.867   2.846 -0.1691 -0.1860  1.8885
 9661TIP3   OH253177   3.581   7.025   1.418 -0.0968 -0.1541 -0.3852
 9661TIP3    H153178   3.628   6.950   1.455  0.9091 -0.0526 -1.4130
 9661TIP3    H253179   3.501   7.031   1.470  0.1076 -1.5487  0.1233
 9662TIP3   OH253180   3.406   3.421   2.144 -1.0204  0.2811  0.5586
 9662TIP3    H153181   3.417   3.495   2.203 -2.0027  1.9673 -1.2732
 9662TIP3    H253182   3.486   3.419   2.092 -1.6620  1.1584 -0.5130
 9663TIP3   OH253183   6.887   0.186   0.962 -0.0572  0.1638  0.1032
 9663TIP3    H153184   6.830   0.130   0.910 -1.4500  0.0833  1.6129
 9663TIP3    H253185   6.834   0.265   0.978  0.5800  0.4664  0.7845
 9664TIP3   OH253186   6.773   3.476   1.953  0.9217  0.0751 -0.1512
 9664TIP3    H153187   6.714   3.452   1.881  1.0717  0.3817 -0.3769
 9664TIP3    H253188   6.827   3.546   1.917  1.6659 -0.4455 -0.0630
 9665TIP3   OH253189   0.179   3.984   0.766  0.5570  0.2423  0.1842
 9665TIP3    H153190   0.163   3.996   0.672 -0.4332  0.0497  0.3126
 9665TIP3    H253191   0.231   3.904   0.772  1.6496  0.9039 -0.2677
 9666TIP3   OH253192   4.243   1.967   0.726  0.7249 -0.3112  0.2459
 9666TIP3    H153193   4.206   2.025   0.659 -2.5293 -1.0279  1.2393
 9666TIP3    H253194   4.204   1.882   0.707  1.1608 -0.9346  1.9826
 9667TIP3   OH253195   2.633   0.366   1.740 -0.3730  0.4124  0.1053
 9667TIP3    H153196   2.724   0.396   1.738 -0.2451  0.0052 -0.2189
 9667TIP3    H253197   2.583   0.440   1.704 -0.0844  0.3280 -0.4752
 9668TIP3   OH253198   2.784   1.210   0.669  0.1236  0.5548 -0.0435
 9668TIP3    H153199   2.839   1.149   0.719 -1.3271  1.7040  3.2720
 9668TIP3    H253200   2.723   1.153   0.621  0.1924 -0.6914  1.2504
 9669TIP3   OH253201   2.148   3.346   1.825 -0.7209 -0.4019 -0.0857
 9669TIP3    H153202   2.196   3.339   1.743 -1.1794  3.3406 -0.8268
 9669TIP3    H253203   2.056   3.349   1.799 -0.8875  0.6236  0.5728
 9670TIP3   OH253204   3.004   5.488   0.682  0.4598 -0.1919  0.3501
 9670TIP3    H153205   2.974   5.565   0.634  1.1276  0.2525  0.6374
 9670TIP3    H253206   3.086   5.515   0.724  0.1311 -0.7051  1.3694
 9671TIP3   OH253207   0.460   2.934   0.850 -0.1389 -0.3013  0.0278
 9671TIP3    H153208   0.376   2.978   0.837  0.3901  0.7379  0.0383
 9671TIP3    H253209   0.439   2.860   0.907 -1.1555 -0.4324 -0.5011
 9672TIP3   OH253210   4.801   4.470   2.795  0.0855  0.0630 -0.0594
 9672TIP3    H153211   4.743   4.546   2.802  0.2246  0.1967 -0.3501
 9672TIP3    H253212   4.747   4.402   2.757  0.7867  0.9425 -2.8349
 9673TIP3   OH253213   2.554   4.800   3.161 -0.3113 -0.6778  0.1064
 9673TIP3    H153214   2.538   4.869   3.096  2.2510  1.5251  1.5789
 9673TIP3    H253215   2.497   4.822   3.234 -0.0262 -0.5139  0.2842
 9674TIP3   OH253216   6.065   7.258   1.469  0.2920 -0.2713  0.0089
 9674TIP3    H153217   6.137   7.207   1.432  1.0772  2.0541 -1.9920
 9674TIP3    H253218   6.027   7.302   1.393 -0.7149  1.5617  1.5172
 9675TIP3   OH253219   1.519   5.052   0.532  0.5679 -0.0683  0.4502
 9675TIP3    H153220   1.529   5.096   0.447  0.5214  0.6448  0.8102
 9675TIP3    H253221   1.585   5.091   0.588 -0.7742  0.9937  1.3490
 9676TIP3   OH253222   6.249   0.778   2.478  0.1444 -0.4274 -0.5446
 9676TIP3    H153223   6.324   0.803   2.531 -0.6366 -0.9997  0.9053
 9676TIP3    H253224   6.262   0.685   2.459 -0.1575 -0.5240 -0.3065
 9677TIP3   OH253225   1.584   5.622   2.511 -1.1645  0.3830  0.5457
 9677TIP3    H153226   1.659   5.629   2.570 -0.6982 -0.4635  0.0830
 9677TIP3    H253227   1.600   5.540   2.463 -2.2137  0.3696  0.2022
 9678TIP3   OH253228   2.262   4.620   0.438  0.2740 -0.1752 -0.1720
 9678TIP3    H153229   2.322   4.603   0.510  2.2987 -1.6031 -2.0683
 9678TIP3    H253230   2.183   4.571   0.460  0.7302 -0.3576  1.1614
 9679TIP3   OH253231   1.622   2.506   1.908 -0.2310  0.2241  0.0666
 9679TIP3    H153232   1.647   2.580   1.964  1.2305  0.4357 -0.8161
 9679TIP3    H253233   1.543   2.471   1.949  0.6189  0.5317  2.1012
 9680TIP3   OH253234   6.421   7.432   1.390  0.9353 -0.0947 -0.4135
 9680TIP3    H153235   6.472   7.352   1.377  0.7187 -0.6090  1.5293
 9680TIP3    H253236   6.354   7.430   1.322  1.8194 -0.8096 -1.2907
 9681TIP3   OH253237   3.210   1.155   0.889  0.1998 -0.4828 -0.7066
 9681TIP3    H153238   3.290   1.166   0.838  0.4038 -1.6233 -0.6472
 9681TIP3    H253239   3.159   1.233   0.870  1.8223  0.8751  0.1652
 9682TIP3   OH253240   7.385   4.624   0.749  0.4515  0.0024 -0.3007
 9682TIP3    H153241   7.309   4.617   0.807  1.1702  2.0157  0.9828
 9682TIP3    H253242   7.452   4.570   0.790  0.3105 -0.2930 -0.4489
 9683TIP3   OH253243   2.834   4.743   3.217  0.3699 -0.3581  0.0093
 9683TIP3    H153244   2.839   4.684   3.142 -0.9329 -0.1446 -0.2820
 9683TIP3    H253245   2.740   4.748   3.236  0.6397  0.0267  1.3094
 9684TIP3   OH253246   0.784   3.125   2.687  0.1006 -0.3979 -0.3002
 9684TIP3    H153247   0.701   3.168   2.706 -0.1389 -0.5718 -0.9435
 9684TIP3    H253248   0.850   3.195   2.696 -0.1437 -0.1968 -0.0710
 9685TIP3   OH253249   2.016   5.545   2.258  0.1721  0.0057 -0.0835
 9685TIP3    H153250   1.979   5.458   2.245  0.7443 -0.1233 -0.9062
 9685TIP3    H253251   1.987   5.595   2.181 -0.3995  0.6358  0.5229
 9686TIP3   OH253252   1.565   2.540   1.326  0.3880 -0.1505 -0.1554
 9686TIP3    H153253   1.584   2.461   1.376  0.8385  0.1577  0.1726
 9686TIP3    H253254   1.618   2.532   1.247  1.0664  0.1935  0.2517
 9687TIP3   OH253255   4.092   0.410   0.536 -0.1944 -0.4829 -0.0348
 9687TIP3    H153256   4.050   0.460   0.607 -0.8811  0.4621 -1.0628
 9687TIP3    H253257   4.185   0.415   0.555 -0.4383 -1.4103  1.5348
 9688TIP3   OH253258   4.739   2.289   3.445 -0.0203 -0.0616  0.1019
 9688TIP3    H153259   4.803   2.320   3.509 -0.9310 -0.8222  1.4477
 9688TIP3    H253260   4.738   2.356   3.377  2.3102 -0.1304 -0.0602
 9689TIP3   OH253261   1.698   4.820   2.671  0.2573 -0.4856 -0.0202
 9689TIP3    H153262   1.678   4.911   2.692 -1.4253 -0.3355 -1.9413
 9689TIP3    H253263   1.624   4.771   2.708 -0.3223 -0.7119 -1.4130
 9690TIP3   OH253264   3.137   2.961   2.534  0.9056  0.0753 -0.2091
 9690TIP3    H153265   3.153   3.046   2.576  1.5183  0.4326 -1.1473
 9690TIP3    H253266   3.219   2.913   2.545  0.4884 -0.5026  0.5199
 9691TIP3   OH253267   3.476   3.606   1.823  0.1196  0.3979 -0.0845
 9691TIP3    H153268   3.433   3.669   1.882  0.2480  1.2853 -0.9193
 9691TIP3    H253269   3.568   3.631   1.825 -0.0952  1.4888 -1.8944
 9692TIP3   OH253270   7.116   1.194   2.535  0.3843 -0.1386  0.0713
 9692TIP3    H153271   7.074   1.124   2.486 -0.4366  0.8139 -0.6322
 9692TIP3    H253272   7.162   1.150   2.607 -0.8043 -1.3091  0.1376
 9693TIP3   OH253273   3.302   6.003   1.987 -0.2864  0.0333  0.3288
 9693TIP3    H153274   3.344   6.012   2.073 -0.7833 -0.7612  0.6646
 9693TIP3    H253275   3.349   5.931   1.945  0.1447  0.6118 -0.1872
 9694TIP3   OH253276   2.428   4.759   1.966  0.3242  0.2013 -0.1948
 9694TIP3    H153277   2.468   4.672   1.976  1.0920  0.4966 -0.5466
 9694TIP3    H253278   2.503   4.819   1.960 -0.1576  0.7416 -1.2365
 9695TIP3   OH253279   3.225   2.237   0.397  0.6301  0.4062 -0.6474
 9695TIP3    H153280   3.319   2.258   0.399  0.6826  0.1359 -0.0610
 9695TIP3    H253281   3.221   2.144   0.419  0.0868  0.9298  1.8279
 9696TIP3   OH253282   6.906   4.680   1.899 -0.9303 -0.0770  0.2971
 9696TIP3    H153283   6.963   4.604   1.891 -0.0308  0.6021  0.0613
 9696TIP3    H253284   6.825   4.654   1.855  0.4157  0.1183 -2.4879
 9697TIP3   OH253285   3.580   4.305   2.261 -0.4272  0.3862  0.4345
 9697TIP3    H153286   3.610   4.238   2.200 -2.1708  2.1468 -2.5996
 9697TIP3    H253287   3.513   4.261   2.313  0.0716 -0.8059  0.1105
 9698TIP3   OH253288   4.575   2.750   2.934  0.5443  0.6112 -0.0650
 9698TIP3    H153289   4.645   2.792   2.984  0.8520  0.2301 -0.1709
 9698TIP3    H253290   4.555   2.671   2.983 -1.3588  1.7979  1.1782
 9699TIP3   OH253291   4.302   1.941   1.593  0.1552  0.3887  0.1712
 9699TIP3    H153292   4.211   1.919   1.576 -0.5602  0.7882  2.9481
 9699TIP3    H253293   4.302   2.035   1.608 -0.0138 -0.0773  4.6716
 9700TIP3   OH253294   4.269   6.288   0.722  0.5498 -0.1439  0.0068
 9700TIP3    H153295   4.203   6.307   0.789  0.5935  0.9943 -0.2591
 9700TIP3    H253296   4.224   6.231   0.659  0.1592 -0.2646  0.3876
 9701TIP3   OH253297   2.027   5.463   0.745  0.0481  0.2888 -0.0263
 9701TIP3    H153298   2.091   5.520   0.705 -1.1971  0.8070 -1.3713
 9701TIP3    H253299   2.028   5.383   0.693  1.2238 -0.6578  1.3705
 9702TIP3   OH253300   1.410   3.035   3.081  0.2671  0.5918  0.4793
 9702TIP3    H153301   1.360   3.040   3.162 -0.2753 -3.5743  0.6322
 9702TIP3    H253302   1.348   3.064   3.013 -0.9561 -0.4059  1.1177
 9703TIP3   OH253303   0.004   1.039   0.663  0.8024 -0.5418  0.1906
 9703TIP3    H153304  -0.053   0.963   0.652  2.2625 -1.4293 -2.1014
 9703TIP3    H253305   0.083   1.004   0.706  1.3468 -0.2930 -0.5793
 9704TIP3   OH253306   6.417   0.561   2.659 -0.2330  0.2226  0.3408
 9704TIP3    H153307   6.329   0.528   2.679  0.5243 -1.1181  1.5941
 9704TIP3    H253308   6.409   0.656   2.668 -1.5218  0.1142  0.5602
 9705TIP3   OH253309   0.546   6.936   1.147  0.0624 -0.1277  0.3529
 9705TIP3    H153310   0.573   6.911   1.235 -1.1457  1.2781  1.1653
 9705TIP3    H253311   0.479   6.871   1.123 -0.8395  0.4556  1.1949
 9706TIP3   OH253312   3.045   4.161   0.684  0.4511 -0.1087 -0.0406
 9706TIP3    H153313   2.980   4.214   0.639  0.0826  3.2311  3.8876
 9706TIP3    H253314   3.122   4.163   0.626 -1.5719 -0.9726 -2.9871
 9707TIP3   OH253315   6.807   2.778   0.628 -0.3895 -0.1078  0.0736
 9707TIP3    H153316   6.787   2.760   0.720  1.1399 -1.7807  0.1433
 9707TIP3    H253317   6.727   2.818   0.594 -0.9095  0.8298  2.1719
 9708TIP3   OH253318   1.236   4.800   2.084  0.6721 -0.4637  0.6079
 9708TIP3    H153319   1.184   4.865   2.131 -1.2732 -1.5807  0.1284
 9708TIP3    H253320   1.265   4.739   2.151 -0.8117 -1.2090  0.6235
 9709TIP3   OH253321   0.283   2.282   3.484  0.0165 -0.2571 -0.1926
 9709TIP3    H153322   0.276   2.215   3.552 -1.7021 -2.1272 -2.0682
 9709TIP3    H253323   0.355   2.253   3.428 -1.0833 -0.9450 -1.3232
 9710TIP3   OH253324   1.251   4.214   2.393  0.2218 -0.1571  0.2497
 9710TIP3    H153325   1.173   4.163   2.415  1.0102 -1.2558  0.6291
 9710TIP3    H253326   1.228   4.304   2.413 -1.5342 -0.2090 -1.2644
 9711TIP3   OH253327   6.492   2.446   2.179  0.0363  0.5989  0.5605
 9711TIP3    H153328   6.417   2.405   2.223  0.3724 -1.8328 -0.9141
 9711TIP3    H253329   6.453   2.516   2.127 -0.9786  0.5164  1.1696
 9712TIP3   OH253330   0.369   4.813   0.597  0.3174  0.6980  0.5684
 9712TIP3    H153331   0.282   4.777   0.613  2.1705 -3.3798  2.9048
 9712TIP3    H253332   0.408   4.755   0.531  1.5802  1.9683  0.1306
 9713TIP3   OH253333   0.799   0.328   1.246  0.3839  0.6839 -0.4706
 9713TIP3    H153334   0.760   0.331   1.334 -1.1670  0.8418 -1.1283
 9713TIP3    H253335   0.766   0.246   1.209  0.0491  1.1930 -1.3229
 9714TIP3   OH253336   2.135   0.198   1.452 -0.4620  0.0930  0.2066
 9714TIP3    H153337   2.132   0.120   1.506 -0.2272 -0.2702 -0.2918
 9714TIP3    H253338   2.221   0.237   1.469  0.4804 -1.1458 -1.4134
 9715TIP3   OH253339   2.290   4.016   0.806  0.5104 -0.4365 -0.1260
 9715TIP3    H153340   2.372   4.044   0.847  0.0943  2.2772 -0.9176
 9715TIP3    H253341   2.318   3.972   0.725  1.2169  1.0104 -0.7042
 9716TIP3   OH253342   7.143   3.810   1.928 -0.3820  0.0507  0.1263
 9716TIP3    H153343   7.130   3.794   2.022  0.3455 -0.3445  0.1659
 9716TIP3    H253344   7.232   3.844   1.922  0.0363 -1.0938 -0.5383
 9717TIP3   OH253345   6.820   4.680   2.593  0.0185 -0.1677 -0.0666
 9717TIP3    H153346   6.905   4.655   2.556  0.1076 -1.6761  1.0520
 9717TIP3    H253347   6.832   4.771   2.620  2.3203 -1.1300  2.7245
 9718TIP3   OH253348   5.195   7.023   2.617  0.1379 -0.4852  0.1863
 9718TIP3    H153349   5.139   6.947   2.601  1.4202 -1.1496 -1.5714
 9718TIP3    H253350   5.196   7.070   2.534  2.9470 -1.1091 -0.2535
 9719TIP3   OH253351   5.975   4.471   0.901  0.3818 -0.6509  0.2134
 9719TIP3    H153352   5.923   4.541   0.941 -1.1334 -1.3201 -0.5189
 9719TIP3    H253353   6.004   4.508   0.817  0.4876 -0.5248  0.3054
 9720TIP3   OH253354   4.571   7.184   2.453 -0.0045  0.1393  0.3736
 9720TIP3    H153355   4.537   7.200   2.365 -0.3595  0.5048  0.5752
 9720TIP3    H253356   4.494   7.165   2.505  0.3027 -1.2161  0.3753
 9721TIP3   OH253357   4.470   1.645   1.668 -0.3907  0.4193  0.6040
 9721TIP3    H153358   4.484   1.665   1.760  0.2057  2.0743  0.1787
 9721TIP3    H253359   4.378   1.621   1.662  0.1008 -2.2268  2.0184
 9722TIP3   OH253360   3.823   5.572   0.906 -0.8654 -0.5028 -0.1143
 9722TIP3    H153361   3.776   5.490   0.890 -2.0315  0.4682 -2.0961
 9722TIP3    H253362   3.915   5.546   0.912 -1.1060 -1.9073 -1.6160
 9723TIP3   OH253363   1.320   4.949   1.133 -0.5852 -0.1210 -0.1485
 9723TIP3    H153364   1.245   4.953   1.074  0.0743 -2.4839 -1.2890
 9723TIP3    H253365   1.382   5.011   1.096 -0.8438 -0.3386 -0.9831
 9724TIP3   OH253366   4.633   6.345   2.131  0.0627  0.3488  0.2713
 9724TIP3    H153367   4.571   6.347   2.204  0.7404  0.5584  0.8442
 9724TIP3    H253368   4.642   6.253   2.109 -1.5036  0.3949 -0.7301
 9725TIP3   OH253369   0.519   0.894   1.101 -0.4801  0.6061  0.2616
 9725TIP3    H153370   0.439   0.842   1.093 -0.2628  0.4977 -1.4837
 9725TIP3    H253371   0.489   0.985   1.105 -0.7442  0.4919  0.9462
 9726TIP3   OH253372   2.372   0.328   1.433 -0.1656 -0.2420 -0.2352
 9726TIP3    H153373   2.409   0.411   1.405  0.4587 -0.7015 -0.8242
 9726TIP3    H253374   2.395   0.267   1.363 -2.0522 -0.5661 -0.6269
 9727TIP3   OH253375   3.043   5.807   1.471  0.2430 -0.3704 -0.2433
 9727TIP3    H153376   2.980   5.809   1.399  1.7053 -0.0698 -1.5599
 9727TIP3    H253377   3.121   5.766   1.434  1.5282  1.0638  0.7341
 9728TIP3   OH253378   4.199   2.545   1.763  0.0224 -0.1867  0.0129
 9728TIP3    H153379   4.282   2.513   1.798 -0.0314  0.5357  0.8158
 9728TIP3    H253380   4.206   2.531   1.668  0.4567 -1.4972  0.2114
 9729TIP3   OH253381   2.663   5.894   2.219  0.0047  0.3529 -0.6756
 9729TIP3    H153382   2.634   5.940   2.140 -0.7422 -0.0296 -0.6403
 9729TIP3    H253383   2.614   5.812   2.217  0.4805  0.0485 -0.1554
 9730TIP3   OH253384   0.637   6.394   1.335  0.1730 -0.7572 -0.8125
 9730TIP3    H153385   0.678   6.463   1.386  1.0112 -0.8064 -1.4014
 9730TIP3    H253386   0.625   6.432   1.247  0.7823 -1.3891 -1.1821
 9731TIP3   OH253387   4.159   2.152   0.536  0.6980 -0.0098 -0.0411
 9731TIP3    H153388   4.220   2.225   0.547 -1.6681  2.4593 -1.7442
 9731TIP3    H253389   4.072   2.193   0.541 -0.9118 -3.1862  1.5573
 9732TIP3   OH253390   0.048   2.082   1.328 -0.1388  0.1105 -0.5274
 9732TIP3    H153391   0.075   2.136   1.253 -0.1502  1.0324  0.1151
 9732TIP3    H253392  -0.046   2.098   1.336 -0.4011 -1.0055 -1.0980
 9733TIP3   OH253393   2.117   2.866   2.552  0.5048 -0.2890 -0.5835
 9733TIP3    H153394   2.068   2.831   2.478  0.5375 -1.4388 -0.0937
 9733TIP3    H253395   2.159   2.945   2.519 -2.3008  1.2476 -0.8228
 9734TIP3   OH253396   2.585   4.947   1.600  0.6568 -0.2193  0.4420
 9734TIP3    H153397   2.565   4.930   1.692 -1.3542 -3.7349 -0.4626
 9734TIP3    H253398   2.661   4.892   1.582  0.4643 -0.2755 -0.1993
 9735TIP3   OH253399   1.417   4.245   0.589  0.0887 -0.2506 -0.3215
 9735TIP3    H153400   1.422   4.336   0.617 -1.8887 -0.3314  0.4206
 9735TIP3    H253401   1.501   4.230   0.544  0.9643  1.5524  0.5744
 9736TIP3   OH253402   4.244   2.096   1.879 -0.2544 -0.5999  0.2543
 9736TIP3    H153403   4.269   2.077   1.788 -0.4670 -1.9347  0.4439
 9736TIP3    H253404   4.321   2.073   1.930 -0.6594 -1.3893  0.5324
 9737TIP3   OH253405   2.082   0.692   2.392 -0.0369 -0.2746 -0.1072
 9737TIP3    H153406   2.019   0.645   2.447 -0.7626  0.5714 -0.1765
 9737TIP3    H253407   2.151   0.629   2.374 -0.4910 -0.9963  0.6100
 9738TIP3   OH253408   0.061   3.220   2.398 -0.8021  0.2371 -0.3995
 9738TIP3    H153409  -0.033   3.205   2.399 -0.6864 -0.5037 -0.0130
 9738TIP3    H253410   0.095   3.166   2.469  0.2016 -1.6064 -2.1609
 9739TIP3   OH253411   7.246   3.525   2.695 -0.6689 -0.3945  0.0696
 9739TIP3    H153412   7.239   3.498   2.786 -2.1306  0.7883  0.3487
 9739TIP3    H253413   7.217   3.449   2.644 -0.2528 -0.9159  0.6041
 9740TIP3   OH253414   4.085   0.011   1.294  0.0360 -0.5615  0.2708
 9740TIP3    H153415   4.140   0.059   1.233 -2.1267  1.8879  0.0551
 9740TIP3    H253416   4.015  -0.026   1.241  0.0830 -1.4803  0.8263
 9741TIP3   OH253417   1.108   0.011   1.619 -0.4698  0.1540 -0.4697
 9741TIP3    H153418   1.094   0.091   1.669  0.1219 -0.8762  1.4685
 9741TIP3    H253419   1.020  -0.019   1.597 -0.9758 -0.6585  2.2405
 9742TIP3   OH253420   3.224   5.127   1.130 -0.7873  0.4787  0.1421
 9742TIP3    H153421   3.153   5.094   1.075 -0.5984 -0.1198  0.2445
 9742TIP3    H253422   3.303   5.089   1.092 -0.4839  1.4174 -0.1778
 9743TIP3   OH253423   5.007   5.237   0.868  0.0843 -0.1459  0.2153
 9743TIP3    H153424   5.092   5.254   0.828  0.8537 -0.9197  1.4570
 9743TIP3    H253425   4.948   5.302   0.828  1.6876  1.8045  0.8370
 9744TIP3   OH253426   5.162   4.912   1.171 -0.5630  0.0771 -0.4599
 9744TIP3    H153427   5.130   4.840   1.224  0.0198 -0.4923 -0.8648
 9744TIP3    H253428   5.210   4.870   1.100  0.2575  0.8759 -0.3952
 9745TIP3   OH253429   3.345   5.920   2.743 -0.2300  0.1756  0.0282
 9745TIP3    H153430   3.296   5.851   2.786  1.5401  0.8607  3.4910
 9745TIP3    H253431   3.281   5.964   2.687 -2.7171 -0.9518  1.8061
 9746TIP3   OH253432   6.687   1.571   0.439  0.4947  0.2174  0.2472
 9746TIP3    H153433   6.726   1.659   0.440  0.4164  0.2963 -1.0180
 9746TIP3    H253434   6.760   1.512   0.458  0.5608  0.5488  1.0457
 9747TIP3   OH253435   1.735   2.077   1.852 -0.6165  0.1981  0.1740
 9747TIP3    H153436   1.735   2.048   1.943  2.0743 -2.1444 -0.3924
 9747TIP3    H253437   1.776   2.163   1.854  1.7575 -0.8380  1.1073
 9748TIP3   OH253438   3.915   2.368   1.462  1.0239  0.1140  0.6517
 9748TIP3    H153439   3.895   2.315   1.385  1.3098 -1.7876  1.8355
 9748TIP3    H253440   4.003   2.402   1.445 -0.4033  3.2084 -1.6588
 9749TIP3   OH253441   6.001   3.249   0.564 -0.4765  0.2456  0.7951
 9749TIP3    H153442   6.000   3.309   0.638 -0.9087  2.0313 -0.5710
 9749TIP3    H253443   5.909   3.233   0.544 -0.4433  1.8482 -0.8789
 9750TIP3   OH253444   1.632   3.262   0.750  0.0835  0.7484 -0.1196
 9750TIP3    H153445   1.628   3.323   0.677 -3.3412 -0.2402 -0.9325
 9750TIP3    H253446   1.668   3.182   0.712 -1.3942  0.3375 -0.7330
 9751TIP3   OH253447   3.601   6.751   0.692 -1.5134  0.1723  0.2838
 9751TIP3    H153448   3.634   6.837   0.715  0.0989  0.1826 -1.7499
 9751TIP3    H253449   3.522   6.767   0.641 -1.3042  0.4616  0.0490
 9752TIP3   OH253450   6.706   6.370   2.374 -0.1906 -0.5731  0.3735
 9752TIP3    H153451   6.679   6.429   2.444 -0.5645 -1.3904  0.9346
 9752TIP3    H253452   6.629   6.364   2.317  0.6545  1.4408 -1.1015
 9753TIP3   OH253453   1.112   4.646   2.965 -0.6573 -0.5668 -0.0001
 9753TIP3    H153454   1.110   4.684   2.877 -1.0589  1.4064  0.8089
 9753TIP3    H253455   1.087   4.555   2.952 -0.3376 -0.4166 -1.9731
 9754TIP3   OH253456   6.011   0.636   2.773  0.3260 -0.0997 -0.4240
 9754TIP3    H153457   5.925   0.636   2.816  0.0951 -0.5242 -0.8811
 9754TIP3    H253458   6.016   0.551   2.730  0.0948  0.7156 -2.1443
 9755TIP3   OH253459   3.190   1.204   1.177  0.1486  0.0622  0.0715
 9755TIP3    H153460   3.183   1.209   1.081 -1.2901 -0.8718  0.1135
 9755TIP3    H253461   3.122   1.262   1.209 -1.7306 -2.2272  0.4877
 9756TIP3   OH253462   4.968   0.183   2.850  0.1446 -0.1104  0.3194
 9756TIP3    H153463   4.996   0.127   2.923 -1.2865 -0.6785  0.4631
 9756TIP3    H253464   5.044   0.188   2.792  0.3860 -2.0090  0.4302
 9757TIP3   OH253465   7.426   6.279   1.797 -0.7553 -0.3396  0.1034
 9757TIP3    H153466   7.352   6.219   1.804  0.2772 -1.5833  0.7303
 9757TIP3    H253467   7.458   6.289   1.887 -1.5294  2.0227  0.1923
 9758TIP3   OH253468   4.126   5.815   3.009  0.7094  0.2303  0.0312
 9758TIP3    H153469   4.069   5.892   3.012  0.4402  0.1818 -2.0516
 9758TIP3    H253470   4.076   5.747   3.053 -0.2586  0.5560 -0.5283
 9759TIP3   OH253471   2.981   4.581   0.699  0.1049 -0.2343 -0.5012
 9759TIP3    H153472   3.004   4.605   0.789  0.4692 -0.9772 -0.3906
 9759TIP3    H253473   3.049   4.519   0.672 -0.5719 -0.8074 -0.9229
 9760TIP3   OH253474   0.781   3.994   2.723 -0.1681 -0.2128  0.6379
 9760TIP3    H153475   0.756   4.084   2.744 -0.6980 -0.0635 -0.5370
 9760TIP3    H253476   0.777   3.990   2.627  0.2927 -1.3610  0.6516
 9761TIP3   OH253477   3.108   4.099   1.158 -0.0452  0.2662 -0.1110
 9761TIP3    H153478   3.086   4.162   1.090  0.0837  0.7119  0.2551
 9761TIP3    H253479   3.074   4.137   1.239 -0.0315 -0.1663  0.1051
 9762TIP3   OH253480   5.180   3.012   1.339 -0.6635 -0.2468  0.3779
 9762TIP3    H153481   5.256   3.068   1.323 -1.1169  0.1825 -0.3357
 9762TIP3    H253482   5.154   3.032   1.429 -0.5165  0.3253  0.2972
 9763TIP3   OH253483   2.018   1.032   0.613 -0.1557  0.2736 -0.5544
 9763TIP3    H153484   1.925   1.050   0.601 -0.2918  0.1862  0.3187
 9763TIP3    H253485   2.022   0.972   0.687  0.6078  0.4242 -0.4634
 9764TIP3   OH253486   5.436   3.313   1.016  0.7900  0.3618 -0.2521
 9764TIP3    H153487   5.429   3.408   1.005  3.3765  0.7997  1.0229
 9764TIP3    H253488   5.512   3.289   0.963  0.3929 -0.9317 -0.2457
 9765TIP3   OH253489   0.444   5.697   1.509 -0.1765  0.2896 -0.0012
 9765TIP3    H153490   0.466   5.649   1.588 -0.0856 -0.8405 -0.7002
 9765TIP3    H253491   0.517   5.680   1.449 -0.8833  0.0095 -0.8079
 9766TIP3   OH253492   3.539   0.002   2.330 -0.0225  0.0557 -0.4036
 9766TIP3    H153493   3.532  -0.091   2.309  1.3086 -0.6702  1.9694
 9766TIP3    H253494   3.517   0.008   2.423  0.0202  2.0998 -0.4727
 9767TIP3   OH253495   7.555   2.125   0.727  0.4358  0.3826  0.3367
 9767TIP3    H153496   7.589   2.054   0.781 -1.4045 -0.0013  1.0679
 9767TIP3    H253497   7.511   2.080   0.654 -0.3060  0.7530  0.5408
 9768TIP3   OH253498   1.442   1.826   2.561  0.1725  0.4788 -0.4201
 9768TIP3    H153499   1.427   1.738   2.595  1.5610  0.7270  0.9459
 9768TIP3    H253500   1.401   1.884   2.625  1.0952  0.8843 -0.1762
 9769TIP3   OH253501   5.299   3.194   2.563 -0.0987 -0.0867  0.1506
 9769TIP3    H153502   5.376   3.218   2.615  0.0665 -0.4915  0.0973
 9769TIP3    H253503   5.324   3.213   2.472 -0.7473  1.5637  0.2963
 9770TIP3   OH253504   5.520   4.438   0.520 -1.0127 -0.2421  0.1716
 9770TIP3    H153505   5.476   4.524   0.521 -1.7545 -0.5879 -0.8041
 9770TIP3    H253506   5.613   4.459   0.523 -1.1820  0.6059 -0.0993
 9771TIP3   OH253507   4.520   5.888   1.047  0.1513  0.3257 -0.3536
 9771TIP3    H153508   4.465   5.877   0.969  0.9536  1.0610 -1.0368
 9771TIP3    H253509   4.566   5.970   1.033 -0.1323  0.7908  1.1836
 9772TIP3   OH253510   5.695   0.494   3.150  0.5031 -0.2228  0.3788
 9772TIP3    H153511   5.621   0.489   3.210 -0.1542 -1.2002 -0.4889
 9772TIP3    H253512   5.691   0.583   3.114 -0.5475 -0.4175 -0.0236
 9773TIP3   OH253513   4.004   7.003   1.088  0.4608 -0.3080 -0.2232
 9773TIP3    H153514   4.047   6.931   1.042 -0.7467 -1.7079  0.7532
 9773TIP3    H253515   4.036   6.998   1.178  0.5895  0.5703 -0.2101
 9774TIP3   OH253516   5.377   1.661   0.857 -0.1127  0.0413 -0.1164
 9774TIP3    H153517   5.473   1.657   0.855 -0.0261 -3.6379  2.1725
 9774TIP3    H253518   5.349   1.584   0.808 -1.6872 -0.9752  2.2020
 9775TIP3   OH253519   4.906   5.698   0.780  0.4156 -0.3973 -0.4928
 9775TIP3    H153520   4.936   5.753   0.708 -1.2178  0.9854 -0.1990
 9775TIP3    H253521   4.934   5.744   0.859  1.1908 -1.3086 -0.2167
 9776TIP3   OH253522   5.648   3.559   1.058 -0.0470 -0.5207  0.4955
 9776TIP3    H153523   5.568   3.572   1.008 -0.0018  0.5077  0.6669
 9776TIP3    H253524   5.715   3.542   0.991 -0.2794 -0.7477  0.3167
 9777TIP3   OH253525   0.314   1.993   2.036  0.0794 -0.7379  0.4164
 9777TIP3    H153526   0.354   1.976   2.122  2.0743 -1.4810 -0.6022
 9777TIP3    H253527   0.388   1.999   1.976 -1.2502  0.3473 -1.1882
 9778TIP3   OH253528   5.551   0.126   1.837 -0.0304 -0.8797 -0.2393
 9778TIP3    H153529   5.485   0.153   1.900  0.2198 -0.2607 -0.2384
 9778TIP3    H253530   5.622   0.090   1.890  1.7404  2.7557  0.2046
 9779TIP3   OH253531   7.468   1.615   1.897 -0.1646 -0.2605  0.4360
 9779TIP3    H153532   7.442   1.584   1.811  1.8460 -0.0592 -0.3117
 9779TIP3    H253533   7.411   1.569   1.958 -1.7498 -0.2853 -0.9794
 9780TIP3   OH253534   4.650   4.665   1.061  0.1694  0.4134  0.1768
 9780TIP3    H153535   4.728   4.655   1.114  0.0167 -0.1689  0.2968
 9780TIP3    H253536   4.674   4.730   0.995  1.4586 -1.2495 -1.0841
 9781TIP3   OH253537   6.265   0.260   1.822 -0.3861  0.2694 -0.5201
 9781TIP3    H153538   6.262   0.198   1.749  0.0828 -0.0029 -0.3191
 9781TIP3    H253539   6.303   0.209   1.894  1.1494  1.1029 -0.6887
 9782TIP3   OH253540   5.656   1.138   1.930 -0.2067  0.3298  0.1497
 9782TIP3    H153541   5.566   1.108   1.943 -0.3941  1.8083  3.0489
 9782TIP3    H253542   5.651   1.233   1.943  1.8000  0.4045  0.6383
 9783TIP3   OH253543   2.818   4.240   1.920  0.7833 -0.0045 -0.0097
 9783TIP3    H153544   2.803   4.156   1.963 -0.4238 -0.0136 -0.4256
 9783TIP3    H253545   2.731   4.276   1.905  1.2743  1.2543  0.0100
 9784TIP3   OH253546   0.238   0.904   1.056 -0.1661  0.3113  0.3283
 9784TIP3    H153547   0.152   0.945   1.053 -0.2987 -0.0080 -0.6296
 9784TIP3    H253548   0.227   0.827   1.111 -0.6237 -0.0038 -0.1967
 9785TIP3   OH253549   1.923   2.911   1.153  0.0426  0.3960 -0.3974
 9785TIP3    H153550   1.891   2.892   1.064  0.7716  0.0165 -0.5823
 9785TIP3    H253551   1.936   3.006   1.154 -0.5614  0.4894 -0.4891
 9786TIP3   OH253552   2.387   6.206   1.845 -0.3813 -0.5809  0.3411
 9786TIP3    H153553   2.398   6.150   1.768 -0.6246  0.3589 -0.3942
 9786TIP3    H253554   2.386   6.295   1.810  1.7012  0.0228  1.6435
 9787TIP3   OH253555   7.044   0.020   2.553 -0.2481  0.2686  0.3999
 9787TIP3    H153556   7.024   0.061   2.469  0.1234 -0.0846  0.1395
 9787TIP3    H253557   6.971   0.046   2.609 -1.0065 -0.2917 -0.2988
 9788TIP3   OH253558   5.161   3.921   1.661  0.3747  0.0069  0.0743
 9788TIP3    H153559   5.185   3.840   1.614 -0.2091 -0.3230  0.3320
 9788TIP3    H253560   5.066   3.915   1.672  0.3463  0.6709  0.2140
 9789TIP3   OH253561   5.444   6.797   0.918  0.3660  0.8837 -0.6006
 9789TIP3    H153562   5.479   6.737   0.983  1.9366  0.6957 -1.5596
 9789TIP3    H253563   5.372   6.842   0.962  2.0373  1.5328  1.6041
 9790TIP3   OH253564   1.510   0.321   3.068  0.2578 -0.4784 -0.1681
 9790TIP3    H153565   1.554   0.253   3.018 -0.2460 -0.2508 -0.9345
 9790TIP3    H253566   1.448   0.360   3.007 -0.0440  0.1182  0.4997
 9791TIP3   OH253567   3.507   2.247   0.428  0.1986  0.0618  0.4568
 9791TIP3    H153568   3.574   2.293   0.477  1.4197 -1.9179  0.7572
 9791TIP3    H253569   3.541   2.158   0.418 -1.0035 -0.2062 -2.0507
 9792TIP3   OH253570   5.997   0.150   2.065  0.4493  0.4334  0.1886
 9792TIP3    H153571   5.959   0.238   2.070 -0.0955  0.3363 -1.6141
 9792TIP3    H253572   6.083   0.163   2.025  1.2061  0.3308  1.7085
 9793TIP3   OH253573   6.734   2.341   0.861 -0.3534  0.3014  0.0601
 9793TIP3    H153574   6.727   2.410   0.928 -1.3329 -0.4396  0.7388
 9793TIP3    H253575   6.691   2.378   0.784 -1.1890  0.3276  0.5302
 9794TIP3   OH253576   0.612   2.106   2.130  0.1027  0.1189 -0.5441
 9794TIP3    H153577   0.583   2.022   2.165  0.3225  1.0133  1.9676
 9794TIP3    H253578   0.687   2.131   2.184 -0.0593  2.0088 -1.1039
 9795TIP3   OH253579   5.178   3.821   0.631  0.1544  0.0298  0.3292
 9795TIP3    H153580   5.121   3.898   0.626  0.0580  0.0265  1.3027
 9795TIP3    H253581   5.224   3.830   0.714  2.1987  0.4448 -0.7806
 9796TIP3   OH253582   4.147   5.174   0.768  0.3490 -0.0265  0.6132
 9796TIP3    H153583   4.192   5.133   0.695  2.4924  1.6493  0.8857
 9796TIP3    H253584   4.133   5.104   0.831  1.9301 -0.7627  0.1775
 9797TIP3   OH253585   6.377   2.743   0.395 -0.5957 -0.0798 -0.4147
 9797TIP3    H153586   6.380   2.714   0.303  0.3438  2.4856 -1.3011
 9797TIP3    H253587   6.286   2.767   0.410 -1.1966 -2.4015  0.0538
 9798TIP3   OH253588   1.558   5.815   1.171  0.0858  0.6885 -0.3826
 9798TIP3    H153589   1.490   5.858   1.118  0.2103  1.3721 -0.0006
 9798TIP3    H253590   1.633   5.874   1.165  1.4564 -1.1270 -2.6500
 9799TIP3   OH253591   0.202   6.369   2.934  0.3444  0.1387  0.3647
 9799TIP3    H153592   0.118   6.387   2.976 -0.3360 -0.9026 -0.4710
 9799TIP3    H253593   0.181   6.364   2.840  1.0720 -1.3978  0.2425
 9800TIP3   OH253594   3.237   0.038   0.732 -0.5603 -0.0867  0.0707
 9800TIP3    H153595   3.308   0.063   0.672 -1.3205 -0.8786 -1.2236
 9800TIP3    H253596   3.164   0.094   0.707 -0.8881 -0.4240  0.2585
 9801TIP3   OH253597   0.892   3.153   3.177  0.5302 -0.3811 -0.5790
 9801TIP3    H153598   0.848   3.187   3.099  1.0850  3.2621  0.5024
 9801TIP3    H253599   0.857   3.065   3.188 -1.7511  0.0550 -3.2750
 9802TIP3   OH253600   1.861   1.107   1.550 -0.6126 -0.2624 -0.5302
 9802TIP3    H153601   1.878   1.154   1.468 -0.4889 -0.9319 -0.8913
 9802TIP3    H253602   1.767   1.087   1.547 -0.7430  0.2642 -0.2070
 9803TIP3   OH253603   6.654   2.074   0.492 -0.3800  0.1763  0.1674
 9803TIP3    H153604   6.708   2.010   0.448 -0.4612  1.1485 -1.4375
 9803TIP3    H253605   6.676   2.066   0.585  2.5528  0.5791 -0.4178
 9804TIP3   OH253606   0.795   3.485   1.185 -0.3035  0.1912 -0.1409
 9804TIP3    H153607   0.830   3.483   1.274 -0.4037  0.6985 -0.0897
 9804TIP3    H253608   0.868   3.513   1.131 -0.9621  2.7094  0.1455
 9805TIP3   OH253609   5.776   0.104   2.293 -0.3038  0.1073 -0.0793
 9805TIP3    H153610   5.820   0.153   2.363 -0.5258 -1.2314  1.0296
 9805TIP3    H253611   5.714   0.167   2.256  2.5855  2.1462 -1.8435
 9806TIP3   OH253612   0.952   0.865   0.349 -0.8287 -0.3006  0.2333
 9806TIP3    H153613   0.877   0.871   0.408  1.3671  0.4378  3.1329
 9806TIP3    H253614   0.961   0.953   0.312 -1.5800 -0.4952 -0.4450
 9807TIP3   OH253615   0.500   6.511   2.437 -0.5517 -0.2957  0.3957
 9807TIP3    H153616   0.443   6.538   2.509 -0.7188 -1.3095  0.6520
 9807TIP3    H253617   0.441   6.474   2.372 -0.6392  2.2718 -1.1389
 9808TIP3   OH253618   1.506   0.609   2.556  0.4595  0.0420  0.0319
 9808TIP3    H153619   1.425   0.633   2.511  0.9601  0.0588 -0.8784
 9808TIP3    H253620   1.487   0.524   2.595 -0.6773  0.9608  1.6109
 9809TIP3   OH253621   6.159   3.899   1.962 -0.4375  0.2983  0.4020
 9809TIP3    H153622   6.186   3.923   1.874 -0.0929 -0.2667  0.3492
 9809TIP3    H253623   6.214   3.952   2.020 -0.5465  0.5445  0.2816
 9810TIP3   OH253624   5.800   5.573   2.455  0.1497  0.4467 -0.3006
 9810TIP3    H153625   5.880   5.521   2.449  0.5589  0.9745  0.3996
 9810TIP3    H253626   5.818   5.637   2.524 -1.5227 -0.5960  1.1798
 9811TIP3   OH253627   0.355   6.414   2.217  0.4913 -0.0282  0.2703
 9811TIP3    H153628   0.316   6.496   2.187  0.4550 -0.2819 -0.4168
 9811TIP3    H253629   0.433   6.404   2.162  0.3271 -0.5969  0.1350
 9812TIP3   OH253630   3.066   2.257   2.664  0.2250  0.4192  0.2400
 9812TIP3    H153631   3.080   2.250   2.758  0.7153 -0.6379  0.1067
 9812TIP3    H253632   3.146   2.221   2.625 -0.7958 -1.0440 -0.5748
 9813TIP3   OH253633   5.218   7.547   3.216 -0.2830 -0.3431 -0.1469
 9813TIP3    H153634   5.174   7.592   3.287 -1.1792 -1.6323  0.1525
 9813TIP3    H253635   5.307   7.531   3.248 -0.1547  0.6008 -0.0123
 9814TIP3   OH253636   5.467   0.857   2.477  0.2183 -0.0178  0.3520
 9814TIP3    H153637   5.528   0.893   2.413 -0.1598 -0.4624 -0.2716
 9814TIP3    H253638   5.516   0.785   2.518  0.4782  0.2986  0.6020
 9815TIP3   OH253639   1.279   0.868   1.003  0.6383 -0.0714 -0.1386
 9815TIP3    H153640   1.185   0.851   1.002  0.3327  1.4324 -1.1529
 9815TIP3    H253641   1.309   0.842   0.916  1.0721 -0.0730  0.0083
 9816TIP3   OH253642   0.259   5.773   2.584 -0.4636  0.1811  0.0614
 9816TIP3    H153643   0.315   5.730   2.649 -0.8057  0.1817  0.3624
 9816TIP3    H253644   0.192   5.707   2.563  0.0867 -0.0981 -0.8716
 9817TIP3   OH253645   7.283   1.780   1.161  0.0072  0.0941 -0.1395
 9817TIP3    H153646   7.255   1.770   1.252  0.2443  1.8345  0.1558
 9817TIP3    H253647   7.254   1.700   1.118  0.8900 -1.3002  1.7064
 9818TIP3   OH253648   2.768   3.656   0.409 -0.4299  0.5254 -0.3114
 9818TIP3    H153649   2.803   3.745   0.409  0.5980  0.1441 -0.6862
 9818TIP3    H253650   2.709   3.652   0.334 -0.5545  0.9196 -0.2339
 9819TIP3   OH253651   7.006   2.426   3.115 -0.6181  0.0485 -0.1233
 9819TIP3    H153652   7.007   2.359   3.183 -1.8338  0.0572 -0.0842
 9819TIP3    H253653   6.913   2.442   3.098 -0.3449 -0.3015 -2.1372
 9820TIP3   OH253654   4.421   5.289   0.539 -0.3481 -0.3285 -0.7514
 9820TIP3    H153655   4.358   5.360   0.526 -1.3651 -0.6807  1.6847
 9820TIP3    H253656   4.367   5.210   0.549  0.6741 -1.1878 -1.6787
 9821TIP3   OH253657   5.197   3.215   2.013  0.3528  0.7569 -0.4604
 9821TIP3    H153658   5.190   3.310   2.001 -0.0098  0.6749 -0.9529
 9821TIP3    H253659   5.158   3.178   1.934 -1.5726  0.1623  0.7033
 9822TIP3   OH253660   6.087   2.237   1.117  0.0818 -0.2688  0.2626
 9822TIP3    H153661   6.071   2.159   1.171  1.0508 -0.5774  0.1202
 9822TIP3    H253662   6.182   2.250   1.120 -0.0070  0.5907 -0.1629
 9823TIP3   OH253663   2.908   2.924   0.980 -1.0129 -0.4775 -0.0140
 9823TIP3    H153664   2.970   2.970   1.036 -0.6905 -1.1447  0.1853
 9823TIP3    H253665   2.839   2.988   0.963 -0.7034 -0.0077  0.4724
 9824TIP3   OH253666   1.574   5.773   2.257 -0.0560 -0.2286 -0.1797
 9824TIP3    H153667   1.614   5.708   2.200 -1.9114 -0.8281 -0.8887
 9824TIP3    H253668   1.562   5.727   2.340  0.1685 -0.2359 -0.1507
 9825TIP3   OH253669   5.495   4.653   1.550 -0.0320  0.0166 -0.3470
 9825TIP3    H153670   5.473   4.572   1.596  0.2309 -0.5260 -1.1411
 9825TIP3    H253671   5.522   4.713   1.619  0.3273 -0.7605  0.2155
 9826TIP3   OH253672   2.479   2.822   2.203  0.0068 -0.5690  0.4293
 9826TIP3    H153673   2.537   2.850   2.274 -1.5668 -0.0975  1.6024
 9826TIP3    H253674   2.450   2.735   2.228  0.0842 -0.7380 -0.0599
 9827TIP3   OH253675   5.240   6.838   2.263  0.3616  0.1105 -0.9408
 9827TIP3    H153676   5.257   6.916   2.210  0.2323  0.4225 -0.5373
 9827TIP3    H253677   5.226   6.768   2.200  0.6329  0.3850 -1.3077
 9828TIP3   OH253678   3.449   5.384   0.769 -0.6018 -0.7126  0.1788
 9828TIP3    H153679   3.517   5.363   0.833  0.0351  1.0133  0.1263
 9828TIP3    H253680   3.414   5.299   0.743  0.0249 -1.5216  1.8315
 9829TIP3   OH253681   3.866   1.831   0.764  0.1029 -0.0600  0.2526
 9829TIP3    H153682   3.809   1.887   0.710  0.3750  0.3266  0.3648
 9829TIP3    H253683   3.922   1.892   0.811 -0.1491 -0.3972  0.9983
 9830TIP3   OH253684   4.832   6.572   0.820  0.5790  0.2220  0.2372
 9830TIP3    H153685   4.851   6.584   0.727 -0.0925 -0.4971 -0.0028
 9830TIP3    H253686   4.900   6.511   0.850  0.4277 -0.0243  0.0771
 9831TIP3   OH253687   4.399   7.377   1.111 -0.0727 -0.1708 -0.3575
 9831TIP3    H153688   4.481   7.414   1.079 -1.1918  2.1032 -0.8322
 9831TIP3    H253689   4.332   7.409   1.050 -1.3100 -2.2464 -0.1930
 9832TIP3   OH253690   7.355   3.693   1.727 -0.1641  0.6061 -0.3343
 9832TIP3    H153691   7.379   3.758   1.793 -1.7839  1.7862 -0.8313
 9832TIP3    H253692   7.288   3.640   1.769  1.5569 -1.2151  0.2734
 9833TIP3   OH253693   3.311   1.939   1.122  0.5031  0.0227  0.3098
 9833TIP3    H153694   3.358   1.858   1.141  0.8393  0.2252  0.3386
 9833TIP3    H253695   3.316   1.948   1.027  0.4103 -0.0225  0.3003
 9834TIP3   OH253696   5.152   6.625   2.673  0.2858 -0.1042  1.4348
 9834TIP3    H153697   5.247   6.628   2.686  0.6567 -2.0299 -0.3857
 9834TIP3    H253698   5.139   6.562   2.603 -2.2824  1.1514  0.6580
 9835TIP3   OH253699   4.977   0.276   1.504  0.5446 -0.1764 -0.4040
 9835TIP3    H153700   4.953   0.210   1.439  1.4675 -2.6882  1.6594
 9835TIP3    H253701   5.021   0.344   1.453  0.3697 -1.5508 -2.5223
 9836TIP3   OH253702   4.498   3.214   0.827  0.0682  0.2109  0.0447
 9836TIP3    H153703   4.575   3.158   0.826 -0.5559 -0.6613 -0.1541
 9836TIP3    H253704   4.460   3.205   0.740 -0.8107 -0.1555  0.4517
 9837TIP3   OH253705   2.694   6.969   2.158  0.1605  0.7308  0.1976
 9837TIP3    H153706   2.778   6.959   2.112 -0.5468  1.9130 -1.4584
 9837TIP3    H253707   2.708   7.041   2.219  0.1249  1.5658 -0.7473
 9838TIP3   OH253708   6.520   4.416   1.294  0.1830 -0.1645 -0.8395
 9838TIP3    H153709   6.573   4.352   1.340 -0.9544  0.2045  1.1267
 9838TIP3    H253710   6.435   4.412   1.338  0.2172  3.0167 -0.2510
 9839TIP3   OH253711   0.640   4.900   0.398 -0.2465  0.1499 -0.4216
 9839TIP3    H153712   0.568   4.945   0.443  0.0626 -0.1803  0.4338
 9839TIP3    H253713   0.620   4.807   0.405  0.0416  0.0744 -0.5577
 9840TIP3   OH253714   5.911   2.967   2.309 -0.1552 -0.2974  0.3789
 9840TIP3    H153715   5.896   3.062   2.313 -0.4668 -0.3741  1.1464
 9840TIP3    H253716   5.964   2.948   2.386  0.9227 -0.5790 -0.4083
 9841TIP3   OH253717   1.414   3.578   2.356  0.2901 -0.4096 -0.2252
 9841TIP3    H153718   1.447   3.499   2.398 -0.3568  0.4817  2.1483
 9841TIP3    H253719   1.465   3.649   2.396 -0.1103  0.4915 -1.2686
 9842TIP3   OH253720   2.874   1.857   1.054 -0.5043 -0.2579  0.4332
 9842TIP3    H153721   2.892   1.791   1.121 -1.5081 -1.4071 -0.4058
 9842TIP3    H253722   2.920   1.826   0.976 -0.3544  0.4472  0.2268
 9843TIP3   OH253723   5.197   6.265   3.344 -0.0259 -0.2120  0.2723
 9843TIP3    H153724   5.224   6.208   3.416 -0.7078 -2.1314 -0.9191
 9843TIP3    H253725   5.274   6.271   3.288  0.2100  0.4905  0.6682
 9844TIP3   OH253726   1.255   1.226   2.070 -0.2873  0.5418 -0.2223
 9844TIP3    H153727   1.237   1.135   2.046 -0.1072 -0.2492  2.4202
 9844TIP3    H253728   1.296   1.221   2.156 -0.5377  3.1659  0.1251
 9845TIP3   OH253729   0.109   4.809   0.894  0.4359  0.3529  0.1877
 9845TIP3    H153730   0.026   4.857   0.893  0.9496  1.2739 -0.0030
 9845TIP3    H253731   0.084   4.717   0.905 -0.5624  0.6993  0.9767
 9846TIP3   OH253732   4.154   4.408   2.123 -0.4807  0.1819  0.0370
 9846TIP3    H153733   4.075   4.363   2.152 -1.2230 -0.7807 -3.1359
 9846TIP3    H253734   4.122   4.491   2.087  0.3003  0.9690  1.0941
 9847TIP3   OH253735   3.438   1.679   0.835  0.2440 -0.3598 -0.1672
 9847TIP3    H153736   3.506   1.645   0.777 -0.9924  0.2193 -2.0491
 9847TIP3    H253737   3.477   1.755   0.876  0.1907  1.1432 -2.7159
 9848TIP3   OH253738   0.121   0.495   1.274  0.2113 -0.4156 -0.0077
 9848TIP3    H153739   0.126   0.451   1.189 -0.8038 -1.2484  0.3317
 9848TIP3    H253740   0.038   0.464   1.311  1.7669 -2.0222  2.3477
 9849TIP3   OH253741   6.613   3.722   1.944  0.1160 -0.2188 -0.2986
 9849TIP3    H153742   6.591   3.699   2.034  0.3789  0.1029 -0.1503
 9849TIP3    H253743   6.633   3.639   1.901  0.6502 -0.3027  0.1166
 9850TIP3   OH253744   4.857   7.251   1.675  0.0673  0.1247  0.3373
 9850TIP3    H153745   4.850   7.219   1.765 -2.9266 -0.1944  0.0832
 9850TIP3    H253746   4.827   7.342   1.680 -0.2514  0.0640 -0.3414
 9851TIP3   OH253747   7.156   0.876   2.926 -0.3827 -0.1683 -0.5775
 9851TIP3    H153748   7.209   0.920   2.994 -3.0926  0.1477  1.5045
 9851TIP3    H253749   7.195   0.789   2.918  0.9461  0.3180  0.2556
 9852TIP3   OH253750   7.170   3.963   2.567 -0.3264  0.5869 -0.1739
 9852TIP3    H153751   7.097   3.941   2.510 -1.0332  0.7383  0.6652
 9852TIP3    H253752   7.172   4.058   2.570 -1.4813  0.6020  1.5155
 9853TIP3   OH253753   1.018   1.514   0.786 -0.1759  0.7625  0.6622
 9853TIP3    H153754   1.079   1.441   0.794  2.0736  2.2943 -1.0868
 9853TIP3    H253755   0.947   1.493   0.846  0.6412 -2.5444  0.6533
 9854TIP3   OH253756   7.480   5.740   2.961  0.1898  0.2070  0.5291
 9854TIP3    H153757   7.472   5.662   2.906 -0.4416 -0.5848  1.6926
 9854TIP3    H253758   7.573   5.762   2.958  0.5142 -1.0422  0.7529
 9855TIP3   OH253759   4.366   4.669   0.951 -0.4182 -0.0234 -0.3810
 9855TIP3    H153760   4.432   4.723   0.908  0.8700 -0.6559  0.7265
 9855TIP3    H253761   4.413   4.591   0.978 -1.8348 -0.8791 -0.3053
 9856TIP3   OH253762   4.574   3.541   2.789  0.0124  0.1339 -0.0251
 9856TIP3    H153763   4.534   3.625   2.769  0.6172  0.3621 -0.2937
 9856TIP3    H253764   4.605   3.508   2.705  1.1043  0.3356  0.2906
 9857TIP3   OH253765   5.488   0.579   2.270  0.2579 -0.4758  0.3713
 9857TIP3    H153766   5.408   0.631   2.279  1.2385  0.8719  1.9686
 9857TIP3    H253767   5.547   0.635   2.219 -0.0565 -1.8270 -1.5831
 9858TIP3   OH253768   0.037   2.840   3.597 -0.0254 -1.0289  0.0015
 9858TIP3    H153769   0.097   2.915   3.597  0.3123 -1.2925 -0.3874
 9858TIP3    H253770  -0.031   2.864   3.534 -0.0267 -0.9678  0.0256
 9859TIP3   OH253771   5.869   0.828   1.045 -0.4795  0.3846  0.1887
 9859TIP3    H153772   5.798   0.792   1.097 -1.6672  1.8620 -0.3533
 9859TIP3    H253773   5.938   0.761   1.050 -1.6655 -0.8285  1.1832
 9860TIP3   OH253774   6.453   4.538   2.954 -0.0415  0.0409  0.4989
 9860TIP3    H153775   6.499   4.526   2.871  2.3850 -0.4297  1.7888
 9860TIP3    H253776   6.391   4.465   2.958 -0.1069 -0.0037 -0.8119
 9861TIP3   OH253777   4.903   1.241   2.535 -0.2821 -0.1352  0.3775
 9861TIP3    H153778   4.957   1.186   2.477 -1.4455  0.1617 -1.0599
 9861TIP3    H253779   4.932   1.219   2.623 -0.7813 -3.1552 -0.1222
 9862TIP3   OH253780   1.502   0.335   0.840  0.3240  0.2807  0.1931
 9862TIP3    H153781   1.543   0.335   0.754  0.7301  2.0271  0.3580
 9862TIP3    H253782   1.416   0.376   0.826  0.3540  0.4873  0.5896
 9863TIP3   OH253783   2.208   7.381   1.923 -0.2604  0.0926  0.4059
 9863TIP3    H153784   2.202   7.461   1.975  0.0112  0.1286  0.3821
 9863TIP3    H253785   2.145   7.393   1.852  1.2514  1.1820 -0.8152
 9864TIP3   OH253786   1.483   3.761   2.801 -0.2914  0.0667  0.4474
 9864TIP3    H153787   1.577   3.768   2.786 -0.4871  1.1530 -0.4680
 9864TIP3    H253788   1.472   3.772   2.895  0.5520 -0.9109  0.6716
 9865TIP3   OH253789   5.478   0.453   1.452 -0.0163  0.3145  0.1718
 9865TIP3    H153790   5.560   0.428   1.410 -0.6077 -0.7277 -0.3897
 9865TIP3    H253791   5.491   0.431   1.545  1.0403  1.9939  0.4741
 9866TIP3   OH253792   1.543   4.518   1.299 -0.3186  0.1774 -0.1385
 9866TIP3    H153793   1.529   4.566   1.217 -0.9685  1.0376  0.4605
 9866TIP3    H253794   1.475   4.551   1.358  1.4138  1.1164  1.4235
 9867TIP3   OH253795   6.782   5.226   2.540  0.1618  0.2635 -0.7671
 9867TIP3    H153796   6.789   5.297   2.603 -1.7227 -0.1272 -0.0690
 9867TIP3    H253797   6.798   5.146   2.590 -2.0828 -0.1092 -0.5478
 9868TIP3   OH253798   5.291   1.389   2.477  0.0115 -0.2383  0.9248
 9868TIP3    H153799   5.350   1.324   2.514  1.1382 -0.3057 -0.8779
 9868TIP3    H253800   5.348   1.447   2.426 -1.2627  0.7782  0.5997
 9869TIP3   OH253801   1.455   6.730   1.236  0.4866  0.0443  0.4698
 9869TIP3    H153802   1.493   6.725   1.148 -0.1474 -0.9862  0.2336
 9869TIP3    H253803   1.361   6.745   1.221  0.2805 -0.7031  0.9420
 9870TIP3   OH253804   2.366   2.455   0.845 -0.3505 -0.1403  0.7963
 9870TIP3    H153805   2.328   2.377   0.803  2.5043 -0.8672 -0.6743
 9870TIP3    H253806   2.376   2.518   0.775  3.2069 -0.8646  0.4511
 9871TIP3   OH253807   3.214   5.447   2.084 -0.2605  0.1331 -0.3001
 9871TIP3    H153808   3.188   5.535   2.113  1.3695  0.8448 -0.9054
 9871TIP3    H253809   3.197   5.447   1.990 -0.5537 -0.3216 -0.2508
 9872TIP3   OH253810   2.727   4.371   0.539 -0.3501 -0.0919 -0.3498
 9872TIP3    H153811   2.709   4.342   0.628 -1.5043 -1.9723 -1.1359
 9872TIP3    H253812   2.727   4.467   0.544  0.3955 -0.1675  1.7815
 9873TIP3   OH253813   2.107   3.451   1.421 -0.1730 -0.4669  0.2318
 9873TIP3    H153814   2.164   3.496   1.359 -1.2902 -1.1238 -1.3441
 9873TIP3    H253815   2.042   3.406   1.366 -1.0970 -1.2462  1.8741
 9874TIP3   OH253816   0.479   0.990   1.729 -0.1007  0.3598  0.0662
 9874TIP3    H153817   0.545   0.948   1.674  0.6773 -1.0519  1.9421
 9874TIP3    H253818   0.530   1.038   1.794 -0.9565  0.7665  0.4444
 9875TIP3   OH253819   2.000   4.718   1.204  0.2614  0.3574  0.0375
 9875TIP3    H153820   1.956   4.635   1.183 -1.4286  1.0713  0.5451
 9875TIP3    H253821   2.088   4.692   1.229  0.4966 -1.0717 -1.9577
 9876TIP3   OH253822   5.661   7.302   2.549  0.5491  0.5769 -0.0312
 9876TIP3    H153823   5.754   7.301   2.569  0.6978 -0.4832 -0.7379
 9876TIP3    H253824   5.642   7.394   2.530  1.3044  0.9031  0.7479
 9877TIP3   OH253825   6.367   7.482   2.356  0.4811  0.1463  0.1866
 9877TIP3    H153826   6.290   7.425   2.350 -1.1758  2.3675 -1.1416
 9877TIP3    H253827   6.403   7.483   2.267  0.1487  1.5629  0.0524
 9878TIP3   OH253828   6.571   7.539   1.815  0.2215 -0.0983  0.6944
 9878TIP3    H153829   6.622   7.615   1.789  0.0171  0.3666  1.6112
 9878TIP3    H253830   6.583   7.533   1.910 -0.9416 -0.3293  0.8433
 9879TIP3   OH253831   1.293   4.960   1.563  0.3437  0.1765 -0.8129
 9879TIP3    H153832   1.227   4.997   1.504 -0.4588 -1.8675 -1.2914
 9879TIP3    H253833   1.242   4.922   1.635  1.3002  2.5536  1.2641
 9880TIP3   OH253834   2.116   5.374   2.749 -0.3091  0.2663 -0.0199
 9880TIP3    H153835   2.138   5.467   2.740 -0.5536  0.4158  0.8165
 9880TIP3    H253836   2.201   5.330   2.743 -0.4295  0.2723 -3.1403
 9881TIP3   OH253837   3.630   1.331   0.973 -0.2393  0.0784 -0.3067
 9881TIP3    H153838   3.612   1.246   0.933 -0.7223 -0.4525  0.9834
 9881TIP3    H253839   3.557   1.346   1.033  0.6257  0.6710  0.6395
 9882TIP3   OH253840   6.567   0.647   1.739 -0.0780  0.0066 -0.3081
 9882TIP3    H153841   6.564   0.583   1.668  0.3408 -0.7040  0.3064
 9882TIP3    H253842   6.497   0.620   1.798  1.7107 -1.4791  1.2638
 9883TIP3   OH253843   5.042   4.358   1.237 -0.1001 -0.4773 -0.5140
 9883TIP3    H153844   5.072   4.281   1.188  3.1160  0.6640 -0.6090
 9883TIP3    H253845   5.029   4.326   1.326  0.5668 -1.2912 -0.6972
 9884TIP3   OH253846   1.244   2.752   2.425 -0.3712 -0.0203 -0.0197
 9884TIP3    H153847   1.200   2.667   2.415  0.2284 -0.2788 -0.5471
 9884TIP3    H253848   1.175   2.811   2.454 -0.5396 -0.9484  1.5490
 9885TIP3   OH253849   2.808   3.485   2.221 -0.6368  0.2071  0.3574
 9885TIP3    H153850   2.852   3.430   2.285  1.6079  1.0096 -0.3974
 9885TIP3    H253851   2.759   3.424   2.166  1.6276 -1.0744 -0.3388
 9886TIP3   OH253852   1.143   4.332   1.319  0.2599 -0.5038  0.0790
 9886TIP3    H153853   1.150   4.249   1.272  1.8066  0.0409 -0.7488
 9886TIP3    H253854   1.049   4.349   1.325 -0.0404 -1.0243 -2.1190
 9887TIP3   OH253855   4.363   3.057   2.684 -0.2372  0.8825 -0.2185
 9887TIP3    H153856   4.298   3.107   2.732  0.1594  0.6557  0.5778
 9887TIP3    H253857   4.409   3.007   2.751  0.1597  0.3579 -0.8678
 9888TIP3   OH253858   1.503   4.134   2.813 -0.3625  0.0445  0.5467
 9888TIP3    H153859   1.552   4.217   2.816 -0.9154  0.3585  0.9941
 9888TIP3    H253860   1.506   4.100   2.902 -0.5170 -0.1971  0.4619
 9889TIP3   OH253861   4.612   1.713   1.398 -0.0890 -0.2252  0.2666
 9889TIP3    H153862   4.571   1.720   1.484  0.2330  0.0143  0.4032
 9889TIP3    H253863   4.553   1.658   1.347 -0.4445 -0.0944  0.5392
 9890TIP3   OH253864   5.480   2.936   1.864 -0.1380 -0.0111  0.3682
 9890TIP3    H153865   5.477   2.909   1.773  0.6124  0.3172  0.2371
 9890TIP3    H253866   5.570   2.964   1.878  0.1247 -1.3264  1.5758
 9891TIP3   OH253867   4.304   0.248   0.692 -0.1274 -0.2571  0.0057
 9891TIP3    H153868   4.224   0.223   0.738  0.5515 -0.3393  1.1571
 9891TIP3    H253869   4.368   0.264   0.761  0.9491 -0.4964 -0.9141
 9892TIP3   OH253870   6.214   4.452   2.036 -0.0757 -0.1382 -0.0215
 9892TIP3    H153871   6.248   4.482   2.120  0.9709  2.0084 -1.1446
 9892TIP3    H253872   6.119   4.465   2.043 -0.0591 -0.4125  0.9545
 9893TIP3   OH253873   0.770   1.449   0.877 -0.4750 -0.3124 -0.7922
 9893TIP3    H153874   0.748   1.538   0.903 -0.2035 -0.9884  2.0387
 9893TIP3    H253875   0.697   1.422   0.821 -1.2059  1.2275 -0.6364
 9894TIP3   OH253876   5.114   4.393   2.203  0.3677  0.2986  0.1780
 9894TIP3    H153877   5.185   4.457   2.195 -0.4552  1.0251 -1.7704
 9894TIP3    H253878   5.068   4.397   2.119 -3.2889  1.3962  2.0317
 9895TIP3   OH253879   1.298   1.872   0.712 -0.3625  0.2768  0.2252
 9895TIP3    H153880   1.211   1.837   0.689 -0.1318 -0.2171  0.0939
 9895TIP3    H253881   1.354   1.845   0.639 -0.3908  1.8093 -0.3919
 9896TIP3   OH253882   0.369   3.297   3.211  0.5406 -0.2295  0.2657
 9896TIP3    H153883   0.284   3.260   3.235  0.2844 -0.0660 -0.3722
 9896TIP3    H253884   0.430   3.225   3.221  0.0733 -0.8054 -0.7901
 9897TIP3   OH253885   1.197   0.129   0.660  0.1428 -0.3711  0.1638
 9897TIP3    H153886   1.240   0.120   0.575 -0.3537  1.7154 -0.3834
 9897TIP3    H253887   1.203   0.223   0.680 -2.8293 -0.2042  0.7375
 9898TIP3   OH253888   3.082   0.199   1.692 -0.2728 -0.0421 -0.3424
 9898TIP3    H153889   3.075   0.111   1.729 -2.5602  0.0139 -0.4953
 9898TIP3    H253890   3.055   0.189   1.600  1.1546  0.5481 -0.8563
 9899TIP3   OH253891   3.968   6.044   3.006  0.2889  0.6935 -0.3731
 9899TIP3    H153892   3.904   5.995   2.953 -0.4234  0.6356  0.5074
 9899TIP3    H253893   3.958   6.135   2.978  0.3732  0.5799 -0.7824
 9900TIP3   OH253894   1.542   6.682   2.595  0.2411  0.0996  0.1281
 9900TIP3    H153895   1.607   6.686   2.665 -0.7765  0.7698  1.0673
 9900TIP3    H253896   1.458   6.687   2.640 -0.4797 -0.8116 -1.0542
 9901TIP3   OH253897   6.642   2.728   0.850  0.0504  0.4337 -0.1274
 9901TIP3    H153898   6.591   2.736   0.769 -0.4578  0.1664  0.1577
 9901TIP3    H253899   6.589   2.774   0.916 -0.0944 -0.3171  0.2878
 9902TIP3   OH253900   6.030   4.024   1.376 -0.4951  0.3980  0.2188
 9902TIP3    H153901   5.986   4.093   1.326  0.7314  1.7280  0.8941
 9902TIP3    H253902   6.123   4.037   1.358 -0.1773 -0.5014  1.1180
 9903TIP3   OH253903   3.084   3.178   1.655  0.0265  0.1641 -0.2110
 9903TIP3    H153904   3.067   3.086   1.674  0.3200  0.2000  0.2462
 9903TIP3    H253905   3.129   3.210   1.733 -0.2635  0.7479 -0.2825
 9904TIP3   OH253906   1.276   4.636   2.304  0.1276 -0.0747 -0.9173
 9904TIP3    H153907   1.366   4.609   2.323 -0.2394 -1.2874 -0.8366
 9904TIP3    H253908   1.222   4.572   2.349 -0.7934  0.8434 -0.6793
 9905TIP3   OH253909   1.911   4.261   2.799 -0.4098 -0.0852  0.1867
 9905TIP3    H153910   1.927   4.219   2.715  0.5285  1.1531 -0.2872
 9905TIP3    H253911   1.830   4.311   2.786  0.4104  1.1476 -0.4405
 9906TIP3   OH253912   5.102   2.585   1.180 -0.2087  0.1971 -0.0060
 9906TIP3    H153913   5.151   2.667   1.189 -0.8415  0.3937  3.0967
 9906TIP3    H253914   5.134   2.530   1.252 -1.7964 -1.1819 -0.2844
 9907TIP3   OH253915   6.611   7.456   0.411 -0.0916 -0.2096 -0.2508
 9907TIP3    H153916   6.565   7.376   0.436 -0.3689  0.2923  0.9052
 9907TIP3    H253917   6.593   7.466   0.317 -0.9373 -0.9198 -0.1741
 9908TIP3   OH253918   5.919   3.878   0.770  0.4975  0.1164 -0.2394
 9908TIP3    H153919   5.891   3.928   0.693 -0.5958  0.3491  0.2864
 9908TIP3    H253920   5.933   3.945   0.837  1.8745 -0.0462 -0.3392
 9909TIP3   OH253921   1.430   4.784   2.736  0.1318 -0.2331 -0.2676
 9909TIP3    H153922   1.373   4.852   2.700  0.8215  0.2507 -0.4743
 9909TIP3    H253923   1.421   4.792   2.831 -1.0090 -0.9230 -0.2972
 9910TIP3   OH253924   0.305   2.257   0.398 -0.3453  0.1597  0.3485
 9910TIP3    H153925   0.295   2.341   0.353  0.0805  0.3034  0.5131
 9910TIP3    H253926   0.257   2.267   0.480  1.5587  1.0624  1.4224
 9911TIP3   OH253927   3.403   5.111   1.934 -0.2353 -0.5555 -0.5785
 9911TIP3    H153928   3.460   5.176   1.893 -0.6483  0.5979  0.5702
 9911TIP3    H253929   3.462   5.040   1.959  0.2250 -0.6622 -1.8902
 9912TIP3   OH253930   7.001   5.453   1.750  0.5489 -0.5065  0.4886
 9912TIP3    H153931   6.968   5.537   1.719 -1.4393  0.2006  4.0001
 9912TIP3    H253932   6.958   5.389   1.693  0.9910  0.7300 -1.3399
 9913TIP3   OH253933   4.807   7.028   1.553 -0.2852  0.2488  0.0992
 9913TIP3    H153934   4.819   7.089   1.625  0.4770  1.6797 -1.1848
 9913TIP3    H253935   4.892   7.025   1.509 -0.6789 -0.7185 -0.6403
 9914TIP3   OH253936   3.474   4.359   1.641  0.0924  0.7098 -0.3498
 9914TIP3    H153937   3.418   4.435   1.630  1.1507  1.3620 -1.4424
 9914TIP3    H253938   3.417   4.284   1.625 -0.9556  1.2571  0.7364
 9915TIP3   OH253939   0.674   4.043   1.170  0.7720  0.0888 -0.3508
 9915TIP3    H153940   0.694   3.959   1.212  1.3724  0.5932  0.3918
 9915TIP3    H253941   0.617   4.088   1.232  0.3957  0.2084 -0.7794
 9916TIP3   OH253942   0.809   2.615   0.497 -0.0381  0.6854  0.0134
 9916TIP3    H153943   0.814   2.604   0.592  1.1769  0.6155 -0.0327
 9916TIP3    H253944   0.801   2.526   0.462 -1.3521  0.7691  0.0752
 9917TIP3   OH253945   6.050   5.199   2.613  0.4263 -0.5555  0.0542
 9917TIP3    H153946   6.024   5.250   2.536  2.3106  0.7363  0.2072
 9917TIP3    H253947   6.137   5.234   2.636  0.5252 -1.9136  1.8915
 9918TIP3   OH253948   2.439   1.745   0.767 -0.2116  0.2304 -0.2824
 9918TIP3    H153949   2.494   1.691   0.710 -0.3385 -0.1589 -0.0466
 9918TIP3    H253950   2.391   1.681   0.820  0.9826  0.5801  1.3062
 9919TIP3   OH253951   2.541   1.052   2.313 -0.0098 -0.4314  0.4657
 9919TIP3    H153952   2.565   0.960   2.301  0.3935 -0.3153  0.3719
 9919TIP3    H253953   2.457   1.049   2.359 -0.2759 -0.8509 -0.0359
 9920TIP3   OH253954   5.871   6.543   0.382 -0.5937 -0.1437  0.3143
 9920TIP3    H153955   5.928   6.615   0.408 -0.3229 -1.3853  3.6672
 9920TIP3    H253956   5.786   6.584   0.366 -0.1043  1.0727  0.7077
 9921TIP3   OH253957   7.560   2.650   3.294  0.1115 -0.1733  0.4933
 9921TIP3    H153958   7.551   2.744   3.308  2.3366 -0.1564  2.4277
 9921TIP3    H253959   7.524   2.609   3.373  0.8341 -0.8319  0.4990
 9922TIP3   OH253960   1.671   2.110   2.142 -0.1020  0.1498 -0.6608
 9922TIP3    H153961   1.714   2.188   2.176  0.6250  0.5459 -2.3927
 9922TIP3    H253962   1.655   2.056   2.219 -0.7044  2.0171  0.5969
 9923TIP3   OH253963   0.119   1.393   2.899  0.1334  0.6619  0.3938
 9923TIP3    H153964   0.203   1.352   2.920  0.2790  0.8301  0.1395
 9923TIP3    H253965   0.121   1.476   2.946  0.7811  1.3894 -0.8626
 9924TIP3   OH253966   3.819   3.983   0.409  0.6405 -0.2537  0.4211
 9924TIP3    H153967   3.835   3.955   0.319  0.5419 -2.1451  0.9591
 9924TIP3    H253968   3.884   3.936   0.461 -0.0039 -0.0160  1.4706
 9925TIP3   OH253969   6.939   0.644   1.588 -0.2043  0.1835 -0.2156
 9925TIP3    H153970   6.904   0.560   1.558  0.1051  0.4006 -1.2502
 9925TIP3    H253971   7.005   0.621   1.653 -1.3537 -0.2856  0.8291
 9926TIP3   OH253972   3.973   2.953   2.195  0.2705 -0.4193  0.0704
 9926TIP3    H153973   4.068   2.965   2.197  0.3508 -1.1502  0.7207
 9926TIP3    H253974   3.955   2.889   2.264 -0.6548 -0.5680 -0.2994
 9927TIP3   OH253975   2.923   2.642   0.329 -0.0943  0.2139  0.1675
 9927TIP3    H153976   3.004   2.617   0.373 -1.2127 -0.7160  1.7616
 9927TIP3    H253977   2.952   2.703   0.261  1.9192  0.0414  0.7898
 9928TIP3   OH253978   2.417   5.561   2.881  0.2139  0.1893 -0.7688
 9928TIP3    H153979   2.390   5.469   2.871 -1.4432  0.2072  2.2192
 9928TIP3    H253980   2.484   5.559   2.949 -2.3349  1.3054  2.0653
 9929TIP3   OH253981   1.972   2.485   0.672 -0.3034 -0.5396  0.4432
 9929TIP3    H153982   2.011   2.404   0.638  1.7669  1.3621 -2.2876
 9929TIP3    H253983   1.999   2.488   0.763  0.0366 -2.6327  0.4665
 9930TIP3   OH253984   4.881   6.559   0.560 -0.0669 -0.1631  0.1481
 9930TIP3    H153985   4.926   6.484   0.522  1.3376  0.0302  1.3266
 9930TIP3    H253986   4.913   6.634   0.510 -0.3287 -0.1902 -0.0621
 9931TIP3   OH253987   0.060   1.444   0.892 -0.2647 -0.1071  0.3109
 9931TIP3    H153988   0.021   1.432   0.806  0.7284  1.2897 -0.3820
 9931TIP3    H253989   0.082   1.538   0.895  2.8520 -0.7510  0.6801
 9932TIP3   OH253990   0.142   6.567   1.956  0.0105 -0.2054 -0.0487
 9932TIP3    H153991   0.208   6.549   1.888  0.0327  1.1491 -0.4276
 9932TIP3    H253992   0.194   6.590   2.033 -0.0203 -1.0509  0.2319
 9933TIP3   OH253993   5.290   6.982   1.014 -0.1186 -0.4694  0.3806
 9933TIP3    H153994   5.251   7.043   0.951 -1.9964 -1.0453  0.9290
 9933TIP3    H253995   5.280   7.025   1.099 -2.9386 -2.0938  1.0038
 9934TIP3   OH253996   3.166   5.459   1.815 -0.1871 -0.1242 -0.2173
 9934TIP3    H153997   3.141   5.550   1.798 -0.9533 -0.4914 -1.1368
 9934TIP3    H253998   3.111   5.407   1.756  0.0672 -1.2056  0.4650
 9935TIP3   OH253999   7.168   0.782   1.324  0.6626 -0.2545  0.2881
 9935TIP3    H154000   7.229   0.715   1.356  0.5671 -0.0472  0.9253
 9935TIP3    H254001   7.187   0.789   1.231  3.7539  1.9080  0.9111
 9936TIP3   OH254002   3.756   3.491   0.515 -0.0903  0.2150 -0.2472
 9936TIP3    H154003   3.843   3.456   0.496  0.9063  2.1790  0.4437
 9936TIP3    H254004   3.726   3.443   0.592  1.4393  1.1407  0.9728
 9937TIP3   OH254005   5.780   0.590   1.598 -0.3181  0.6856 -0.0945
 9937TIP3    H154006   5.724   0.567   1.672 -1.5001  1.9562 -0.5551
 9937TIP3    H254007   5.782   0.511   1.544  0.5376 -0.2499  1.2380
 9938TIP3   OH254008   5.964   1.757   3.284  0.4925  0.0221  0.2306
 9938TIP3    H154009   5.884   1.734   3.236  0.3527  0.6329  0.1670
 9938TIP3    H254010   6.021   1.681   3.273 -0.6374 -1.0657  1.5080
 9939TIP3   OH254011   6.964   1.437   1.406  0.2244 -0.5832 -0.7514
 9939TIP3    H154012   6.913   1.502   1.455 -0.8208 -1.8935 -0.0559
 9939TIP3    H254013   7.049   1.480   1.392 -0.5719  1.0840 -0.6799
 9940TIP3   OH254014   6.655   5.756   2.880 -0.4157 -0.0914  0.2062
 9940TIP3    H154015   6.641   5.778   2.788 -1.4131  0.5589  0.5008
 9940TIP3    H254016   6.711   5.678   2.878  1.1596  1.0105 -0.9166
 9941TIP3   OH254017   1.474   4.040   3.069  0.1127  0.3885  0.0135
 9941TIP3    H154018   1.522   4.038   3.151  0.8741  0.6529 -0.4222
 9941TIP3    H254019   1.401   3.979   3.083  1.6584 -1.5800  0.0241
 9942TIP3   OH254020   0.349   5.599   1.208  0.4744  0.6600  0.0934
 9942TIP3    H154021   0.279   5.548   1.168  0.3578  0.6320  0.3347
 9942TIP3    H254022   0.367   5.556   1.291  0.0441  1.2910  0.5242
 9943TIP3   OH254023   4.610   4.411   0.854  0.0200 -0.2135 -0.0336
 9943TIP3    H154024   4.619   4.320   0.826  0.9715 -0.7430  1.8697
 9943TIP3    H254025   4.573   4.406   0.942 -1.7678  1.3485 -0.6055
 9944TIP3   OH254026   7.302   3.892   0.996  0.4233  0.5776 -0.4061
 9944TIP3    H154027   7.269   3.883   1.086  3.3630  0.3492  0.7633
 9944TIP3    H254028   7.293   3.805   0.959  0.4143  0.3343  0.1503
 9945TIP3   OH254029   1.369   2.889   2.150 -0.2531  0.4803  0.0101
 9945TIP3    H154030   1.313   2.859   2.079  0.2764  0.6769 -0.5004
 9945TIP3    H254031   1.330   2.971   2.179  0.5849  1.4008 -1.3512
 9946TIP3   OH254032   1.242   5.443   0.749 -0.2516  0.0600 -0.3351
 9946TIP3    H154033   1.210   5.353   0.757 -0.4779  0.0421 -1.2931
 9946TIP3    H254034   1.208   5.473   0.664  1.5384  0.3214 -1.0136
 9947TIP3   OH254035   6.429   7.435   3.130 -0.0005 -0.0354  0.0616
 9947TIP3    H154036   6.341   7.467   3.151 -1.1004 -2.5152 -0.3797
 9947TIP3    H254037   6.485   7.471   3.198 -1.4683  1.1613  0.6823
 9948TIP3   OH254038   1.299   4.574   1.426 -0.4291  0.1453 -0.0985
 9948TIP3    H154039   1.270   4.494   1.382 -2.2598  0.6029  0.1861
 9948TIP3    H254040   1.221   4.629   1.429  0.8409  2.0584 -0.4726
 9949TIP3   OH254041   6.399   4.831   2.317 -0.0229  0.2972  0.0861
 9949TIP3    H154042   6.420   4.898   2.383 -1.5173  1.1682 -0.2652
 9949TIP3    H254043   6.406   4.877   2.233  4.8056 -1.5039 -0.7928
 9950TIP3   OH254044   2.670   1.494   0.912  0.5192 -0.2712 -0.1843
 9950TIP3    H154045   2.624   1.501   0.828 -1.0821 -1.1058  0.5779
 9950TIP3    H254046   2.759   1.469   0.888  0.3631  0.4295 -1.6679
 9951TIP3   OH254047   0.194   1.535   3.313 -0.4104  0.6877  0.3005
 9951TIP3    H154048   0.279   1.555   3.274 -0.5044 -1.3869 -1.0880
 9951TIP3    H254049   0.164   1.619   3.349  1.6928  1.7014 -0.1701
 9952TIP3   OH254050   5.513   4.323   2.994  0.1798 -0.1969  0.3429
 9952TIP3    H154051   5.473   4.324   3.081  1.0874  1.5815  0.7824
 9952TIP3    H254052   5.592   4.270   3.005 -0.2991 -0.9334  0.2993
 9953TIP3   OH254053   0.182   3.831   2.685  0.0166  0.4249  0.3677
 9953TIP3    H154054   0.244   3.783   2.739 -1.0241 -1.1416  0.2124
 9953TIP3    H254055   0.169   3.777   2.607 -1.7987  0.5270  0.5516
 9954TIP3   OH254056   4.751   2.343   2.849 -0.2520  0.0042 -0.2435
 9954TIP3    H154057   4.791   2.271   2.897  0.7924  0.8676  0.2215
 9954TIP3    H254058   4.697   2.389   2.914  3.0208  2.6132  0.9125
 9955TIP3   OH254059   1.796   5.311   1.425  0.0970 -0.1338 -0.2694
 9955TIP3    H154060   1.838   5.241   1.375  0.6011 -0.8584  1.1128
 9955TIP3    H254061   1.789   5.384   1.363  1.4037 -0.7237 -1.1684
 9956TIP3   OH254062   5.884   3.295   1.968 -0.1896 -0.5016  0.0314
 9956TIP3    H154063   5.923   3.369   1.921  2.5711  0.1818  3.0333
 9956TIP3    H254064   5.812   3.333   2.018 -0.7147 -0.4848 -0.7243
 9957TIP3   OH254065   1.673   4.753   0.890  0.0697 -0.3439 -0.2384
 9957TIP3    H154066   1.605   4.772   0.826  0.4679 -1.0283 -0.8842
 9957TIP3    H254067   1.753   4.744   0.838  0.3747 -1.0526  0.3397
 9958TIP3   OH254068   2.328   6.773   2.412  0.2752 -0.2140  0.3576
 9958TIP3    H154069   2.289   6.783   2.325  1.2859 -2.3550 -0.4143
 9958TIP3    H254070   2.276   6.831   2.468 -4.4455 -3.1016 -0.4658
 9959TIP3   OH254071   2.911   3.908   1.435 -0.2616  0.1072 -0.0415
 9959TIP3    H154072   2.962   3.984   1.406 -1.0686  0.7663  0.2023
 9959TIP3    H254073   2.955   3.833   1.396  1.0656  0.6220  0.4116
 9960TIP3   OH254074   6.438   5.898   3.272 -0.1217 -0.1249 -0.8522
 9960TIP3    H154075   6.385   5.968   3.309 -0.3755 -0.6932 -0.1205
 9960TIP3    H254076   6.468   5.848   3.348 -0.6421 -1.3055 -1.4056
 9961TIP3   OH254077   6.408   3.111   2.212  0.0991 -0.4962  0.1523
 9961TIP3    H154078   6.347   3.067   2.271  0.2198  2.1104  2.4078
 9961TIP3    H254079   6.363   3.193   2.190  0.5780 -0.8553 -2.5404
 9962TIP3   OH254080   2.585   5.233   2.662 -0.1892  0.0227  0.0714
 9962TIP3    H154081   2.619   5.227   2.751  2.9907 -2.1521 -1.1180
 9962TIP3    H254082   2.540   5.150   2.648 -0.3212  0.1792 -0.4626
 9963TIP3   OH254083   2.754   3.968   2.003 -0.0493  0.1610  0.5200
 9963TIP3    H154084   2.801   3.944   1.923  1.6537  1.1799  1.1541
 9963TIP3    H254085   2.750   3.887   2.054 -0.1563 -0.2376 -0.1149
 9964TIP3   OH254086   4.887   3.982   1.642  0.3122 -0.0847  0.5145
 9964TIP3    H154087   4.816   3.936   1.686  0.2385 -1.5190 -1.0430
 9964TIP3    H254088   4.873   4.074   1.664 -1.1110 -0.5038  1.4888
 9965TIP3   OH254089   4.715   0.653   1.434 -0.4365 -0.1334  0.0586
 9965TIP3    H154090   4.733   0.703   1.355  0.1435 -0.0754  0.2246
 9965TIP3    H254091   4.762   0.699   1.503 -1.1809 -0.0100  0.4990
 9966TIP3   OH254092   7.228   5.925   1.186 -0.3874  0.2203 -0.8638
 9966TIP3    H154093   7.324   5.922   1.182 -0.3778  0.2156 -0.6055
 9966TIP3    H254094   7.203   5.848   1.237 -0.4481  1.0346  0.3859
 9967TIP3   OH254095   3.462   7.021   0.551  0.0254 -0.5733  0.1100
 9967TIP3    H154096   3.464   7.107   0.592  0.1346  0.0402 -1.1400
 9967TIP3    H254097   3.534   7.023   0.488 -1.1465 -0.8724 -1.2902
 9968TIP3   OH254098   6.477   3.800   2.234  0.0702  0.0317 -0.2676
 9968TIP3    H154099   6.466   3.803   2.329 -0.3396 -2.5390 -0.1782
 9968TIP3    H254100   6.518   3.715   2.216  0.6110  0.6598 -2.3654
 9969TIP3   OH254101   6.100   3.643   0.536 -0.6672  0.3870  0.2666
 9969TIP3    H154102   6.021   3.617   0.490 -0.4684  0.4336 -0.1076
 9969TIP3    H254103   6.093   3.601   0.622 -2.0476  2.0246  0.9939
 9970TIP3   OH254104   1.925   0.530   2.508  0.1691  0.1445  0.4042
 9970TIP3    H154105   1.850   0.496   2.460 -0.8101  2.9807 -0.2794
 9970TIP3    H254106   1.943   0.463   2.574 -1.2004 -1.8690 -1.1202
 9971TIP3   OH254107   2.516   6.365   1.396 -0.0791  0.0178  0.4634
 9971TIP3    H154108   2.543   6.423   1.324 -1.1641 -0.1925 -0.1301
 9971TIP3    H254109   2.547   6.410   1.475  0.7273  0.4818 -0.1020
 9972TIP3   OH254110   0.291   4.935   3.360  0.6093 -0.3480 -0.0226
 9972TIP3    H154111   0.384   4.944   3.339  0.2370  1.2030 -1.1766
 9972TIP3    H254112   0.266   5.020   3.396 -0.0130 -1.2935  1.9585
 9973TIP3   OH254113   7.245   3.590   3.223 -0.4735  0.1930 -0.9219
 9973TIP3    H154114   7.328   3.634   3.239 -1.1396  1.3521 -0.4865
 9973TIP3    H254115   7.263   3.497   3.236  0.8704  0.3691 -1.4018
 9974TIP3   OH254116   7.190   2.379   0.676  0.2971 -0.2139 -0.2510
 9974TIP3    H154117   7.102   2.404   0.703  1.0734  1.5426  0.8006
 9974TIP3    H254118   7.207   2.429   0.597  0.3446 -0.5703 -0.4687
 9975TIP3   OH254119   6.389   0.572   0.356 -0.4877 -0.3892 -0.4093
 9975TIP3    H154120   6.331   0.634   0.400 -2.5605 -0.8491 -2.3569
 9975TIP3    H254121   6.398   0.606   0.267  3.7080  0.6023  0.1572
 9976TIP3   OH254122   6.558   5.434   2.754  0.3484 -0.0920 -0.1208
 9976TIP3    H154123   6.652   5.414   2.753  0.1771 -1.0016  0.6000
 9976TIP3    H254124   6.527   5.399   2.837 -0.6886 -0.0310 -0.4681
 9977TIP3   OH254125   0.292   3.184   2.911  0.3804 -0.3121  0.0404
 9977TIP3    H154126   0.215   3.129   2.919  1.7410 -2.1221  1.6214
 9977TIP3    H254127   0.293   3.237   2.991  0.1729  0.5860 -0.5291
 9978TIP3   OH254128   4.229   0.396   3.285  0.5921  0.3156 -0.0689
 9978TIP3    H154129   4.292   0.434   3.346  0.0163  2.0941 -0.5331
 9978TIP3    H254130   4.282   0.349   3.221  1.6529  3.0627 -1.3586
 9979TIP3   OH254131   2.061   5.234   0.508  0.0545 -0.0877 -0.4840
 9979TIP3    H154132   1.992   5.248   0.443  0.3026  0.7677 -0.5787
 9979TIP3    H254133   2.038   5.151   0.550 -1.1079  0.2437 -0.4139
 9980TIP3   OH254134   0.654   7.478   2.580 -0.3398 -0.2448  0.1887
 9980TIP3    H154135   0.689   7.407   2.635 -1.3820 -0.8668  0.0675
 9980TIP3    H254136   0.686   7.558   2.621  0.9545 -0.7691  0.2733
 9981TIP3   OH254137   3.337   1.199   1.940 -0.5309 -0.1206  0.0787
 9981TIP3    H154138   3.243   1.196   1.927 -0.4824 -0.1629 -0.2654
 9981TIP3    H254139   3.359   1.111   1.972 -0.7461  0.1983  1.1218
 9982TIP3   OH254140   6.328   6.542   2.425  0.5847 -0.6504  0.1059
 9982TIP3    H154141   6.293   6.458   2.396  1.3922 -1.5222  1.5684
 9982TIP3    H254142   6.271   6.570   2.496  1.2475 -0.7799  0.7087
 9983TIP3   OH254143   5.207   0.907   3.197  0.1119  0.1917  0.2523
 9983TIP3    H154144   5.123   0.880   3.234  0.8980 -1.5942  0.7940
 9983TIP3    H254145   5.258   0.827   3.189  1.8560  1.2588  0.0866
 9984TIP3   OH254146   4.722   1.993   2.070 -0.2851 -0.1673 -0.0505
 9984TIP3    H154147   4.703   1.940   1.992 -0.0368 -0.2215 -0.0751
 9984TIP3    H254148   4.807   2.031   2.052  0.8305 -1.9435  1.1256
 9985TIP3   OH254149   0.203   4.156   2.295  0.0639  0.6417  0.4980
 9985TIP3    H154150   0.278   4.107   2.327 -0.6849 -0.6245  0.3728
 9985TIP3    H254151   0.217   4.165   2.201 -1.5708 -2.7266 -0.2111
 9986TIP3   OH254152   3.973   7.245   1.951  0.6099  0.4465 -0.4374
 9986TIP3    H154153   3.938   7.268   1.865 -0.8455 -0.5904 -0.1625
 9986TIP3    H254154   3.916   7.290   2.013  0.1703 -0.6923  0.0166
 9987TIP3   OH254155   6.218   3.266   1.845 -0.2637 -0.5842 -0.5101
 9987TIP3    H154156   6.190   3.238   1.932  0.6866  0.5441  0.1887
 9987TIP3    H254157   6.148   3.323   1.815 -0.2491 -0.3862 -0.1695
 9988TIP3   OH254158   3.864   0.745   0.992 -0.0502 -0.0961 -0.0872
 9988TIP3    H154159   3.806   0.809   1.031 -1.2481 -0.3936 -1.3008
 9988TIP3    H254160   3.935   0.796   0.954  1.2919  0.1797  2.5968
 9989TIP3   OH254161   5.607   5.556   2.140  0.0826 -0.1040  0.5899
 9989TIP3    H154162   5.547   5.618   2.099  0.6886  0.0401 -0.1077
 9989TIP3    H254163   5.558   5.474   2.146  0.1955 -0.3199 -1.0680
 9990TIP3   OH254164   7.207   0.372   1.529  0.5339 -0.2685  0.5579
 9990TIP3    H154165   7.155   0.438   1.574 -2.6241 -0.7951 -1.9201
 9990TIP3    H254166   7.264   0.421   1.470  0.5397  0.3160  1.0554
 9991TIP3   OH254167   2.007   2.724   0.536  0.0510 -0.1808  0.1164
 9991TIP3    H154168   2.083   2.714   0.479 -0.5702  1.3135 -1.0494
 9991TIP3    H254169   1.986   2.635   0.564  1.1040 -0.8191 -1.0298
 9992TIP3   OH254170   2.876   5.012   0.435 -0.1687 -0.1334 -0.3566
 9992TIP3    H154171   2.894   4.993   0.343  2.8535  1.3192 -0.2111
 9992TIP3    H254172   2.783   5.031   0.438 -0.7704 -2.1551 -2.7026
 9993TIP3   OH254173   0.855   0.940   0.738 -0.1489 -0.2296  0.4736
 9993TIP3    H154174   0.825   1.030   0.752 -0.6506 -0.1748 -0.8007
 9993TIP3    H254175   0.831   0.894   0.818 -1.9178  0.2606  0.2598
 9994TIP3   OH254176   4.095   2.282   2.586  0.4384 -0.0854  0.6603
 9994TIP3    H154177   4.119   2.236   2.666 -1.1763  0.1418  1.3055
 9994TIP3    H254178   4.036   2.352   2.615 -0.9299 -0.5776 -0.8241
 9995TIP3   OH254179   7.396   2.290   0.506 -0.4243  0.5655 -1.1168
 9995TIP3    H154180   7.322   2.305   0.565 -0.3887 -0.3862 -0.8233
 9995TIP3    H254181   7.447   2.371   0.512 -0.5739  0.5971 -0.0745
 9996TIP3   OH254182   0.357   3.433   0.577 -0.1099 -0.0861  0.0989
 9996TIP3    H154183   0.283   3.419   0.518  0.3999  1.8472 -1.0983
 9996TIP3    H254184   0.411   3.355   0.565 -0.9746 -0.6078 -0.5304
 9997TIP3   OH254185   0.508   3.473   1.171 -0.1213 -0.2559 -0.0250
 9997TIP3    H154186   0.604   3.469   1.168  0.1228  1.3875  2.3685
 9997TIP3    H254187   0.479   3.384   1.153  1.7435 -0.4705 -2.4317
 9998TIP3   OH254188   1.700   6.400   0.582 -0.4900  0.3267 -0.4110
 9998TIP3    H154189   1.770   6.463   0.562 -2.4316  2.1495 -1.9033
 9998TIP3    H254190   1.735   6.349   0.655  2.3497  1.1783 -1.0293
 9999TIP3   OH254191   4.347   1.206   1.608  0.1746  0.0886 -0.8570
 9999TIP3    H154192   4.324   1.234   1.519 -1.0221 -0.3696 -0.7145
 9999TIP3    H254193   4.267   1.222   1.659 -0.4809 -3.1784 -0.6830
10000TIP3   OH254194   2.550   4.436   2.838 -0.7529  0.4614  0.0780
10000TIP3    H154195   2.590   4.499   2.898 -0.9864  1.2855 -0.6107
10000TIP3    H254196   2.534   4.359   2.891 -2.5135  1.7363  1.5375
10001TIP3   OH254197   6.479   6.270   2.282  0.8134  0.2020  0.5521
10001TIP3    H154198   6.400   6.319   2.258  0.4039  0.0298  1.5058
10001TIP3    H254199   6.499   6.219   2.204 -0.5001 -0.3620  0.5515
10002TIP3   OH254200   7.017   3.681   2.559 -0.1964  0.6101  0.4222
10002TIP3    H154201   6.981   3.739   2.627 -0.4002 -0.0615  0.8962
10002TIP3    H254202   7.112   3.686   2.571 -0.2611 -0.5566  1.6701
10003TIP3   OH254203   0.425   7.087   2.519 -0.0514 -0.0444 -0.1240
10003TIP3    H154204   0.471   7.004   2.529 -0.6238 -0.3525  0.0152
10003TIP3    H254205   0.370   7.093   2.597  0.0462  0.5024 -0.0999
10004TIP3   OH254206   2.029   5.655   1.309  0.4693 -0.2404  0.3611
10004TIP3    H154207   2.093   5.674   1.377  0.6562 -0.4015  0.2319
10004TIP3    H254208   1.953   5.709   1.331  1.2194  1.1828 -0.3593
10005TIP3   OH254209   4.211   4.560   1.580 -0.1384 -0.0793  0.0583
10005TIP3    H154210   4.169   4.524   1.502 -0.7632  1.6213 -0.4366
10005TIP3    H254211   4.265   4.489   1.612 -2.2992 -1.9187 -0.0840
10006TIP3   OH254212   6.286   5.060   2.827  0.0582  0.0140 -0.3008
10006TIP3    H154213   6.290   5.155   2.833  0.9804 -0.1066  1.8563
10006TIP3    H254214   6.214   5.034   2.884  0.9229 -0.6404  0.5365
10007TIP3   OH254215   2.185   4.887   1.632 -0.8759  0.4083 -0.2013
10007TIP3    H154216   2.124   4.903   1.560 -0.7566  1.4464 -0.0891
10007TIP3    H254217   2.211   4.974   1.661 -0.5928 -0.0044  0.8286
10008TIP3   OH254218   4.421   0.079   1.518 -0.1079  0.1576  0.9549
10008TIP3    H154219   4.425   0.089   1.613 -0.4651 -1.2622  1.1284
10008TIP3    H254220   4.381   0.161   1.487 -0.4998  0.3988  2.0672
10009TIP3   OH254221   3.822   6.504   1.866 -0.3284 -0.3272 -0.1104
10009TIP3    H154222   3.885   6.439   1.835 -0.8069 -0.1034 -1.6689
10009TIP3    H254223   3.737   6.460   1.860 -0.4270 -0.3473  1.1689
10010TIP3   OH254224   2.037   5.313   3.007 -0.2262 -0.2794  0.5674
10010TIP3    H154225   2.057   5.333   2.915  0.2891 -1.5515  0.3800
10010TIP3    H254226   2.063   5.221   3.017  1.4176  0.3186  2.4605
10011TIP3   OH254227   3.171   7.505   0.975 -0.1613  0.1076  0.3666
10011TIP3    H154228   3.136   7.581   1.022 -0.3113  1.1512 -1.3528
10011TIP3    H254229   3.189   7.537   0.887 -1.2457 -2.1213 -0.7512
10012TIP3   OH254230   5.292   6.204   0.312  0.0073 -0.5902 -0.0185
10012TIP3    H154231   5.288   6.157   0.395  1.1951 -1.2869 -0.3346
10012TIP3    H254232   5.385   6.214   0.294 -0.2306  0.2557 -0.8857
10013TIP3   OH254233   1.724   4.625   2.974 -0.0326 -0.1384 -0.4668
10013TIP3    H154234   1.710   4.716   2.999  0.3521 -0.4581  1.0171
10013TIP3    H254235   1.787   4.629   2.903 -0.5517  0.7824 -0.8918
10014TIP3   OH254236   0.389   3.561   3.153 -0.1852  0.3345  0.2296
10014TIP3    H154237   0.382   3.466   3.163  1.7442  0.1280  0.0566
10014TIP3    H254238   0.461   3.586   3.211  1.1597  1.2502 -1.6986
10015TIP3   OH254239   3.661   6.850   2.984 -0.1793  0.4797  0.0987
10015TIP3    H154240   3.709   6.900   2.918 -0.0891  0.6990  0.3261
10015TIP3    H254241   3.570   6.854   2.956  0.1896 -2.3003 -1.8881
10016TIP3   OH254242   5.636   3.514   0.612 -0.1467 -0.3813  0.1913
10016TIP3    H154243   5.544   3.538   0.620  0.6285  3.4922 -0.6528
10016TIP3    H254244   5.677   3.549   0.692  0.9784  0.3502 -0.6782
10017TIP3   OH254245   2.790   7.241   0.536  0.2310  0.4120 -0.2182
10017TIP3    H154246   2.847   7.188   0.481  1.2266  1.1823  0.0324
10017TIP3    H254247   2.723   7.180   0.567  0.7202 -0.4410 -0.7864
10018TIP3   OH254248   2.076   3.562   2.265 -0.9027  0.7203  0.1863
10018TIP3    H154249   1.989   3.540   2.232 -0.4267  0.8501 -1.2076
10018TIP3    H254250   2.059   3.616   2.343 -2.0850  1.4058 -0.5153
10019TIP3   OH254251   7.318   0.639   3.277  0.5411  0.1375  0.0503
10019TIP3    H154252   7.253   0.664   3.211  0.7322 -0.2076 -0.2776
10019TIP3    H254253   7.267   0.626   3.357 -0.1052 -1.9755 -0.6359
10020TIP3   OH254254   7.204   5.275   0.939 -0.0592 -0.4829 -0.3424
10020TIP3    H154255   7.118   5.258   0.902 -0.1191 -1.4232  0.1966
10020TIP3    H254256   7.257   5.303   0.864 -0.7324 -0.2581 -0.7419
10021TIP3   OH254257   2.577   7.455   2.834  0.2839 -0.3784  0.2162
10021TIP3    H154258   2.550   7.484   2.921  1.3238  0.1739  0.3702
10021TIP3    H254259   2.593   7.536   2.785 -3.6189 -0.5169 -1.6635
10022TIP3   OH254260   7.280   5.309   2.922 -0.6638 -0.1679 -0.1048
10022TIP3    H154261   7.265   5.215   2.913 -0.0874 -0.2750  0.0068
10022TIP3    H254262   7.208   5.350   2.874  0.2085 -0.6734 -1.9515
10023TIP3   OH254263   1.995   4.940   1.397  0.1119 -0.4837  0.1199
10023TIP3    H154264   2.011   4.875   1.329 -1.8690 -1.2538  0.3340
10023TIP3    H254265   1.964   5.018   1.349 -1.7568 -1.1867  0.1291
10024TIP3   OH254266   6.824   2.124   1.607  0.1420  0.5536  0.1664
10024TIP3    H154267   6.761   2.164   1.547  1.0699  1.3460 -0.2999
10024TIP3    H254268   6.769   2.076   1.669 -0.9327  1.3296 -0.1391
10025TIP3   OH254269   7.490   5.202   2.193 -0.0158  0.0615 -0.6371
10025TIP3    H154270   7.510   5.211   2.286 -2.4844  1.0820 -0.1384
10025TIP3    H254271   7.451   5.115   2.185 -0.4192  0.2396 -0.5989
10026TIP3   OH254272   5.482   0.227   3.043  1.0850  0.0842  0.1854
10026TIP3    H154273   5.497   0.165   3.114 -2.7676  0.9298  1.9884
10026TIP3    H254274   5.511   0.311   3.078  0.1077  0.3306  0.4516
10027TIP3   OH254275   0.903   0.516   3.184 -0.8170  0.4648 -0.3779
10027TIP3    H154276   0.964   0.571   3.232 -1.7954  2.2759 -1.1329
10027TIP3    H254277   0.817   0.552   3.203 -1.6160 -1.4224 -0.1356
10028TIP3   OH254278   6.796   0.750   3.485 -0.3403 -0.5472 -0.3122
10028TIP3    H154279   6.756   0.709   3.408 -0.7804 -3.1460  1.1780
10028TIP3    H254280   6.723   0.788   3.533 -0.3863 -1.0716  0.0327
10029TIP3   OH254281   2.180   0.272   2.370 -0.2565  0.1758 -0.1538
10029TIP3    H154282   2.224   0.201   2.417 -0.0958  0.0110 -0.5480
10029TIP3    H254283   2.087   0.262   2.395 -0.8718 -2.4098 -2.8836
10030TIP3   OH254284   3.120   0.214   1.040  0.1139  0.4412  0.6950
10030TIP3    H154285   3.181   0.209   1.113 -0.8858  0.0087  1.5132
10030TIP3    H254286   3.106   0.308   1.026  2.1337  0.6131 -0.5193
10031TIP3   OH254287   0.076   2.864   1.616 -0.1188 -0.0473 -0.4614
10031TIP3    H154288   0.131   2.787   1.601 -1.4470 -0.7054 -2.2106
10031TIP3    H254289   0.015   2.865   1.542 -2.3456  0.7399  1.2614
10032TIP3   OH254290   3.564   4.077   1.891 -0.8034 -0.0932 -0.1211
10032TIP3    H154291   3.473   4.047   1.887 -2.5446  4.2729  0.7104
10032TIP3    H254292   3.595   4.073   1.801 -2.3763 -0.2714 -0.6841
10033TIP3   OH254293   6.829   7.556   1.477 -0.5432  0.3190  0.0786
10033TIP3    H154294   6.854   7.540   1.386 -1.2430 -1.2749  0.1262
10033TIP3    H254295   6.749   7.607   1.471 -0.5626  0.2585 -0.2011
10034TIP3   OH254296   2.808   3.335   1.803 -0.7291 -0.0441  0.2415
10034TIP3    H154297   2.814   3.270   1.734 -0.2220  0.4562 -0.1988
10034TIP3    H254298   2.895   3.375   1.806 -0.7020 -0.1483  1.2587
10035TIP3   OH254299   7.258   6.104   1.905  0.3887  0.1054  0.0471
10035TIP3    H154300   7.169   6.098   1.871  0.6013  1.7131 -0.9040
10035TIP3    H254301   7.284   6.013   1.920 -1.7203 -0.3613  1.2605
10036TIP3   OH254302   0.488   1.497   2.081  0.1863  0.1491  0.0893
10036TIP3    H154303   0.533   1.541   2.009  0.3676  1.3890  0.9293
10036TIP3    H254304   0.395   1.513   2.064  0.1434 -0.8312 -0.6523
10037TIP3   OH254305   3.622   2.680   1.494 -0.4563 -0.4983  0.5072
10037TIP3    H154306   3.717   2.676   1.496 -0.3779 -2.4997 -1.7871
10037TIP3    H254307   3.602   2.732   1.416 -1.2112 -1.0802  0.2984
10038TIP3   OH254308   4.034   4.191   3.129 -0.0014  0.7271  0.0245
10038TIP3    H154309   4.021   4.097   3.118 -1.4786  0.8933  0.1036
10038TIP3    H254310   4.080   4.200   3.212 -0.7290  0.1095  0.5033
10039TIP3   OH254311   3.644   1.786   1.617 -0.2030 -0.0098 -0.3680
10039TIP3    H154312   3.693   1.768   1.537  1.1711  1.1264  0.1897
10039TIP3    H254313   3.579   1.715   1.622  0.5266 -0.8104 -1.8001
10040TIP3   OH254314   2.719   5.438   0.667  0.6819  0.2165  0.7353
10040TIP3    H154315   2.815   5.431   0.673  0.8782 -0.7009 -2.1404
10040TIP3    H254316   2.705   5.520   0.619  0.1618 -0.6752 -0.6790
10041TIP3   OH254317   4.504   0.976   1.084 -0.2733  0.0296  0.0779
10041TIP3    H154318   4.543   0.985   1.171  0.6222  0.0211 -0.3165
10041TIP3    H254319   4.452   1.056   1.073 -0.3528  0.0521  0.6020
10042TIP3   OH254320   0.634   4.825   1.633  0.1056 -0.0088 -0.5106
10042TIP3    H154321   0.561   4.774   1.598 -1.6679  1.3972  0.9494
10042TIP3    H254322   0.675   4.866   1.557 -0.9164 -0.4540 -1.3129
10043TIP3   OH254323   4.059   1.876   2.002 -0.0477  0.0650 -0.1947
10043TIP3    H154324   4.074   1.895   2.095 -0.8376  0.0181 -0.0526
10043TIP3    H254325   4.130   1.817   1.978  1.5915  1.9264 -0.2461
10044TIP3   OH254326   1.513   1.866   1.101 -0.2553  0.0658  0.4490
10044TIP3    H154327   1.508   1.958   1.125  0.8373  0.0079  0.9592
10044TIP3    H254328   1.606   1.845   1.106 -0.4561 -0.9917  0.0423
10045TIP3   OH254329   6.428   6.243   3.049  0.6880  0.1802 -0.1472
10045TIP3    H154330   6.440   6.333   3.020 -0.4769  0.0067 -1.2566
10045TIP3    H254331   6.420   6.249   3.144 -2.3642  1.6763 -0.3645
10046TIP3   OH254332   6.973   3.686   3.066 -0.2599  0.2694 -0.1609
10046TIP3    H154333   6.948   3.605   3.021  1.6862 -0.0912 -0.6718
10046TIP3    H254334   6.985   3.660   3.158 -0.9229  0.2791 -0.0667
10047TIP3   OH254335   0.356   1.734   1.349  0.5388  0.0297  0.5373
10047TIP3    H154336   0.288   1.763   1.410  0.3839 -0.6726  0.7092
10047TIP3    H254337   0.310   1.722   1.266  0.7089  0.7850  0.3277
10048TIP3   OH254338   0.124   2.930   2.103  0.0586  0.3260 -0.3761
10048TIP3    H154339   0.140   2.841   2.070  0.2215  0.8157 -1.6962
10048TIP3    H254340   0.042   2.956   2.059  0.7046  1.2988 -1.0430
10049TIP3   OH254341   0.929   3.365   2.626  0.9066 -0.4698 -0.3739
10049TIP3    H154342   0.995   3.346   2.694  0.1225 -0.3424  0.4395
10049TIP3    H254343   0.898   3.453   2.647 -1.3784 -1.4789  0.8654
10050TIP3   OH254344   1.944   2.095   2.608  0.7051  0.2725 -0.0725
10050TIP3    H154345   2.028   2.053   2.628 -0.0741 -0.9550  0.8356
10050TIP3    H254346   1.902   2.036   2.545  0.3325  0.6144 -0.1483
10051TIP3   OH254347   3.870   2.711   1.270  0.2398 -0.4607  0.0794
10051TIP3    H154348   3.949   2.766   1.268 -0.3285  0.3486 -1.3785
10051TIP3    H254349   3.864   2.682   1.361  1.7782  0.1047  0.3943
10052TIP3   OH254350   4.209   2.778   0.537  0.1711  0.0670  0.4375
10052TIP3    H154351   4.189   2.701   0.484 -0.4442 -0.1631  0.9958
10052TIP3    H254352   4.147   2.774   0.609  0.1484  1.0809  0.4816
10053TIP3   OH254353   4.864   1.610   2.361 -0.4444 -0.1824  0.9364
10053TIP3    H154354   4.844   1.703   2.372  1.3989  0.1781  1.4105
10053TIP3    H254355   4.847   1.593   2.268 -1.2663  0.4837  0.9531
10054TIP3   OH254356   4.415   3.021   1.231 -0.0487 -0.6149 -0.3983
10054TIP3    H154357   4.368   2.946   1.268 -0.5710 -0.2706 -0.3724
10054TIP3    H254358   4.466   2.983   1.159 -1.4372 -0.7717 -1.3369
10055TIP3   OH254359   6.274   1.811   2.951 -0.4472 -0.3702 -0.3009
10055TIP3    H154360   6.187   1.828   2.987  0.6073  2.3291  1.1779
10055TIP3    H254361   6.317   1.755   3.016 -1.0159 -1.7586 -1.0619
10056TIP3   OH254362   2.040   2.584   1.547  0.1099 -0.2646 -0.8604
10056TIP3    H154363   2.008   2.666   1.508  1.6194 -0.2694 -2.2323
10056TIP3    H254364   2.092   2.544   1.478  2.1778 -0.7490  0.8908
10057TIP3   OH254365   5.727   3.304   0.478  0.2941 -0.5445 -0.1516
10057TIP3    H154366   5.686   3.383   0.515  0.4218  0.9379 -2.9228
10057TIP3    H254367   5.746   3.327   0.387  2.7620 -2.9177 -0.3620
10058TIP3   OH254368   4.863   5.694   1.243 -0.3427  0.5727 -0.0751
10058TIP3    H154369   4.772   5.723   1.245 -0.7786 -0.7503  0.3203
10058TIP3    H254370   4.871   5.647   1.160  0.4362  2.0088 -0.8521
10059TIP3   OH254371   3.142   0.784   1.263  0.6042  0.4352  0.1299
10059TIP3    H154372   3.122   0.875   1.286  2.2380  0.9198 -0.2211
10059TIP3    H254373   3.078   0.732   1.311  0.3780  1.7151  1.2633
10060TIP3   OH254374   0.136   5.478   1.714  0.3669  0.0361 -0.2755
10060TIP3    H154375   0.209   5.429   1.753 -0.6772 -1.5214 -0.1935
10060TIP3    H254376   0.145   5.463   1.620 -0.9593 -1.8438 -0.1395
10061TIP3   OH254377   5.898   6.065   2.454  0.6832  0.5048  0.2455
10061TIP3    H154378   5.875   6.153   2.425  1.2290 -0.0066 -2.0125
10061TIP3    H254379   5.834   6.008   2.411 -0.1633 -0.2048  2.3087
10062TIP3   OH254380   4.212   0.254   1.753  0.0440 -0.7576  0.4087
10062TIP3    H154381   4.225   0.348   1.737  0.7857 -1.0284 -0.7321
10062TIP3    H254382   4.239   0.241   1.844  1.8967 -0.1869 -0.0127
10063TIP3   OH254383   0.336   0.002   3.021  0.3557 -0.1703  0.4325
10063TIP3    H154384   0.315  -0.091   3.027  0.5903 -0.3193 -0.7555
10063TIP3    H254385   0.388   0.010   2.941 -0.7968  1.1797 -0.2309
10064TIP3   OH254386   4.154   1.728   0.672 -0.1502  0.3081  0.5673
10064TIP3    H154387   4.081   1.745   0.613  1.9681 -1.2626 -2.8477
10064TIP3    H254388   4.119   1.666   0.736 -1.9384 -0.1691 -0.7756
10065TIP3   OH254389   0.968   5.929   0.475  0.7864  0.1439  0.2687
10065TIP3    H154390   0.886   5.944   0.522  1.1117  1.6292  0.3939
10065TIP3    H254391   0.999   6.016   0.450  1.9147 -0.4418 -0.4994
10066TIP3   OH254392   1.875   6.625   0.460  0.7935  0.4937 -0.2386
10066TIP3    H154393   1.912   6.712   0.474 -0.8020  1.6047 -2.3826
10066TIP3    H254394   1.781   6.639   0.450  0.4435 -1.5265 -0.3236
10067TIP3   OH254395   3.806   6.006   0.528 -0.3332  0.3511  0.1883
10067TIP3    H154396   3.799   5.925   0.578  1.5792  0.1109  0.1564
10067TIP3    H254397   3.770   6.073   0.586 -1.0419 -0.3781  0.6080
10068TIP3   OH254398   1.578   3.045   3.467  0.5280 -0.1565 -0.3531
10068TIP3    H154399   1.572   2.983   3.539  0.5869  1.8075  1.4460
10068TIP3    H254400   1.669   3.073   3.467  0.4142  0.2221 -0.8785
10069TIP3   OH254401   4.964   5.826   0.452  0.0397 -0.0022 -0.0642
10069TIP3    H154402   4.908   5.896   0.487 -1.3237 -1.0617 -0.0573
10069TIP3    H254403   5.020   5.871   0.388 -2.0782  0.8190 -1.4334
10070TIP3   OH254404   6.701   6.226   1.183  0.1593  0.0925  0.2088
10070TIP3    H154405   6.729   6.317   1.182  0.4920 -0.0079 -0.0101
10070TIP3    H254406   6.770   6.179   1.135 -0.2570 -0.2028 -0.1116
10071TIP3   OH254407   0.553   6.678   0.330  0.3023 -0.3105  0.1671
10071TIP3    H154408   0.606   6.690   0.252 -1.3003  0.3085 -0.8867
10071TIP3    H254409   0.478   6.626   0.300 -1.6573  2.0665  0.6040
10072TIP3   OH254410   1.660   4.353   1.893  0.1313 -0.2011 -0.2527
10072TIP3    H154411   1.643   4.416   1.963 -1.5173  0.3522 -1.0882
10072TIP3    H254412   1.720   4.397   1.834  2.4598 -1.0879  1.2962
10073TIP3   OH254413   0.717   1.553   0.559  0.0736 -0.0337 -0.7868
10073TIP3    H154414   0.649   1.502   0.604  1.7789  0.2374  2.4648
10073TIP3    H254415   0.735   1.626   0.618  3.1662 -0.1154 -1.4220
10074TIP3   OH254416   7.233   4.246   1.866 -0.6623 -0.6182  0.4983
10074TIP3    H154417   7.259   4.157   1.891  0.5655 -0.4332 -0.0402
10074TIP3    H254418   7.286   4.265   1.788 -1.0090  0.5368  0.5328
10075TIP3   OH254419   3.334   0.650   0.406  0.0818 -0.1411  0.7949
10075TIP3    H154420   3.343   0.693   0.322  0.5674 -0.9789  0.4049
10075TIP3    H254421   3.389   0.701   0.466 -1.2347  1.2043  0.9219
10076TIP3   OH254422   5.595   6.603   0.353 -0.0156 -0.2376 -0.1817
10076TIP3    H154423   5.598   6.613   0.448 -1.0377 -1.7406  0.0455
10076TIP3    H254424   5.506   6.626   0.329  1.0893  3.5045 -1.3015
10077TIP3   OH254425   5.150   4.583   1.653  0.4395 -0.1660  0.6676
10077TIP3    H154426   5.216   4.516   1.669  0.5324 -0.0128  0.9293
10077TIP3    H254427   5.080   4.564   1.715 -0.3676 -1.1238 -0.5033
10078TIP3   OH254428   2.300   3.002   2.118  0.5266  0.2405 -0.6774
10078TIP3    H154429   2.363   2.943   2.159  0.8822  0.7506 -0.4761
10078TIP3    H254430   2.266   2.953   2.044 -0.0680 -0.6625  0.1729
10079TIP3   OH254431   3.029   3.838   0.562  0.0624  0.6824  1.0892
10079TIP3    H154432   3.104   3.898   0.558 -0.2971  1.2661  2.4317
10079TIP3    H254433   2.972   3.865   0.490  2.3244 -1.5365 -1.7934
10080TIP3   OH254434   6.290   3.898   1.717  0.1588 -0.4683  0.1875
10080TIP3    H154435   6.322   3.848   1.642  0.7336 -1.0913  0.8403
10080TIP3    H254436   6.369   3.920   1.767 -0.2000  0.0975  0.5196
10081TIP3   OH254437   1.255   6.466   1.848  0.5333 -0.1436  0.4652
10081TIP3    H154438   1.181   6.408   1.832  0.9033 -0.7922  1.0574
10081TIP3    H254439   1.270   6.510   1.764  0.7661 -1.4980 -0.2237
10082TIP3   OH254440   7.374   0.129   0.729 -0.2708  0.2781 -0.2759
10082TIP3    H154441   7.282   0.145   0.747  0.0660  0.7292  1.1845
10082TIP3    H254442   7.421   0.171   0.801  1.1020  0.3248 -1.1431
10083TIP3   OH254443   1.147   3.892   1.030  0.3818 -0.2581  0.2912
10083TIP3    H154444   1.087   3.864   1.099  1.2548 -0.2774  1.0782
10083TIP3    H254445   1.091   3.928   0.962 -0.5259 -0.4590  0.9108
10084TIP3   OH254446   0.282   3.576   1.590  0.0262 -0.0771  0.0757
10084TIP3    H154447   0.284   3.554   1.497  0.2510 -0.5688  0.1944
10084TIP3    H254448   0.188   3.578   1.612 -0.0061 -1.0534  0.0870
10085TIP3   OH254449   5.032   2.717   0.604  0.4057 -0.1926  0.2840
10085TIP3    H154450   5.035   2.663   0.525  0.2010 -0.0614  0.1876
10085TIP3    H254451   5.045   2.655   0.675  0.1500 -0.3726  0.1750
10086TIP3   OH254452   5.551   5.658   2.381  0.2173 -0.4663  0.2422
10086TIP3    H154453   5.624   5.604   2.413  2.0834  2.3630  1.2560
10086TIP3    H254454   5.572   5.674   2.289  0.7250  0.0045  0.4272
10087TIP3   OH254455   1.811   6.532   1.643  0.7793 -0.1365 -0.2583
10087TIP3    H154456   1.814   6.465   1.711 -0.0989 -1.7820 -1.7380
10087TIP3    H254457   1.892   6.581   1.653  0.9818 -0.7694  1.5217
10088TIP3   OH254458   0.477   2.286   2.710  0.1203  0.1838  0.0802
10088TIP3    H154459   0.384   2.310   2.708 -0.2333 -1.1005 -0.1748
10088TIP3    H254460   0.522   2.359   2.669 -0.9704  0.0826 -1.3707
10089TIP3   OH254461   4.007   0.741   2.682 -0.4333 -0.0324 -0.7120
10089TIP3    H154462   3.997   0.672   2.748  2.0568  0.6061  0.4545
10089TIP3    H254463   3.927   0.792   2.690  0.1045  0.5745  2.6130
10090TIP3   OH254464   2.156   6.890   0.791  0.2860  0.1568  0.8398
10090TIP3    H154465   2.243   6.922   0.815  0.2755  0.6413  0.2391
10090TIP3    H254466   2.096   6.937   0.848  0.4487 -0.5541  1.6152
10091TIP3   OH254467   2.976   3.103   1.215  0.2632  0.0884  0.3319
10091TIP3    H154468   2.969   3.025   1.269 -0.6224 -1.3577 -1.7448
10091TIP3    H254469   2.947   3.174   1.271 -0.6815 -1.3373  1.7189
10092TIP3   OH254470   5.028   4.236   0.873  0.4123 -0.1940 -0.2760
10092TIP3    H154471   5.009   4.317   0.825 -3.0501 -0.0319  1.0346
10092TIP3    H254472   5.048   4.266   0.962 -1.1954 -0.7009  0.2962
10093TIP3   OH254473   0.393   3.560   0.941 -0.2362 -0.2423 -0.3395
10093TIP3    H154474   0.418   3.542   1.032 -0.4398  1.1816  0.0159
10093TIP3    H254475   0.476   3.577   0.897 -0.2502  0.5939 -0.0570
10094TIP3   OH254476   0.591   6.840   2.134  0.4037 -0.2051  0.2954
10094TIP3    H154477   0.584   6.936   2.134  1.5480 -0.0903  1.4139
10094TIP3    H254478   0.640   6.820   2.214  1.9943 -1.5722 -0.9540
10095TIP3   OH254479   5.385   1.283   1.893  0.2702 -0.2193 -0.3030
10095TIP3    H154480   5.423   1.369   1.912  1.4921 -0.7352 -0.3444
10095TIP3    H254481   5.399   1.271   1.799 -2.1783  0.5940 -0.8581
10096TIP3   OH254482   7.054   0.247   0.569  0.1421  0.0257 -0.0068
10096TIP3    H154483   7.042   0.335   0.533 -2.1997 -0.3243 -0.2085
10096TIP3    H254484   7.056   0.260   0.664 -0.4764  0.2758 -0.0260
10097TIP3   OH254485   7.025   4.972   2.563  0.6706 -0.2978 -0.4593
10097TIP3    H154486   6.975   4.959   2.643  2.2636  0.9988  0.8016
10097TIP3    H254487   7.115   4.950   2.586  1.1041 -0.2565 -1.9947
10098TIP3   OH254488   4.110   4.108   2.373  0.5694 -0.1603 -0.2700
10098TIP3    H154489   4.186   4.155   2.407  0.2541 -0.1574  0.4515
10098TIP3    H254490   4.035   4.155   2.408  0.2207 -2.1449  1.9765
10099TIP3   OH254491   7.180   1.670   3.384 -0.5431 -0.2621 -0.1785
10099TIP3    H154492   7.155   1.750   3.431 -1.7561 -0.0689 -1.0938
10099TIP3    H254493   7.114   1.606   3.409 -1.2164 -0.1596 -1.5484
10100TIP3   OH254494   6.791   6.835   0.524 -0.4117  0.1862 -0.1243
10100TIP3    H154495   6.774   6.920   0.483  1.4854  0.2221 -0.9329
10100TIP3    H254496   6.753   6.843   0.612  0.0570  2.0376 -0.0476
10101TIP3   OH254497   1.580   3.933   0.532 -0.0046 -0.7442  0.0831
10101TIP3    H154498   1.528   3.870   0.481 -1.3951 -1.2700  2.0402
10101TIP3    H254499   1.575   3.901   0.622 -0.6525  2.0904  1.1634
10102TIP3   OH254500   5.943   7.196   2.904 -0.2411  0.1451 -0.2646
10102TIP3    H154501   5.887   7.216   2.979 -0.6375  0.2944 -0.5964
10102TIP3    H254502   6.009   7.266   2.903 -2.0598  1.9420 -1.8655
10103TIP3   OH254503   4.085   4.332   1.042  0.1107 -0.0097  0.2579
10103TIP3    H154504   4.107   4.281   0.964  0.3736  0.1218  0.2436
10103TIP3    H254505   4.071   4.421   1.008 -0.8457 -0.1750  0.2111
10104TIP3   OH254506   3.329   5.150   1.585 -0.5871 -0.4056 -0.3939
10104TIP3    H154507   3.262   5.096   1.627  0.3751 -0.4600  1.1316
10104TIP3    H254508   3.335   5.228   1.640  1.5101 -0.9968  0.2844
10105TIP3   OH254509   6.803   2.295   1.226 -0.7512  0.6859  0.5812
10105TIP3    H154510   6.777   2.363   1.164  0.4420  0.6601  0.0164
10105TIP3    H254511   6.729   2.286   1.286 -1.5465  1.3726 -0.2831
10106TIP3   OH254512   6.146   4.189   2.668  0.1912 -0.3334 -0.2260
10106TIP3    H154513   6.230   4.177   2.713  0.3200  1.4388  0.0723
10106TIP3    H254514   6.091   4.234   2.732 -1.2334 -2.0169 -0.1945
10107TIP3   OH254515   1.589   3.243   3.049 -0.6169  0.4454  0.1773
10107TIP3    H154516   1.553   3.313   3.104 -1.7899  0.5429 -0.6920
10107TIP3    H254517   1.546   3.163   3.079  0.4277  0.1315  0.8999
10108TIP3   OH254518   0.876   6.099   1.745 -1.0518 -0.5271  0.3167
10108TIP3    H154519   0.914   6.036   1.807 -1.1896  0.3636  1.3427
10108TIP3    H254520   0.785   6.107   1.772 -1.8945 -2.1789 -1.7431
10109TIP3   OH254521   7.557   7.398   1.674  0.1041 -0.4021 -0.6233
10109TIP3    H154522   7.518   7.457   1.610  0.4645  0.6079  0.0582
10109TIP3    H254523   7.576   7.454   1.750 -1.9120 -1.8377  1.0674
10110TIP3   OH254524   6.900   2.085   2.524 -0.1363  0.0906 -0.2530
10110TIP3    H154525   6.925   2.122   2.439  0.1703  1.0688  0.2472
10110TIP3    H254526   6.832   2.020   2.503  0.2467  0.0041 -1.2814
10111TIP3   OH254527   1.134   5.449   2.202  0.2160 -0.1420  0.1562
10111TIP3    H154528   1.122   5.399   2.121  0.3754 -1.2057  0.7740
10111TIP3    H254529   1.228   5.443   2.219  0.1108 -0.3324  0.6755
10112TIP3   OH254530   5.119   2.845   3.395 -0.2301 -0.1272  0.6055
10112TIP3    H154531   5.025   2.828   3.385 -0.2929  0.2234  0.6102
10112TIP3    H254532   5.161   2.766   3.360 -0.5102 -0.0176 -0.0034
10113TIP3   OH254533   2.171   2.112   0.518 -0.2667  0.0033  0.4118
10113TIP3    H154534   2.107   2.174   0.483 -2.6471 -1.7021  1.5070
10113TIP3    H254535   2.190   2.144   0.606 -0.1747  0.1224  0.3481
10114TIP3   OH254536   4.898   1.164   2.851 -0.1323 -0.2210 -0.3733
10114TIP3    H154537   4.974   1.145   2.907 -0.9339  0.0418  0.8340
10114TIP3    H254538   4.838   1.091   2.865 -0.4402 -0.0394 -0.7191
10115TIP3   OH254539   7.399   0.832   0.704  0.3055 -0.2978  0.3197
10115TIP3    H154540   7.312   0.798   0.681 -0.4587  0.5953  1.7300
10115TIP3    H254541   7.393   0.852   0.798  0.8771  3.0327 -0.2297
10116TIP3   OH254542   1.921   1.940   3.269  0.1767 -0.6543  0.0944
10116TIP3    H154543   1.827   1.946   3.252  0.6419  0.8627 -2.4006
10116TIP3    H254544   1.956   2.025   3.243  2.5532 -1.9271 -1.2586
10117TIP3   OH254545   5.344   4.306   3.215 -0.7462  0.1342  0.3252
10117TIP3    H154546   5.349   4.223   3.262 -0.9199  0.0194  0.1464
10117TIP3    H254547   5.251   4.315   3.191 -0.6572  0.1674 -0.0245
10118TIP3   OH254548   7.103   5.238   3.147  0.2162 -0.2868 -0.0851
10118TIP3    H154549   7.145   5.257   3.063 -0.9761 -2.0097 -1.1519
10118TIP3    H254550   7.009   5.235   3.126 -0.0372 -1.6323  1.1049
10119TIP3   OH254551   1.566   1.952   2.358  0.1877  0.0315 -0.0397
10119TIP3    H154552   1.566   1.856   2.356 -1.6919  0.0122 -0.2325
10119TIP3    H254553   1.512   1.975   2.433  0.8818  0.9590  0.1965
10120TIP3   OH254554   4.652   3.505   3.046  0.1432  0.0508 -0.4864
10120TIP3    H154555   4.592   3.512   2.971  1.1752 -0.4764 -1.3966
10120TIP3    H254556   4.652   3.593   3.084  0.1034  0.5343 -1.5392
10121TIP3   OH254557   5.858   6.330   2.348 -0.4252  0.1592  0.1251
10121TIP3    H154558   5.789   6.300   2.288  0.2467  1.7631 -1.5481
10121TIP3    H254559   5.812   6.376   2.418 -1.0991  1.5159 -1.1549
10122TIP3   OH254560   0.569   3.674   2.292  0.1973  0.8162 -0.4700
10122TIP3    H154561   0.635   3.714   2.236  1.4795 -0.0803  0.3604
10122TIP3    H254562   0.567   3.729   2.371 -0.2044  0.9479 -0.5660
10123TIP3   OH254563   6.942   6.763   2.062  0.1372  0.1767 -0.3579
10123TIP3    H154564   6.931   6.689   2.121 -0.7379  1.2427  0.8882
10123TIP3    H254565   6.856   6.774   2.022  0.3740  0.2722 -0.8440
10124TIP3   OH254566   4.509   5.586   3.149 -0.0587 -0.0789  0.1842
10124TIP3    H154567   4.517   5.514   3.211  0.9698 -0.5696 -0.4934
10124TIP3    H254568   4.528   5.547   3.064 -0.4508  0.7904 -0.3130
10125TIP3   OH254569   7.300   2.466   1.490  0.3509  0.3687  0.0619
10125TIP3    H154570   7.260   2.502   1.411  0.4310 -1.3278 -0.7772
10125TIP3    H254571   7.293   2.537   1.554 -1.2725  1.1798 -0.9427
10126TIP3   OH254572   6.363   4.714   1.347  0.9946  0.1443 -0.1071
10126TIP3    H154573   6.391   4.636   1.395 -0.1166 -0.9710 -1.1883
10126TIP3    H254574   6.380   4.786   1.407  1.4712 -0.9855  1.1767
10127TIP3   OH254575   5.917   0.111   0.982  0.1868  0.6046  0.0919
10127TIP3    H154576   5.831   0.147   0.963 -0.7544 -1.2679  0.6184
10127TIP3    H254577   5.949   0.079   0.898 -0.0218  0.5043  0.0501
10128TIP3   OH254578   2.085   0.936   2.482  0.1243 -0.4069 -0.2524
10128TIP3    H154579   2.143   0.927   2.557  0.9203 -0.0044 -0.8107
10128TIP3    H254580   2.091   0.852   2.437 -1.0578 -0.9867  0.6036
10129TIP3   OH254581   2.754   1.121   1.900 -0.0884  0.1036 -0.1834
10129TIP3    H154582   2.666   1.154   1.880 -0.8163 -2.0602 -0.8320
10129TIP3    H254583   2.796   1.111   1.815  0.0833 -0.6436 -0.0198
10130TIP3   OH254584   1.887   1.879   0.734 -0.2403  0.3826 -0.4596
10130TIP3    H154585   1.889   1.903   0.827 -0.4461  1.0228 -0.6146
10130TIP3    H254586   1.979   1.864   0.712 -0.3684 -2.1459  0.4246
10131TIP3   OH254587   3.959   2.728   2.766 -0.4716  0.8774 -0.6300
10131TIP3    H154588   4.030   2.759   2.710 -0.0495  0.8644 -0.1018
10131TIP3    H254589   3.995   2.730   2.854 -1.1719  1.0111 -0.3401
10132TIP3   OH254590   6.328   3.612   1.775 -0.5645 -0.1597  0.0772
10132TIP3    H154591   6.356   3.647   1.690 -0.1166 -3.9383 -1.5395
10132TIP3    H254592   6.407   3.612   1.828 -0.9189  2.5569  0.7588
10133TIP3   OH254593   3.948   3.742   0.772 -0.3002 -0.6154 -0.3719
10133TIP3    H154594   3.944   3.810   0.839 -0.8861  0.6964 -1.6807
10133TIP3    H254595   3.933   3.661   0.820 -2.3356  0.4107  0.8928
10134TIP3   OH254596   6.125   4.980   3.021  0.3543 -0.0821 -0.0567
10134TIP3    H154597   6.204   4.927   3.031  0.7110  0.3704 -0.4337
10134TIP3    H254598   6.053   4.920   3.041  0.8411 -0.1857  1.4524
10135TIP3   OH254599   0.106   0.305   2.245  0.3380 -0.5558  0.5864
10135TIP3    H154600   0.169   0.243   2.208  0.4767 -0.0625 -0.0062
10135TIP3    H254601   0.158   0.382   2.268  0.2129 -0.7511  1.5858
10136TIP3   OH254602   5.943   6.276   2.887  0.0076 -0.1502  0.8000
10136TIP3    H154603   5.882   6.310   2.952  1.1076  0.5429  1.5052
10136TIP3    H254604   5.946   6.344   2.819  1.6732  0.8897  1.8667
10137TIP3   OH254605   0.688   2.387   2.398  0.1055 -0.1373  0.2572
10137TIP3    H154606   0.779   2.378   2.429  0.8578  1.6862 -1.1946
10137TIP3    H254607   0.644   2.433   2.469  1.0751  1.4671 -0.1253
10138TIP3   OH254608   6.661   6.501   1.639  0.2523 -0.2604 -0.2245
10138TIP3    H154609   6.634   6.538   1.722 -0.4268  0.2684 -0.6748
10138TIP3    H254610   6.700   6.416   1.662 -1.1820 -0.7591  0.5150
10139TIP3   OH254611   5.465   4.277   2.317  0.3209 -0.2012 -0.0982
10139TIP3    H154612   5.410   4.235   2.251  1.6769 -0.0777 -1.3672
10139TIP3    H254613   5.551   4.235   2.307  0.9328  0.8410  0.5964
10140TIP3   OH254614   1.514   3.406   1.664 -0.2031  0.3261 -0.4449
10140TIP3    H154615   1.562   3.330   1.632 -0.9646 -0.3286 -0.0538
10140TIP3    H254616   1.524   3.471   1.595 -1.0995 -0.7589 -1.6424
10141TIP3   OH254617   2.427   1.893   2.477  0.4563 -0.2884 -0.0679
10141TIP3    H154618   2.395   1.932   2.395  1.7590 -0.5695 -0.7324
10141TIP3    H254619   2.468   1.965   2.524 -1.2494  0.1249  0.8955
10142TIP3   OH254620   2.133   4.243   0.735  0.1635  0.1816 -0.1882
10142TIP3    H154621   2.177   4.161   0.754 -1.4769 -0.7737 -0.3123
10142TIP3    H254622   2.159   4.302   0.807  2.1158 -0.0878 -0.6182
10143TIP3   OH254623   6.281   6.717   0.676 -0.2140 -0.5809 -1.0919
10143TIP3    H154624   6.363   6.697   0.721 -0.2038  0.0819 -0.7961
10143TIP3    H254625   6.241   6.632   0.659  0.8832 -0.9653 -1.9135
10144TIP3   OH254626   6.949   3.960   2.402  0.3742 -0.4740 -0.1222
10144TIP3    H154627   6.907   4.001   2.327 -0.1763  0.4039  0.6438
10144TIP3    H254628   6.891   3.887   2.425  1.4815 -1.8981 -1.6366
10145TIP3   OH254629   1.246   2.255   1.290  0.4307 -0.0600  0.0885
10145TIP3    H154630   1.301   2.306   1.230 -0.0229 -0.4638 -0.6968
10145TIP3    H254631   1.229   2.174   1.243 -0.5509 -0.0847  0.4557
10146TIP3   OH254632   5.268   7.178   1.238  0.5684  0.0561 -0.3335
10146TIP3    H154633   5.173   7.174   1.228  0.5086 -0.1499  0.3026
10146TIP3    H254634   5.283   7.189   1.332  1.2004 -1.0422 -0.2862
10147TIP3   OH254635   2.413   1.050   1.912  0.0643  0.2549 -0.2230
10147TIP3    H154636   2.409   1.081   2.003 -2.8277 -0.2899 -0.0749
10147TIP3    H254637   2.430   1.129   1.861 -1.5670  1.1831  0.5799
10148TIP3   OH254638   3.190   4.214   0.458 -0.2401 -0.6741  0.2430
10148TIP3    H154639   3.228   4.128   0.442  0.3673 -0.2206 -0.8914
10148TIP3    H254640   3.113   4.217   0.402 -0.6757 -0.7531  0.8378
10149TIP3   OH254641   4.156   2.166   2.115  0.4055  0.0576 -0.4820
10149TIP3    H154642   4.182   2.146   2.025 -0.6973 -1.1309 -0.5688
10149TIP3    H254643   4.173   2.085   2.164 -1.7030 -0.2974 -0.2582
10150TIP3   OH254644   5.449   1.224   2.607  0.0416  0.2144 -0.0255
10150TIP3    H154645   5.545   1.231   2.605  0.0387  0.2804 -2.1099
10150TIP3    H254646   5.425   1.257   2.694  1.8987  0.0653  0.6092
10151TIP3   OH254647   3.120   6.096   1.300  0.4557  1.0788 -0.3348
10151TIP3    H154648   3.096   6.015   1.256  0.2009 -0.5091  2.5365
10151TIP3    H254649   3.046   6.155   1.284 -1.1976 -0.6232  0.7539
10152TIP3   OH254650   3.372   2.767   0.402 -0.0696  0.3897 -0.0773
10152TIP3    H154651   3.454   2.719   0.415 -0.7649 -0.4020  1.6578
10152TIP3    H254652   3.380   2.843   0.460 -0.4017  0.5265 -0.2083
10153TIP3   OH254653   4.203   1.373   0.672  0.6757 -0.1953  0.2352
10153TIP3    H154654   4.272   1.419   0.623 -0.6403  0.8441 -0.7457
10153TIP3    H254655   4.172   1.438   0.735  2.4637 -1.5793  2.6737
10154TIP3   OH254656   5.460   1.483   1.238 -0.1889 -0.6765 -0.0160
10154TIP3    H154657   5.512   1.409   1.267  0.6621  0.3902  1.3266
10154TIP3    H254658   5.517   1.559   1.249 -0.7081  0.1293 -2.1764
10155TIP3   OH254659   2.103   1.941   1.416  0.2407 -0.3495  0.2298
10155TIP3    H154660   2.086   1.928   1.509  1.1319 -0.3803  0.3958
10155TIP3    H254661   2.193   1.912   1.404  0.3290  0.2229 -0.5289
10156TIP3   OH254662   6.224   6.398   1.633 -0.7171 -0.2818  0.4554
10156TIP3    H154663   6.173   6.382   1.713 -2.3117 -0.2094 -0.5074
10156TIP3    H254664   6.192   6.331   1.572  0.9412 -0.7398  0.0575
10157TIP3   OH254665   1.067   4.057   2.100  0.0299  1.4152  0.2350
10157TIP3    H154666   0.982   4.026   2.069  1.9628 -3.5890 -1.1313
10157TIP3    H254667   1.112   4.087   2.021  1.0611 -0.5962 -0.0141
10158TIP3   OH254668   0.678   6.564   1.806 -0.3725 -0.0645  0.1940
10158TIP3    H154669   0.694   6.471   1.789  0.6400  0.3409 -1.3493
10158TIP3    H254670   0.687   6.573   1.901 -0.3461 -1.5156  0.3552
10159TIP3   OH254671   6.509   4.022   0.956  0.2280 -0.4664 -0.2612
10159TIP3    H154672   6.570   3.950   0.974  1.3554  0.5393  0.0218
10159TIP3    H254673   6.563   4.101   0.960 -1.3595  0.6060  1.4227
10160TIP3   OH254674   5.452   6.455   3.080 -0.3935  0.3657 -0.3599
10160TIP3    H154675   5.451   6.515   3.154  0.5340  0.3430 -0.3209
10160TIP3    H254676   5.468   6.369   3.118  1.3693  0.5245 -0.6780
10161TIP3   OH254677   2.322   0.295   1.730 -0.5425 -0.3533 -0.0623
10161TIP3    H154678   2.357   0.351   1.799 -0.4761  0.0959 -0.4554
10161TIP3    H254679   2.376   0.315   1.653 -0.1731 -1.3496 -0.0677
10162TIP3   OH254680   5.291   5.370   1.708  0.2403 -0.5021 -0.0377
10162TIP3    H154681   5.251   5.285   1.686 -0.8337  0.3837 -1.7839
10162TIP3    H254682   5.375   5.369   1.663 -0.1998 -0.2890 -0.8935
10163TIP3   OH254683   0.137   4.516   2.010 -0.1088  0.2908  0.0586
10163TIP3    H154684   0.118   4.605   1.980 -0.0880  0.8901  1.7296
10163TIP3    H254685   0.183   4.475   1.936  0.1922  1.7710 -0.6105
10164TIP3   OH254686   5.843   2.528   0.820  0.3353 -0.2054 -0.4788
10164TIP3    H154687   5.801   2.516   0.905  0.4192 -3.0473 -0.7335
10164TIP3    H254688   5.923   2.474   0.825  0.7954  0.2701 -2.0507
10165TIP3   OH254689   3.742   7.376   0.901  0.1838  0.3843 -0.3441
10165TIP3    H154690   3.692   7.298   0.924 -2.0638  1.4488 -1.2974
10165TIP3    H254691   3.676   7.439   0.873  1.9709  2.4710 -0.1000
10166TIP3   OH254692   5.008   4.588   0.581  0.6896  0.5107  0.0061
10166TIP3    H154693   4.981   4.524   0.648  2.0559  0.3097  0.3923
10166TIP3    H254694   5.065   4.538   0.523  0.2409  0.9210 -0.8057
10167TIP3   OH254695   6.951   2.327   2.387 -0.0760  0.3001 -0.3428
10167TIP3    H154696   6.883   2.301   2.325 -0.5622  2.1162 -0.6285
10167TIP3    H254697   7.005   2.389   2.338 -0.0390  1.2104  0.8249
10168TIP3   OH254698   6.308   1.524   1.003 -0.5302  0.3286  0.0349
10168TIP3    H154699   6.340   1.494   0.917  1.9209  0.4832  0.8059
10168TIP3    H254700   6.289   1.443   1.050  0.2796  0.1472  0.0750
10169TIP3   OH254701   5.996   5.862   0.787  0.7792  0.4371 -0.1137
10169TIP3    H154702   5.908   5.875   0.754  0.8315  3.5011  0.6961
10169TIP3    H254703   5.984   5.833   0.878  0.6877 -2.0148 -0.8265
10170TIP3   OH254704   5.868   5.821   1.951 -0.5651  0.2034  0.4165
10170TIP3    H154705   5.925   5.747   1.972  0.0443  0.6281  0.2696
10170TIP3    H254706   5.895   5.849   1.864 -1.0782  0.3383  0.2961
10171TIP3   OH254707   4.842   7.395   3.479  0.1611 -0.0355 -0.5309
10171TIP3    H154708   4.812   7.331   3.544 -0.0800  0.6336  0.0305
10171TIP3    H254709   4.770   7.399   3.416  0.8558 -1.5069 -1.4839
10172TIP3   OH254710   5.640   4.473   1.788  0.2547  0.1822  0.0871
10172TIP3    H154711   5.637   4.569   1.789  0.1764  0.2023  2.0707
10172TIP3    H254712   5.585   4.448   1.714 -1.2145  1.6485  0.6262
10173TIP3   OH254713   6.212   4.598   1.123  0.3399  0.1026 -0.1724
10173TIP3    H154714   6.269   4.606   1.046 -0.7546 -1.0655 -1.1481
10173TIP3    H254715   6.253   4.653   1.189  0.6647  2.1449 -1.9662
10174TIP3   OH254716   6.797   4.302   2.871  0.5361  0.2479 -0.4720
10174TIP3    H154717   6.794   4.217   2.916 -0.8041 -0.3633 -1.6181
10174TIP3    H254718   6.754   4.362   2.932  0.4194 -0.1689 -0.1356
10175TIP3   OH254719   1.783   7.193   1.691 -0.0999  0.5060 -0.3580
10175TIP3    H154720   1.864   7.205   1.740 -0.0132  1.6919 -0.7766
10175TIP3    H254721   1.714   7.191   1.757  0.1982  0.0874 -0.0506
10176TIP3   OH254722   6.102   3.735   1.380 -0.1658 -0.0229 -0.4680
10176TIP3    H154723   6.069   3.824   1.370 -0.0423  0.0704 -0.0628
10176TIP3    H254724   6.068   3.688   1.304 -1.1776  0.0838 -0.0936
10177TIP3   OH254725   6.163   7.510   3.168  0.3493 -0.9351 -0.0680
10177TIP3    H154726   6.177   7.589   3.221  1.5350 -0.8929 -0.4218
10177TIP3    H254727   6.102   7.457   3.220  1.1096 -0.6774  1.1383
10178TIP3   OH254728   1.699   4.106   1.754  0.0308 -0.0604  0.0839
10178TIP3    H154729   1.791   4.091   1.776 -0.5170 -0.9286  2.0512
10178TIP3    H254730   1.682   4.196   1.782 -0.0250 -0.3252  0.9207
10179TIP3   OH254731   4.321   6.888   2.658 -0.3805  0.5349 -0.2348
10179TIP3    H154732   4.276   6.852   2.734 -0.6940  0.9467 -0.2171
10179TIP3    H254733   4.270   6.858   2.583 -0.1654  0.2637 -0.2741
10180TIP3   OH254734   1.965   4.121   1.908  0.2232 -0.1739 -0.3523
10180TIP3    H154735   2.014   4.082   1.836 -1.9790 -0.4922 -1.7755
10180TIP3    H254736   1.930   4.047   1.957 -0.0217  0.0367 -0.2023
10181TIP3   OH254737   5.100   0.635   1.029  0.1592  0.5240 -0.0508
10181TIP3    H154738   5.138   0.655   0.943  0.1539  1.1852  0.0969
10181TIP3    H254739   5.146   0.694   1.089  0.1694  0.0579  0.4056
10182TIP3   OH254740   1.496   0.056   1.218  0.3747 -0.0464 -0.1250
10182TIP3    H154741   1.413   0.057   1.266  1.0612  1.2717  1.0913
10182TIP3    H254742   1.497  -0.029   1.174 -1.3987 -0.2767  0.2196
10183TIP3   OH254743   5.456   5.329   2.058  0.1108 -0.1522 -0.0912
10183TIP3    H154744   5.487   5.350   1.970  0.2996  0.0242  0.0183
10183TIP3    H254745   5.384   5.268   2.044 -1.4952  1.7491 -0.4932
10184TIP3   OH254746   5.088   2.394   1.620  0.3158 -0.4334  0.1457
10184TIP3    H154747   5.168   2.342   1.616  0.4759 -0.1508 -2.4239
10184TIP3    H254748   5.100   2.461   1.552 -2.4577 -0.9607 -1.0052
10185TIP3   OH254749   0.788   7.540   2.327 -0.4848 -0.4703  0.1468
10185TIP3    H154750   0.736   7.476   2.279  0.7410 -0.6944 -0.9303
10185TIP3    H254751   0.750   7.539   2.415 -0.9376 -2.1901 -0.0162
10186TIP3   OH254752   4.088   4.479   2.518  0.1986  0.2184  0.3874
10186TIP3    H154753   4.171   4.447   2.481  0.1651 -1.5102  1.6829
10186TIP3    H254754   4.033   4.401   2.525 -2.0077  1.4726 -1.4043
10187TIP3   OH254755   6.944   4.862   2.311  0.6304  0.0501  0.0458
10187TIP3    H154756   7.026   4.813   2.313 -0.2934 -1.5473  1.0560
10187TIP3    H254757   6.934   4.895   2.401 -1.5423 -2.8834  1.0172
10188TIP3   OH254758   0.958   1.034   1.215  0.2741 -0.2167  0.3727
10188TIP3    H154759   0.919   1.106   1.165 -2.0241 -1.2753  0.5133
10188TIP3    H254760   0.893   1.013   1.282  1.6837 -1.2560  1.4800
10189TIP3   OH254761   2.038   6.279   2.054  0.0533 -0.0015 -0.4254
10189TIP3    H154762   2.132   6.288   2.069 -0.1268  1.5564 -0.0321
10189TIP3    H254763   2.000   6.360   2.089 -1.4659 -0.7052 -0.3555
10190TIP3   OH254764   6.761   2.887   1.160  0.0764  0.9370  0.0268
10190TIP3    H154765   6.765   2.930   1.074  1.0081  2.6647  0.8893
10190TIP3    H254766   6.681   2.921   1.200 -1.8974 -1.9621 -1.1332
10191TIP3   OH254767   0.883   4.531   2.607 -0.0976  0.0632  0.7643
10191TIP3    H154768   0.850   4.575   2.528 -0.1970  1.5100  1.5815
10191TIP3    H254769   0.804   4.505   2.654 -0.1404  2.0517  1.9087
10192TIP3   OH254770   6.471   6.239   1.840  0.2875  0.1412  0.3564
10192TIP3    H154771   6.386   6.221   1.880 -0.5636 -0.2374 -1.5466
10192TIP3    H254772   6.481   6.334   1.846 -0.6573  0.2751 -0.1533
10193TIP3   OH254773   7.519   2.457   1.044  0.2264 -0.1328  0.2149
10193TIP3    H154774   7.431   2.490   1.026  0.0133 -0.7879  0.0308
10193TIP3    H254775   7.518   2.366   1.014  1.1274  0.0025 -0.2832
10194TIP3   OH254776   3.224   0.455   1.461 -0.5705 -0.1239 -0.2068
10194TIP3    H154777   3.177   0.372   1.453  0.6796 -0.9600  0.8738
10194TIP3    H254778   3.154   0.520   1.475 -1.5469 -0.9988 -0.8573
10195TIP3   OH254779   4.003   0.026   2.443 -0.2354 -0.2575  0.0865
10195TIP3    H154780   3.949  -0.031   2.498 -0.1092  0.1890  0.6849
10195TIP3    H254781   3.981   0.001   2.353 -2.0971  0.5226  0.2826
10196TIP3   OH254782   2.120   1.243   2.981 -0.1166  0.1673  0.0574
10196TIP3    H154783   2.129   1.152   2.952  0.1849  0.7881 -1.9601
10196TIP3    H254784   2.028   1.250   3.007 -0.2548 -0.6010 -0.1785
10197TIP3   OH254785   4.967   3.705   0.884  0.0888  0.1845  0.3220
10197TIP3    H154786   5.010   3.784   0.919 -0.8022  0.6494  0.3813
10197TIP3    H254787   5.030   3.635   0.902  0.9976  0.9051  0.0669
10198TIP3   OH254788   3.612   3.388   0.767  0.5336  0.7861 -0.4699
10198TIP3    H154789   3.666   3.317   0.802 -1.3489 -0.4703  0.0569
10198TIP3    H254790   3.598   3.446   0.842 -0.2202  0.2131 -0.1596
10199TIP3   OH254791   3.064   1.197   2.253  0.4086  0.3797  0.4130
10199TIP3    H154792   2.969   1.207   2.249  0.2905 -0.1441  1.4823
10199TIP3    H254793   3.098   1.286   2.247 -0.1686  0.5971  0.3527
10200TIP3   OH254794   0.853   4.448   1.363 -0.3241  0.4483  0.0212
10200TIP3    H154795   0.894   4.505   1.428 -0.1454  1.2265 -0.7516
10200TIP3    H254796   0.907   4.458   1.285 -1.0625  0.2438 -0.5262
10201TIP3   OH254797   0.645   2.841   2.125  0.2439  0.1276 -0.0952
10201TIP3    H154798   0.660   2.754   2.089  1.9146 -0.1814  1.2269
10201TIP3    H254799   0.707   2.848   2.197  0.5523  2.6452 -0.5220
10202TIP3   OH254800   1.139   3.278   2.779 -0.0056 -0.4965 -0.0802
10202TIP3    H154801   1.218   3.332   2.774  0.5292 -1.3238 -1.0437
10202TIP3    H254802   1.154   3.221   2.855  1.3463 -2.1372 -1.5029
10203TIP3   OH254803   0.329   2.227   0.794 -0.1132 -0.3327 -0.1499
10203TIP3    H154804   0.318   2.157   0.858  1.5500 -1.6797 -1.2635
10203TIP3    H254805   0.348   2.305   0.847  1.0569 -1.3729  1.0383
10204TIP3   OH254806   5.474   3.492   1.525 -0.2276  0.1857 -0.4615
10204TIP3    H154807   5.527   3.523   1.452  1.0517  0.0645  0.3736
10204TIP3    H254808   5.525   3.516   1.603  0.0688 -2.5490  0.2933
10205TIP3   OH254809   4.663   7.354   2.184  0.6573  0.2361  0.9669
10205TIP3    H154810   4.569   7.338   2.194  0.3538 -0.3633 -1.9387
10205TIP3    H254811   4.676   7.440   2.223 -1.3941  0.9134  0.3274
10206TIP3   OH254812   2.100   7.251   0.995  0.5686  0.3571  0.2420
10206TIP3    H154813   2.005   7.263   1.001  0.3846 -1.2409  0.8676
10206TIP3    H254814   2.120   7.182   1.058  2.1949  0.8579  0.3225
10207TIP3   OH254815   2.140   1.815   0.991 -0.0545  0.0994  0.2743
10207TIP3    H154816   2.153   1.721   0.982  0.9632 -0.0383  2.4419
10207TIP3    H254817   2.045   1.826   0.998 -0.5631 -0.2398 -3.8985
10208TIP3   OH254818   5.292   6.153   2.452  0.3792 -0.6990  0.0937
10208TIP3    H154819   5.342   6.128   2.374  0.9722 -1.5831  0.7396
10208TIP3    H254820   5.209   6.187   2.418  0.2584 -1.9112 -0.8982
10209TIP3   OH254821   1.691   4.507   1.653 -0.0048  0.2108  0.2594
10209TIP3    H154822   1.645   4.575   1.604 -0.7878 -1.0959 -0.8918
10209TIP3    H254823   1.774   4.496   1.607 -0.4197 -0.4814 -0.3513
10210TIP3   OH254824   5.098   6.103   1.791 -0.0191  0.6116  0.6238
10210TIP3    H154825   5.128   6.116   1.881 -0.2912 -0.4798  0.8945
10210TIP3    H254826   5.009   6.070   1.801  0.5853 -1.3358  0.0588
10211TIP3   OH254827   2.967   5.441   1.062  0.1165  0.4033  0.6552
10211TIP3    H154828   2.894   5.498   1.040 -1.0558  0.1051  3.3908
10211TIP3    H254829   3.032   5.456   0.993 -1.5156  2.5008 -0.5004
10212TIP3   OH254830   6.542   2.893   3.178  0.0129  0.0904 -0.1566
10212TIP3    H154831   6.475   2.837   3.139  1.5398 -0.4242 -2.1791
10212TIP3    H254832   6.586   2.933   3.104  2.7538 -0.5451  1.0051
10213TIP3   OH254833   1.258   2.564   1.026  0.3266 -0.0161  0.2450
10213TIP3    H154834   1.258   2.604   1.112 -0.2855  1.6853 -0.4955
10213TIP3    H254835   1.351   2.558   1.002  0.4712  0.0335  0.7872
10214TIP3   OH254836   0.544   5.793   1.114 -0.0413 -0.1221  0.1301
10214TIP3    H154837   0.588   5.823   1.193 -1.9824  1.7614  0.5929
10214TIP3    H254838   0.475   5.734   1.145 -0.0310 -0.3437 -0.2581
10215TIP3   OH254839   4.301   6.197   1.030 -0.1892  0.5774 -0.3254
10215TIP3    H154840   4.270   6.126   0.973 -1.5014  1.9359 -1.3918
10215TIP3    H254841   4.221   6.245   1.053  0.3674  0.3777  2.3130
10216TIP3   OH254842   2.261   3.863   0.552 -0.3002 -0.8654 -0.0670
10216TIP3    H154843   2.295   3.932   0.494  0.1269 -1.2711 -0.3000
10216TIP3    H254844   2.167   3.862   0.535 -0.9164  1.9466  2.3268
10217TIP3   OH254845   1.175   5.714   1.993 -0.0478 -0.2038  0.1796
10217TIP3    H154846   1.186   5.786   2.055  1.1643 -0.5420  0.3729
10217TIP3    H254847   1.138   5.643   2.045 -1.3710  0.2801 -0.0380
10218TIP3   OH254848   3.758   0.421   1.737 -0.1896 -0.2355 -0.1793
10218TIP3    H154849   3.796   0.337   1.714 -0.5555  0.2069 -2.6527
10218TIP3    H254850   3.747   0.466   1.653  0.3555  2.4488  1.1030
10219TIP3   OH254851   6.722   1.443   2.541 -0.1068  0.3260  0.0472
10219TIP3    H154852   6.696   1.382   2.610 -0.9118  1.0901  0.4376
10219TIP3    H254853   6.800   1.403   2.502  0.1147 -0.3252  1.1157
10220TIP3   OH254854   3.009   0.124   0.506 -0.0900  0.7992  0.1762
10220TIP3    H154855   2.932   0.090   0.460 -1.4066  1.8059  1.5472
10220TIP3    H254856   3.080   0.118   0.441 -1.6163  1.1435 -1.6208
10221TIP3   OH254857   3.051   4.371   2.112  0.0476 -0.2096 -0.2779
10221TIP3    H154858   3.118   4.369   2.043 -0.9779  0.3031 -1.3369
10221TIP3    H254859   3.066   4.292   2.163  2.1539  0.4527  0.2092
10222TIP3   OH254860   0.857   3.594   3.191 -0.3712  0.2332 -0.4122
10222TIP3    H154861   0.859   3.502   3.163 -0.8681 -0.5690  1.9923
10222TIP3    H254862   0.948   3.624   3.182  0.2196 -1.1391  0.7154
10223TIP3   OH254863   2.402   6.891   1.524  0.3306  0.7444  0.2351
10223TIP3    H154864   2.314   6.858   1.507 -0.2696  1.5033  1.6658
10223TIP3    H254865   2.457   6.850   1.457 -0.6193 -1.8978  0.9557
10224TIP3   OH254866   5.566   2.063   2.265  0.4811  0.4674  0.2448
10224TIP3    H154867   5.511   2.134   2.231 -1.0216 -0.9390 -0.4304
10224TIP3    H254868   5.549   2.062   2.359  1.3723  1.6744  0.4391
10225TIP3   OH254869   2.755   7.130   2.374  0.0688  0.0297 -0.1706
10225TIP3    H154870   2.809   7.172   2.441  1.9155 -1.0354 -0.9295
10225TIP3    H254871   2.724   7.050   2.416  0.4878 -0.1954 -0.2868
10226TIP3   OH254872   0.001   2.021   2.595 -0.1102  0.1150  0.4765
10226TIP3    H154873  -0.073   2.040   2.539  1.2112 -0.1063 -1.4316
10226TIP3    H254874   0.059   1.967   2.541  1.2783 -0.0134  2.0145
10227TIP3   OH254875   6.043   2.523   2.599 -0.2258 -0.2214  0.4737
10227TIP3    H154876   6.091   2.459   2.545 -0.3718  0.3591 -0.3514
10227TIP3    H254877   5.951   2.503   2.583 -0.2727  0.3848 -0.0127
10228TIP3   OH254878   1.624   3.591   0.769 -0.0779  0.4262  0.2167
10228TIP3    H154879   1.586   3.574   0.683 -1.6539  0.6401  0.8366
10228TIP3    H254880   1.611   3.685   0.783 -0.0685  0.3435  0.7955
10229TIP3   OH254881   4.232   0.507   2.282 -0.1622 -0.1925  0.3659
10229TIP3    H154882   4.254   0.419   2.315 -1.2809 -1.5179 -2.1798
10229TIP3    H254883   4.151   0.530   2.328 -1.2884 -1.6712 -0.7819
10230TIP3   OH254884   3.412   1.338   2.196  0.2387 -0.1171 -0.7505
10230TIP3    H154885   3.372   1.309   2.114 -2.1830  0.4990  0.1445
10230TIP3    H254886   3.364   1.417   2.219  0.9536 -0.2142  1.2091
10231TIP3   OH254887   3.016   3.256   1.000 -0.1678 -0.4737 -0.2672
10231TIP3    H154888   2.983   3.214   1.080  0.2877  0.5660  0.4843
10231TIP3    H254889   3.111   3.249   1.007 -0.1063 -2.7397 -2.0332
10232TIP3   OH254890   0.185   5.485   0.990 -0.5298  0.3085  0.0806
10232TIP3    H154891   0.178   5.440   0.906 -0.6489 -1.6915  1.0842
10232TIP3    H254892   0.096   5.513   1.010 -0.6643 -0.0015 -0.0772
10233TIP3   OH254893   3.637   2.145   1.011  0.7024  0.2957  0.1395
10233TIP3    H154894   3.658   2.210   1.078  1.1316 -1.5237  1.8690
10233TIP3    H254895   3.546   2.163   0.988  1.2488  2.4366 -0.5930
10234TIP3   OH254896   6.775   7.383   0.706  0.2052 -0.2613  0.2260
10234TIP3    H154897   6.704   7.325   0.682  0.5245 -0.2170 -0.8696
10234TIP3    H254898   6.839   7.374   0.636  1.4664 -0.5875  1.3641
10235TIP3   OH254899   5.872   1.925   2.666 -0.1102 -0.1587 -0.1920
10235TIP3    H154900   5.808   1.862   2.700  1.4686 -0.3590  2.7992
10235TIP3    H254901   5.823   2.005   2.652 -1.2820 -0.7165  0.5849
10236TIP3   OH254902   2.161   1.886   0.678  0.8721 -0.6404 -0.5417
10236TIP3    H154903   2.170   1.955   0.612  0.6177 -0.2132 -0.1303
10236TIP3    H254904   2.250   1.855   0.692  0.8721 -1.1343 -1.5040
10237TIP3   OH254905   3.275   3.959   1.642 -0.0464 -0.5936  0.7818
10237TIP3    H154906   3.275   3.980   1.735  0.8620  2.9057  0.1018
10237TIP3    H254907   3.187   3.982   1.612  0.1364 -0.2968  0.4782
10238TIP3   OH254908   1.113   5.639   0.938 -0.2400  0.0950  0.6172
10238TIP3    H154909   1.160   5.649   1.020 -0.1943 -0.1787  0.6244
10238TIP3    H254910   1.140   5.553   0.904 -1.0959 -0.2791  0.8542
10239TIP3   OH254911   2.584   1.151   1.086 -0.3644 -0.3451  0.3997
10239TIP3    H154912   2.513   1.159   1.022  0.3976  0.8970 -0.3469
10239TIP3    H254913   2.622   1.064   1.068 -0.8492 -0.4625 -0.0988
10240TIP3   OH254914   0.863   1.256   1.442 -0.6971 -0.7085 -0.5177
10240TIP3    H154915   0.809   1.285   1.367  0.3973  0.6075 -0.8291
10240TIP3    H254916   0.907   1.335   1.471 -1.0993 -1.2045  1.5663
10241TIP3   OH254917   6.975   7.206   2.707 -0.3365 -0.3428  0.0725
10241TIP3    H154918   6.924   7.251   2.640  0.2503 -0.4862 -0.4775
10241TIP3    H254919   6.994   7.120   2.670  1.6683  0.2681 -0.4249
10242TIP3   OH254920   4.338   3.803   2.196  0.1501  0.0372  0.1282
10242TIP3    H154921   4.378   3.856   2.265 -1.4636 -0.7885  1.7919
10242TIP3    H254922   4.248   3.791   2.225 -0.0294 -2.0690 -1.1046
10243TIP3   OH254923   3.596   3.555   2.345 -0.6481 -0.0276  0.2382
10243TIP3    H154924   3.646   3.476   2.323  1.9698  1.7475 -0.6381
10243TIP3    H254925   3.651   3.601   2.409 -0.1100  2.9201 -2.1102
10244TIP3   OH254926   0.125   1.660   2.435  0.2671 -0.1632 -0.5664
10244TIP3    H154927   0.139   1.750   2.404 -0.7235  0.6666  1.2814
10244TIP3    H254928   0.097   1.613   2.356 -0.5912  1.4778 -1.2994
10245TIP3   OH254929   6.845   0.973   3.135  0.0686 -0.3793  0.1019
10245TIP3    H154930   6.801   0.895   3.168 -0.0382  0.0358  0.9825
10245TIP3    H254931   6.781   1.043   3.146 -0.5360 -0.4643 -2.4272
10246TIP3   OH254932   5.347   6.246   0.974 -0.3021 -0.3779  0.1529
10246TIP3    H154933   5.358   6.333   1.012 -0.2101 -0.5600  0.5520
10246TIP3    H254934   5.285   6.202   1.032 -0.8358 -0.3684 -0.3995
10247TIP3   OH254935   0.208   2.486   1.744  0.0140 -0.7423 -0.0504
10247TIP3    H154936   0.112   2.479   1.750  0.0445 -0.2792  1.4855
10247TIP3    H254937   0.239   2.432   1.817  0.8754  0.2658  0.3336
10248TIP3   OH254938   2.866   2.558   2.875  0.5098 -0.2173  0.2044
10248TIP3    H154939   2.948   2.588   2.837 -0.5006  1.8428 -0.4748
10248TIP3    H254940   2.843   2.625   2.940 -0.5342 -0.8692  0.5439
10249TIP3   OH254941   5.020   5.395   2.357  1.1125  0.7815  0.3915
10249TIP3    H154942   5.043   5.410   2.449  0.8391 -0.8876  0.7788
10249TIP3    H254943   5.099   5.416   2.309  1.2310  1.7752  0.9987
10250TIP3   OH254944   4.787   2.912   1.922  0.3601  0.0832  0.4097
10250TIP3    H154945   4.843   2.866   1.859 -0.8185  1.1412 -1.5311
10250TIP3    H254946   4.802   2.867   2.005  0.8857 -2.3563 -0.9143
10251TIP3   OH254947   1.374   5.161   0.738  0.3023 -0.6076  0.0529
10251TIP3    H154948   1.382   5.126   0.649 -1.1264  0.0470 -0.3714
10251TIP3    H254949   1.460   5.198   0.757  1.0484 -1.9795 -0.5017
10252TIP3   OH254950   3.673   4.116   2.494 -0.2455 -0.5403  0.6672
10252TIP3    H154951   3.584   4.151   2.498 -0.2254 -0.2083 -0.9736
10252TIP3    H254952   3.676   4.051   2.564 -1.5609 -0.0845  1.1872
10253TIP3   OH254953   7.286   5.094   1.975  0.0032 -0.2997 -0.0704
10253TIP3    H154954   7.324   5.066   1.892  2.0811  0.3151  0.5854
10253TIP3    H254955   7.252   5.014   2.014 -1.7384 -0.4782 -1.8012
10254TIP3   OH254956   1.524   4.281   2.303 -0.3641  0.1336 -0.8464
10254TIP3    H154957   1.528   4.258   2.210 -0.7859 -0.6091 -0.6906
10254TIP3    H254958   1.444   4.238   2.335 -1.2774  1.9641 -0.5647
10255TIP3   OH254959   0.901   0.242   2.016 -0.4162 -0.4873 -0.6523
10255TIP3    H154960   0.936   0.153   2.023  0.9262  0.1209  1.5005
10255TIP3    H254961   0.841   0.250   2.090  0.9162  0.9364  0.3438
10256TIP3   OH254962   5.230   5.217   1.271 -0.1685 -0.9441  0.6827
10256TIP3    H154963   5.316   5.179   1.290 -0.3191 -1.3658  0.5322
10256TIP3    H254964   5.184   5.149   1.221  0.0692 -0.0219 -0.8351
10257TIP3   OH254965   0.286   3.650   2.863  0.7263 -0.3505  1.1508
10257TIP3    H154966   0.311   3.573   2.812  0.7767  0.3545  0.0807
10257TIP3    H254967   0.308   3.626   2.954  1.3024 -1.3580  0.7704
10258TIP3   OH254968   3.320   0.504   2.564 -0.5604  0.7783 -0.4278
10258TIP3    H154969   3.226   0.492   2.547 -0.6805  1.6545 -0.4262
10258TIP3    H254970   3.339   0.592   2.531 -0.0656  1.2078  0.9304
10259TIP3   OH254971   4.733   2.830   1.453 -0.0895 -0.5610  0.2045
10259TIP3    H154972   4.677   2.897   1.492  2.8291  0.8302  2.4051
10259TIP3    H254973   4.772   2.873   1.377  0.7559 -0.1681  0.8391
10260TIP3   OH254974   3.153   6.091   0.669 -0.3104  0.1835  0.0500
10260TIP3    H154975   3.240   6.070   0.636  0.0362  0.8405  0.5315
10260TIP3    H254976   3.168   6.129   0.755 -1.0739  0.3386  0.1253
10261TIP3   OH254977   1.199   4.982   0.886  0.4105  0.2989  0.8062
10261TIP3    H154978   1.181   4.930   0.808 -1.3329 -0.2070  1.5070
10261TIP3    H254979   1.262   5.048   0.856  2.8530 -2.2630 -0.0437
10262TIP3   OH254980   0.957   1.524   1.493 -0.3331 -0.3165  0.2297
10262TIP3    H154981   1.017   1.551   1.562  1.2977 -1.1508 -0.7850
10262TIP3    H254982   0.997   1.556   1.412 -1.8777  0.1038 -0.4027
10263TIP3   OH254983   2.982   5.760   2.659 -0.4194 -0.7288 -0.2660
10263TIP3    H154984   3.016   5.670   2.654 -1.5618 -1.1495 -0.6598
10263TIP3    H254985   2.909   5.761   2.598 -0.0298  0.6610 -0.7426
10264TIP3   OH254986   5.642   4.102   3.146  0.6476  0.3776 -0.2733
10264TIP3    H154987   5.573   4.121   3.210 -0.9296  1.1571 -2.0914
10264TIP3    H254988   5.615   4.019   3.106  1.4561  0.0450 -0.1343
10265TIP3   OH254989   3.943   1.657   1.677 -0.1099  0.6521 -0.7527
10265TIP3    H154990   3.958   1.590   1.611 -1.2578  0.0869 -0.4642
10265TIP3    H254991   3.854   1.641   1.708  0.5114  0.6591  1.1940
10266TIP3   OH254992   0.139   6.232   1.841  0.2316  0.1138 -0.0797
10266TIP3    H154993   0.156   6.325   1.853 -1.0889  0.0199  4.1028
10266TIP3    H254994   0.070   6.228   1.775 -0.3664  2.1917  0.3490
10267TIP3   OH254995   3.628   2.736   1.934 -0.2146 -0.0131  0.0841
10267TIP3    H154996   3.650   2.801   1.867  1.4881  0.4239  1.0148
10267TIP3    H254997   3.605   2.658   1.883  1.9869  0.0014 -1.0872
10268TIP3   OH254998   5.939   2.265   2.108  0.6770 -0.4229 -0.5344
10268TIP3    H154999   5.928   2.273   2.013 -0.3514  2.5312 -0.2691
10268TIP3    H255000   5.985   2.345   2.133 -1.4243  0.1580  1.7487
10269TIP3   OH255001   5.167   7.225   2.414  0.4422 -0.0212  0.2454
10269TIP3    H155002   5.246   7.240   2.362 -0.0674 -0.4708 -0.6750
10269TIP3    H255003   5.103   7.194   2.351 -0.3222 -0.1511  1.0797
10270TIP3   OH255004   6.968   1.555   2.155  0.2873 -1.2078 -0.0952
10270TIP3    H155005   7.019   1.474   2.162  0.5886 -1.0516 -0.4072
10270TIP3    H255006   7.016   1.607   2.091  0.1024 -0.7782  0.1115
10271TIP3   OH255007   2.726   4.644   0.611 -0.0391 -0.0920 -0.1425
10271TIP3    H155008   2.817   4.626   0.633  0.5510  0.3840 -2.0901
10271TIP3    H255009   2.711   4.734   0.640 -0.3773 -0.6511  1.5421
10272TIP3   OH255010   1.786   4.334   2.179  0.6109 -1.1471 -0.5015
10272TIP3    H155011   1.854   4.338   2.112 -0.4707 -0.5784 -1.6046
10272TIP3    H255012   1.720   4.397   2.150 -0.9699 -2.5519 -0.1081
10273TIP3   OH255013   5.893   6.078   1.746  0.6210 -0.2882  0.0449
10273TIP3    H155014   5.973   6.074   1.694  1.3298  1.7054  0.8812
10273TIP3    H255015   5.825   6.041   1.690  1.7327 -0.0505 -1.5066
10274TIP3   OH255016   5.009   1.028   1.040 -0.1205 -0.8887  0.3365
10274TIP3    H155017   4.949   0.983   0.980  1.3341 -1.3978 -0.8079
10274TIP3    H255018   4.963   1.028   1.124 -1.6377 -1.4034 -0.4388
10275TIP3   OH255019   4.317   3.765   0.969  0.2772  0.2715 -0.1761
10275TIP3    H155020   4.251   3.712   1.014  2.0687  0.1917  2.6512
10275TIP3    H255021   4.289   3.855   0.982 -0.1590  0.1898 -0.5310
10276TIP3   OH255022   3.580   0.791   2.275 -0.3329  0.0159  0.8739
10276TIP3    H155023   3.612   0.839   2.198 -0.4354 -0.4570  0.5381
10276TIP3    H255024   3.653   0.735   2.300 -0.0968  0.5669  1.4620
10277TIP3   OH255025   3.509   6.803   1.710  0.4877 -0.5599 -0.1969
10277TIP3    H155026   3.418   6.828   1.726  0.1732 -0.8533 -1.3741
10277TIP3    H255027   3.546   6.786   1.796 -1.0776 -2.1628  0.2204
10278TIP3   OH255028   0.901   3.699   2.438 -0.2603 -0.2365  0.1156
10278TIP3    H155029   0.993   3.672   2.424 -0.6872 -0.4350 -3.3706
10278TIP3    H255030   0.850   3.621   2.413 -1.3750  0.8568 -1.1624
10279TIP3   OH255031   5.118   6.805   0.619  0.0118  0.7183  0.5090
10279TIP3    H155032   5.147   6.716   0.599 -0.4757  0.6356  0.1777
10279TIP3    H255033   5.113   6.807   0.715  3.1696  1.3714  0.7879
10280TIP3   OH255034   2.271   1.084   0.554  0.0819  0.5384  0.2194
10280TIP3    H155035   2.181   1.075   0.585 -1.8634  0.9723 -4.4632
10280TIP3    H255036   2.297   0.994   0.531  0.8814  0.4446  1.3572
10281TIP3   OH255037   6.310   0.303   0.620  0.2565  0.2392 -0.0468
10281TIP3    H155038   6.323   0.225   0.674  0.5277  0.2702 -0.0663
10281TIP3    H255039   6.220   0.330   0.638 -0.6129 -1.3525 -1.7404
10282TIP3   OH255040   0.982   4.570   0.629  0.4294 -0.0446  0.1006
10282TIP3    H155041   0.974   4.475   0.619 -2.3567 -0.1215  1.9463
10282TIP3    H255042   1.044   4.581   0.700  0.6389 -0.4800 -0.0075
10283TIP3   OH255043   1.375   3.193   3.388 -0.0580  0.1600 -0.3774
10283TIP3    H155044   1.323   3.181   3.468  1.0679  1.0125  0.5199
10283TIP3    H255045   1.461   3.158   3.409  0.2956  0.5312 -1.1580
10284TIP3   OH255046   0.845   0.510   1.915  0.3878 -0.2535 -0.1681
10284TIP3    H155047   0.808   0.571   1.851  3.2602  1.2194 -0.5769
10284TIP3    H255048   0.783   0.437   1.917 -1.6301  1.2826 -1.9239
10285TIP3   OH255049   0.507   3.468   2.836  0.3525  0.3024 -0.0811
10285TIP3    H155050   0.546   3.461   2.923 -1.9233  1.8560  1.1391
10285TIP3    H255051   0.529   3.556   2.806 -0.7793  0.5975 -0.0799
10286TIP3   OH255052   1.862   7.361   2.228  0.6944 -0.2929 -0.6940
10286TIP3    H155053   1.907   7.438   2.261 -0.2884  1.1395 -2.4878
10286TIP3    H255054   1.923   7.289   2.243  1.8576  0.9017  0.5742
10287TIP3   OH255055   2.098   1.572   2.618  0.4554  0.1411  0.3781
10287TIP3    H155056   2.111   1.479   2.637 -0.1696 -0.2378 -0.9521
10287TIP3    H255057   2.090   1.613   2.704 -2.3094 -1.4880  1.0314
10288TIP3   OH255058   3.352   7.056   1.656  0.0208 -0.3164  0.1455
10288TIP3    H155059   3.270   7.065   1.705  1.5397 -2.6952  3.4951
10288TIP3    H255060   3.337   6.983   1.596 -0.1138 -1.3164  1.3630
10289TIP3   OH255061   0.673   2.245   1.348 -0.9744  0.9386  0.2943
10289TIP3    H155062   0.625   2.311   1.397  0.0636  1.2736  0.8924
10289TIP3    H255063   0.628   2.240   1.263 -2.6498  0.5222  1.1550
10290TIP3   OH255064   3.405   3.409   2.889 -0.0469 -0.2548 -0.0209
10290TIP3    H155065   3.412   3.371   2.802  0.7436 -0.7991  0.2718
10290TIP3    H255066   3.316   3.389   2.917 -0.6095  0.7016 -1.0479
10291TIP3   OH255067   6.333   1.132   0.853 -0.0247  0.1494  0.0357
10291TIP3    H155068   6.308   1.056   0.906  3.1045 -1.1950 -0.2113
10291TIP3    H255069   6.270   1.133   0.781 -1.3184 -0.9949  1.0966
10292TIP3   OH255070   6.007   2.946   1.315 -0.0118 -0.2479 -0.4457
10292TIP3    H155071   6.012   2.984   1.403 -1.1080 -0.5082 -0.2636
10292TIP3    H255072   6.082   2.887   1.310  0.9018  0.8611 -0.2221
10293TIP3   OH255073   4.411   0.489   2.812 -0.0538 -0.5961  0.3872
10293TIP3    H155074   4.375   0.527   2.732 -0.3936 -1.3957  0.1565
10293TIP3    H255075   4.366   0.536   2.883  1.7329  1.5795  0.1819
10294TIP3   OH255076   1.094   1.677   1.270 -0.1880  0.5182 -0.0137
10294TIP3    H155077   1.099   1.721   1.355  0.4643  2.5617 -1.0617
10294TIP3    H255078   1.185   1.657   1.249 -0.2946  0.5549 -0.5090
10295TIP3   OH255079   5.730   0.843   2.643 -0.0043 -0.2276 -0.0112
10295TIP3    H155080   5.735   0.804   2.730  0.5658 -1.3602 -0.5250
10295TIP3    H255081   5.676   0.921   2.654  1.1448  0.3736  1.5934
10296TIP3   OH255082   1.264   7.570   1.364  0.3193 -0.2437  0.1488
10296TIP3    H155083   1.222   7.510   1.302  1.3666 -0.0722 -0.7363
10296TIP3    H255084   1.208   7.565   1.442  0.5893 -2.6802  0.2527
10297TIP3   OH255085   4.205   7.459   2.216 -0.1835 -0.5844  0.0584
10297TIP3    H155086   4.280   7.504   2.179 -1.0049 -0.7110 -1.9163
10297TIP3    H255087   4.223   7.453   2.310  1.1182  1.5131 -0.0117
10298TIP3   OH255088   0.768   2.525   1.097 -0.2878  0.1064 -0.0437
10298TIP3    H155089   0.837   2.504   1.160 -0.9051  0.4106  0.7565
10298TIP3    H255090   0.808   2.588   1.037  0.9319 -1.6881 -1.1943
10299TIP3   OH255091   1.081   6.869   1.933 -0.6432 -0.1327  0.1604
10299TIP3    H155092   1.034   6.810   1.874 -1.7537  1.6598 -0.8356
10299TIP3    H255093   1.121   6.811   1.998  0.6946 -2.2188 -2.3345
10300TIP3   OH255094   2.451   0.542   1.638  0.0401 -0.7786 -0.1247
10300TIP3    H155095   2.415   0.550   1.550 -0.2257 -1.8839 -0.1283
10300TIP3    H255096   2.386   0.585   1.694 -0.2814 -0.9587 -0.3574
10301TIP3   OH255097   6.197   3.354   2.481  0.2311  0.4297 -0.2196
10301TIP3    H155098   6.223   3.445   2.472  1.7494 -0.0174 -0.6130
10301TIP3    H255099   6.200   3.337   2.575  2.5816  0.0899 -0.3021
10302TIP3   OH255100   1.228   2.901   3.491  0.5828 -0.6773 -0.1318
10302TIP3    H155101   1.199   2.968   3.553 -2.0475 -1.7212 -0.1247
10302TIP3    H255102   1.319   2.884   3.515  0.3747  0.6842  1.8536
10303TIP3   OH255103   4.626   5.953   1.433 -0.2556 -0.0865 -0.1574
10303TIP3    H155104   4.594   5.998   1.355  0.6618 -0.8578 -1.0112
10303TIP3    H255105   4.635   5.862   1.405 -0.0576 -0.3995  0.9035
10304TIP3   OH255106   2.379   3.188   3.063  0.2228  0.5375  0.2844
10304TIP3    H155107   2.461   3.175   3.110 -0.1512 -1.8578  0.3590
10304TIP3    H255108   2.391   3.272   3.018  2.9897 -0.0970 -0.3146
10305TIP3   OH255109   4.443   3.564   1.779  0.3244  0.3949 -0.5244
10305TIP3    H155110   4.503   3.586   1.850  1.3496  0.4517 -1.3876
10305TIP3    H255111   4.383   3.500   1.817  1.7701 -0.7155 -0.0172
10306TIP3   OH255112   0.304   0.350   1.906 -0.3012  0.5128 -0.1892
10306TIP3    H155113   0.256   0.385   1.981 -1.6669  1.1331 -1.3037
10306TIP3    H255114   0.284   0.256   1.906  0.4695  0.3377  0.7429
10307TIP3   OH255115   5.131   3.721   1.501 -1.1974 -0.0633 -0.2442
10307TIP3    H155116   5.093   3.633   1.502 -2.8859  0.6138  0.3094
10307TIP3    H255117   5.063   3.776   1.461 -0.0759  0.9522 -0.8094
10308TIP3   OH255118   2.789   0.816   1.932  0.3497  0.3277  0.7142
10308TIP3    H155119   2.783   0.907   1.961  0.9094  1.0272 -1.2410
10308TIP3    H255120   2.711   0.803   1.878 -0.0116 -0.5462  1.4161
10309TIP3   OH255121   2.513   4.398   2.551  0.3334  0.5258  0.0474
10309TIP3    H155122   2.531   4.383   2.644  0.1222  0.2974  0.0554
10309TIP3    H255123   2.481   4.313   2.519  0.1378  0.6791 -0.1682
10310TIP3   OH255124   3.148   0.838   1.912  0.1715 -0.1516 -0.0935
10310TIP3    H155125   3.235   0.861   1.943  0.0588 -0.5541  0.5471
10310TIP3    H255126   3.096   0.829   1.992 -0.6927  0.9846 -0.4984
10311TIP3   OH255127   5.065   1.266   0.925  0.4655  1.0350 -0.0681
10311TIP3    H155128   5.119   1.306   0.994  0.9659  0.5869 -0.1909
10311TIP3    H255129   5.033   1.185   0.964  1.4935  0.3231 -0.6554
10312TIP3   OH255130   2.674   3.219   0.685  0.3953 -0.0698 -0.5293
10312TIP3    H155131   2.765   3.242   0.707 -0.1399  2.4476 -0.7141
10312TIP3    H255132   2.654   3.271   0.607 -1.4665  0.0391 -0.0232
10313TIP3   OH255133   0.996   4.131   2.482  0.0456 -0.0823 -0.1375
10313TIP3    H155134   0.986   4.170   2.568 -0.5790 -0.1853 -0.1578
10313TIP3    H255135   0.916   4.081   2.468  0.2763 -0.3280 -0.6448
10314TIP3   OH255136   2.382   0.454   1.981  0.0009  0.5651 -0.4786
10314TIP3    H155137   2.344   0.541   1.973 -1.1202  0.0646 -0.8660
10314TIP3    H255138   2.318   0.404   2.032  0.4850 -0.1186 -0.5141
10315TIP3   OH255139   1.452   3.479   3.140 -0.4073 -0.4402 -0.0434
10315TIP3    H155140   1.460   3.466   3.234  0.5683 -0.1597 -0.0707
10315TIP3    H255141   1.422   3.570   3.131 -2.1788 -0.9930  0.0236
10316TIP3   OH255142   4.802   2.038   1.543 -0.3165 -0.7874 -0.1423
10316TIP3    H155143   4.831   1.964   1.489 -0.2730 -1.8986  1.3305
10316TIP3    H255144   4.734   2.000   1.599 -1.1039  0.5848 -0.1371
10317TIP3   OH255145   0.996   1.224   2.879  0.2017  0.4027 -0.5740
10317TIP3    H155146   0.956   1.270   2.953  1.2516 -0.1010  0.3382
10317TIP3    H255147   1.071   1.179   2.917  0.2340 -0.6133 -1.7855
10318TIP3   OH255148   3.270   0.310   2.806 -0.2228  0.2880 -0.1818
10318TIP3    H155149   3.203   0.332   2.742 -1.9115  0.5888  1.6001
10318TIP3    H255150   3.234   0.237   2.855  0.2226  1.1581  1.5348
10319TIP3   OH255151   2.585   3.970   1.667 -0.4293 -0.0013  0.6525
10319TIP3    H155152   2.668   3.955   1.713 -0.2574  1.5663  0.9307
10319TIP3    H255153   2.528   4.009   1.733 -1.3247 -0.8427  0.3958
10320TIP3   OH255154   6.532   5.279   1.028 -0.5086 -0.0118 -0.3554
10320TIP3    H155155   6.593   5.245   0.963  0.6040  0.0763  0.6143
10320TIP3    H255156   6.479   5.203   1.053  0.2807 -0.4661 -0.0378
10321TIP3   OH255157   6.101   1.122   1.178  0.7910  0.5392 -0.1483
10321TIP3    H155158   6.127   1.145   1.267 -1.4824  2.2322  0.1863
10321TIP3    H255159   6.020   1.072   1.189  1.9574 -1.7453 -1.2229
10322TIP3   OH255160   6.672   0.346   1.970  0.1517  0.4409  0.3293
10322TIP3    H155161   6.761   0.349   1.934 -0.1035 -2.2383 -0.7631
10322TIP3    H255162   6.684   0.338   2.065  1.1232 -0.6135  0.1325
10323TIP3   OH255163   6.605   5.705   1.781  0.3428 -0.6057  0.3682
10323TIP3    H155164   6.656   5.696   1.700  0.8843 -0.8263  0.7306
10323TIP3    H255165   6.619   5.796   1.808 -0.3180 -0.3576 -0.0979
10324TIP3   OH255166   6.220   5.215   0.909  0.3007 -0.3745  0.6862
10324TIP3    H155167   6.224   5.129   0.951 -1.0288 -0.1982  1.2213
10324TIP3    H255168   6.129   5.243   0.920 -0.0974 -0.2233 -2.0849
10325TIP3   OH255169   5.930   6.436   2.654  0.3255  0.4861 -0.6244
10325TIP3    H155170   5.969   6.523   2.643  0.9815  0.5114  1.4343
10325TIP3    H255171   5.839   6.448   2.628  0.4775  1.7355 -0.6658
10326TIP3   OH255172   3.122   5.054   0.545 -0.3315 -0.9318  0.6405
10326TIP3    H155173   3.161   4.968   0.534  0.1306 -0.8895  1.8354
10326TIP3    H255174   3.034   5.046   0.507 -0.4645 -2.0602  1.1707
10327TIP3   OH255175   4.248   6.562   2.746 -0.4504  0.2649  0.3150
10327TIP3    H155176   4.294   6.629   2.796  2.0550 -0.5688 -0.7263
10327TIP3    H255177   4.214   6.502   2.813  1.7779 -0.1797  1.1312
10328TIP3   OH255178   4.915   1.606   1.502  0.4312  0.0402  0.0654
10328TIP3    H155179   4.910   1.676   1.436  2.0255 -0.0598 -0.2016
10328TIP3    H255180   4.824   1.583   1.520 -0.0700  1.0624 -1.0469
10329TIP3   OH255181   6.696   4.042   0.596 -0.1781  0.0963 -0.2244
10329TIP3    H155182   6.662   3.961   0.634  0.5058 -0.3438 -0.5163
10329TIP3    H255183   6.631   4.067   0.530  0.1017 -0.7874 -0.8532
10330TIP3   OH255184   6.724   2.652   2.332  0.3334  0.1716  0.7320
10330TIP3    H155185   6.735   2.737   2.376 -3.8857  0.3827  1.8463
10330TIP3    H255186   6.640   2.620   2.365  0.9046 -3.6286 -1.0689
10331TIP3   OH255187   2.683   3.120   0.963 -0.9044 -0.0311  0.2307
10331TIP3    H155188   2.668   3.059   0.890  0.4222 -0.8347  0.5947
10331TIP3    H255189   2.691   3.206   0.922 -1.4471 -0.2896 -0.4360
10332TIP3   OH255190   2.560   3.396   2.493  0.6021 -0.0147 -0.0222
10332TIP3    H155191   2.555   3.326   2.428  0.4788 -1.7219  1.7348
10332TIP3    H255192   2.476   3.441   2.486 -0.4197 -1.7384  0.5728
10333TIP3   OH255193   0.757   4.593   0.811  0.0592  0.7934  0.0634
10333TIP3    H155194   0.738   4.501   0.793 -1.9397  1.0111  0.8791
10333TIP3    H255195   0.825   4.616   0.747 -1.0666 -0.6254 -1.7543
10334TIP3   OH255196   3.097   7.167   2.480 -0.0157  0.1651  0.3364
10334TIP3    H155197   3.147   7.152   2.560 -0.4011  0.1746  0.5827
10334TIP3    H255198   3.016   7.208   2.510 -1.0888 -1.7196  0.1804
10335TIP3   OH255199   7.352   2.592   2.226 -0.9703  0.2223 -0.3815
10335TIP3    H155200   7.329   2.596   2.319  2.3493  2.0397  0.4999
10335TIP3    H255201   7.348   2.683   2.197 -0.9691 -0.2033 -1.7723
10336TIP3   OH255202   1.154   0.573   1.066 -0.4236 -0.1894 -0.6508
10336TIP3    H155203   1.093   0.646   1.059 -2.6575 -1.7795  1.0056
10336TIP3    H255204   1.151   0.548   1.158  3.9007  0.4936 -0.1137
10337TIP3   OH255205   3.930   3.082   2.539  0.2153  0.1629 -0.2717
10337TIP3    H155206   3.869   3.036   2.596  1.5062 -0.0278  1.0183
10337TIP3    H255207   3.953   3.018   2.471  0.2036 -0.3121  0.1658
10338TIP3   OH255208   3.401   3.722   1.563 -0.2104  0.2383  0.2896
10338TIP3    H155209   3.456   3.683   1.632  0.8604  1.2991  0.0692
10338TIP3    H255210   3.352   3.791   1.607  1.2364  1.6154 -0.1482
10339TIP3   OH255211   2.470   3.389   0.564  0.1812  0.0749 -0.4946
10339TIP3    H155212   2.546   3.376   0.508  0.3063  0.1036 -0.3337
10339TIP3    H255213   2.459   3.484   0.569 -0.1326  0.0605 -0.8711
10340TIP3   OH255214   7.562   0.772   1.541  0.2122  0.3094  0.4534
10340TIP3    H155215   7.527   0.710   1.477 -1.1585  1.8970 -0.4157
10340TIP3    H255216   7.497   0.772   1.612  0.0103  0.9931  0.2769
10341TIP3   OH255217   3.598   4.948   2.061 -0.6440 -0.1470  0.4491
10341TIP3    H155218   3.686   4.963   2.027 -0.0576  0.4879  2.1935
10341TIP3    H255219   3.589   4.853   2.063  1.0245 -0.3169  2.7110
10342TIP3   OH255220   0.482   2.980   2.839 -0.5019 -0.0297 -0.7019
10342TIP3    H155221   0.415   3.036   2.878  0.2273  1.3218 -1.3420
10342TIP3    H255222   0.505   3.022   2.756 -0.4532 -1.6771 -1.5679
10343TIP3   OH255223   3.052   5.031   0.928 -0.4471  0.0908  0.5012
10343TIP3    H155224   2.988   5.056   0.995 -0.7895  1.0476 -0.1598
10343TIP3    H255225   3.038   5.094   0.857  0.5997 -0.2703 -0.0444
10344TIP3   OH255226   2.183   6.960   2.550  0.0890 -0.1506 -0.1159
10344TIP3    H155227   2.116   7.026   2.568  0.4218  0.1639 -0.0285
10344TIP3    H255228   2.257   6.986   2.604  0.0678 -0.8437  0.2503
10345TIP3   OH255229   1.094   1.855   2.138  0.3476  0.0060  0.1502
10345TIP3    H155230   1.032   1.820   2.074  1.5625 -1.6319 -0.2155
10345TIP3    H255231   1.177   1.862   2.089  0.2905  3.1772  0.3156
10346TIP3   OH255232   0.165   7.349   2.483 -0.0112 -0.6414 -0.2111
10346TIP3    H155233   0.120   7.430   2.508 -0.0231 -0.8375  0.4139
10346TIP3    H255234   0.224   7.331   2.556  0.3347 -0.9431 -0.5641
10347TIP3   OH255235   3.200   7.068   1.998 -0.1603 -0.1284  0.4017
10347TIP3    H155236   3.220   7.099   2.086  2.5451  1.0580 -0.5227
10347TIP3    H255237   3.264   6.999   1.982 -2.5728 -2.5256  0.3771
10348TIP3   OH255238   4.212   3.637   2.706  0.3689 -0.4533  0.0307
10348TIP3    H155239   4.168   3.643   2.791 -1.8626  4.0790 -1.1492
10348TIP3    H255240   4.292   3.688   2.717 -0.5577  1.2525 -0.8170
10349TIP3   OH255241   6.210   7.300   2.489  0.0581  0.4693  0.5609
10349TIP3    H155242   6.250   7.219   2.456  0.9733  0.8788  0.6379
10349TIP3    H255243   6.216   7.292   2.585 -1.3910 -0.1178  0.6379
10350TIP3   OH255244   4.593   3.210   2.162  0.2909  0.4075 -0.1743
10350TIP3    H155245   4.583   3.184   2.071  2.7858 -0.2041 -0.3403
10350TIP3    H255246   4.537   3.149   2.211 -0.8795  0.5954 -1.2374
10351TIP3   OH255247   3.449   1.496   2.746 -0.0987  0.0226  0.1671
10351TIP3    H155248   3.472   1.584   2.714  0.1621  1.0655  2.9378
10351TIP3    H255249   3.528   1.444   2.731  0.8451  1.0981  1.1868
10352TIP3   OH255250   0.543   5.547   1.732  0.0840 -0.3835  0.0164
10352TIP3    H155251   0.505   5.543   1.820 -0.7546  0.0781 -0.3107
10352TIP3    H255252   0.590   5.464   1.723  0.0443 -0.5064  0.8370
10353TIP3   OH255253   1.398   5.802   1.418  0.2620 -0.3645  1.1228
10353TIP3    H155254   1.450   5.847   1.486 -1.0782 -0.0488  1.9916
10353TIP3    H255255   1.437   5.830   1.336  1.7026 -0.4470  1.7552
10354TIP3   OH255256   4.360   3.379   2.464 -0.5026  0.6409  0.1902
10354TIP3    H155257   4.393   3.464   2.435  1.0575  0.3292  0.9501
10354TIP3    H255258   4.435   3.321   2.458 -1.4270 -0.5949  0.1367
10355TIP3   OH255259   4.544   3.697   2.057  0.0655  0.1431  0.4443
10355TIP3    H155260   4.456   3.708   2.092 -0.6531  1.4779 -1.5649
10355TIP3    H255261   4.601   3.695   2.134 -1.6131  0.2695  1.7484
10356TIP3   OH255262   7.179   1.025   0.884 -0.1687  0.0052 -0.0662
10356TIP3    H155263   7.124   1.084   0.937  1.1792  0.0660  1.3544
10356TIP3    H255264   7.252   1.080   0.855  0.7718 -0.7747  0.7362
10357TIP3   OH255265   6.862   3.484   0.930 -0.0937 -0.4019 -0.0391
10357TIP3    H155266   6.777   3.511   0.965 -0.6600 -2.2642  0.1253
10357TIP3    H255267   6.894   3.419   0.992  1.1375 -0.2399 -0.4772
10358TIP3   OH255268   2.524   5.210   2.047  0.6699  0.6263 -0.3809
10358TIP3    H155269   2.599   5.267   2.065  0.1923  1.1366  0.0444
10358TIP3    H255270   2.515   5.157   2.127  0.9167  0.1749 -0.6502
10359TIP3   OH255271   1.188   0.464   0.320  0.4826  0.2126  0.0035
10359TIP3    H155272   1.102   0.480   0.359  1.0123  2.1734  0.4597
10359TIP3    H255273   1.180   0.492   0.229  0.4262 -0.4099 -0.1921
10360TIP3   OH255274   0.586   3.808   2.821 -0.1280  0.5319  0.0583
10360TIP3    H155275   0.541   3.858   2.888  2.2804  2.3743  0.4301
10360TIP3    H255276   0.645   3.871   2.779  1.0077 -1.3709 -1.3757
10361TIP3   OH255277   0.751   0.771   0.928 -0.2102  0.2299 -0.0463
10361TIP3    H155278   0.693   0.821   0.986  1.8242 -0.6228  2.9545
10361TIP3    H255279   0.697   0.697   0.899 -0.9891 -0.0461  1.9131
10362TIP3   OH255280   3.645   1.139   1.856  0.4629 -0.0111  0.5025
10362TIP3    H155281   3.560   1.119   1.895  0.8840 -1.2145  0.8330
10362TIP3    H255282   3.625   1.202   1.786 -0.8739 -1.2146 -0.2599
10363TIP3   OH255283   6.090   0.415   2.491 -0.2939  0.0958  0.0225
10363TIP3    H155284   6.066   0.476   2.421 -2.5410 -0.7261  0.0122
10363TIP3    H255285   6.029   0.342   2.481 -1.0728  0.1946  3.1709
10364TIP3   OH255286   4.775   7.550   3.228 -0.0816 -0.0359  0.7118
10364TIP3    H155287   4.701   7.512   3.180  0.1614  1.4587 -0.9444
10364TIP3    H255288   4.852   7.523   3.178  0.2501  0.8424  0.7447
10365TIP3   OH255289   2.790   1.160   2.184 -0.0621  0.3286 -0.0237
10365TIP3    H155290   2.700   1.130   2.177  0.2080 -0.5414  0.1168
10365TIP3    H255291   2.826   1.148   2.096 -0.4574  1.9630 -0.4380
10366TIP3   OH255292   4.947   5.664   2.174 -0.4143 -0.0907 -0.6862
10366TIP3    H155293   5.028   5.643   2.220  0.1116 -0.5441 -1.7834
10366TIP3    H255294   4.945   5.604   2.099 -0.5455  1.5059 -2.0404
10367TIP3   OH255295   0.104   4.722   0.533  0.0148 -0.1891 -0.8122
10367TIP3    H155296   0.031   4.686   0.482 -0.2426 -0.3896 -0.3032
10367TIP3    H255297   0.087   4.816   0.535 -0.2045 -0.2312 -0.7281
10368TIP3   OH255298   0.174   4.453   2.540  0.0295  0.5893  0.3057
10368TIP3    H155299   0.256   4.432   2.495 -1.2686 -1.5565 -1.2195
10368TIP3    H255300   0.193   4.535   2.585  2.6097  0.8499 -1.0281
10369TIP3   OH255301   7.280   2.061   1.113  0.0955 -0.1400  0.6173
10369TIP3    H155302   7.271   2.065   1.018 -0.0528 -1.3596  0.5674
10369TIP3    H255303   7.279   1.968   1.134 -1.7914  0.1221  2.0050
10370TIP3   OH255304   7.106   6.877   3.008 -0.5837 -0.1046  0.2796
10370TIP3    H155305   7.154   6.925   2.940 -0.5007 -2.4857 -1.4561
10370TIP3    H255306   7.155   6.894   3.089  1.5196 -0.1592 -0.9085
10371TIP3   OH255307   1.410   7.047   2.105 -0.1952  0.1732 -0.5802
10371TIP3    H155308   1.502   7.026   2.118 -0.8466 -2.4627  0.5452
10371TIP3    H255309   1.375   7.061   2.193 -1.2453 -0.9352 -0.7835
10372TIP3   OH255310   6.670   1.938   1.803 -0.0009  0.5332 -0.4007
10372TIP3    H155311   6.675   1.845   1.826  0.9911  0.7051  0.1288
10372TIP3    H255312   6.619   1.978   1.873  1.6474  0.7837  0.6989
10373TIP3   OH255313   4.197   1.384   2.772  0.3968  0.0765  0.3676
10373TIP3    H155314   4.111   1.388   2.813 -0.0868  0.8870 -0.6717
10373TIP3    H255315   4.220   1.291   2.772 -0.1403 -0.0665  1.3048
10374TIP3   OH255316   5.491   3.199   2.033 -0.1278  0.2309 -0.1018
10374TIP3    H155317   5.489   3.129   1.968  2.9863  1.5458 -1.8173
10374TIP3    H255318   5.403   3.238   2.028 -2.0025 -3.3742  0.9426
10375TIP3   OH255319   5.115   5.126   2.738 -0.3766  0.2037  0.1922
10375TIP3    H155320   5.021   5.123   2.721 -0.2296 -2.3483 -0.5930
10375TIP3    H255321   5.147   5.039   2.714  1.6000 -0.3396  3.9235
10376TIP3   OH255322   0.919   5.253   1.430 -0.0006  0.6020  0.1355
10376TIP3    H155323   0.963   5.298   1.359  2.7484 -1.4536  0.3530
10376TIP3    H255324   0.901   5.321   1.495 -1.4081  2.2871 -1.9212
10377TIP3   OH255325   2.766   1.683   1.532  0.3925 -0.3257 -0.5919
10377TIP3    H155326   2.716   1.619   1.583  0.6791  0.4838  0.7489
10377TIP3    H255327   2.832   1.716   1.594  0.7565  0.6898 -1.4994
10378TIP3   OH255328   5.995   0.355   1.862  0.2632  0.2770 -0.1381
10378TIP3    H155329   6.086   0.334   1.843  0.2149 -1.2030  1.0621
10378TIP3    H255330   5.945   0.306   1.797  0.3113  1.5521 -1.1698
10379TIP3   OH255331   2.764   4.277   2.730 -0.3959  0.5762 -0.0936
10379TIP3    H155332   2.777   4.199   2.785  0.0879  0.8960  0.2465
10379TIP3    H255333   2.674   4.304   2.750 -0.5414  0.1570 -0.1520
10380TIP3   OH255334   7.523   6.372   3.114  0.5945 -0.5936 -0.3532
10380TIP3    H155335   7.462   6.309   3.151  0.0935 -0.2928 -0.6567
10380TIP3    H255336   7.467   6.441   3.079  1.1505  0.3080  0.4865
10381TIP3   OH255337   3.126   0.843   2.173  0.2277 -0.2161 -0.0800
10381TIP3    H155338   3.139   0.751   2.198  0.4117 -0.5012 -1.1931
10381TIP3    H255339   3.195   0.890   2.219  0.1245 -0.6280  0.5081
10382TIP3   OH255340   5.354   3.837   1.376 -0.3919 -0.0821 -0.1927
10382TIP3    H155341   5.313   3.762   1.418 -1.0980  0.0744 -0.5903
10382TIP3    H255342   5.448   3.826   1.393 -0.6712  0.1942  1.7827
10383TIP3   OH255343   5.770   1.240   0.768  0.0276 -0.7120  0.1651
10383TIP3    H155344   5.751   1.146   0.767 -0.1898 -0.6893  1.1291
10383TIP3    H255345   5.865   1.245   0.762  0.0587 -0.9963  0.3826
10384TIP3   OH255346   6.773   6.597   3.253 -0.0693  0.1404 -0.1379
10384TIP3    H155347   6.794   6.685   3.222 -1.8412  0.5386 -0.3168
10384TIP3    H255348   6.849   6.544   3.230  0.4597  1.3440 -1.2535
10385TIP3   OH255349   5.210   3.004   0.400  0.3548  0.0546  0.4534
10385TIP3    H155350   5.261   2.958   0.333  0.6036 -1.9850  1.9704
10385TIP3    H255351   5.274   3.057   0.448  0.2727  1.0154 -0.4489
10386TIP3   OH255352   2.385   7.342   1.703 -0.1806 -0.3451  0.7903
10386TIP3    H155353   2.403   7.431   1.674 -2.7586 -0.0499 -0.1835
10386TIP3    H255354   2.335   7.353   1.784 -1.0480 -0.8503  0.3371
10387TIP3   OH255355   4.754   1.282   0.454  0.1848  0.1037  0.2922
10387TIP3    H155356   4.786   1.312   0.539 -0.4513  0.6489  0.3427
10387TIP3    H255357   4.784   1.349   0.393  0.2229 -0.0386  0.1544
10388TIP3   OH255358   4.562   5.991   1.731 -0.3637  0.6385  0.1831
10388TIP3    H155359   4.593   6.021   1.646 -2.1193  2.7313  0.1891
10388TIP3    H255360   4.541   5.899   1.718  2.2070  0.0929 -0.7661
10389TIP3   OH255361   1.990   0.970   1.760 -0.0419 -0.3241  0.1630
10389TIP3    H155362   2.031   1.043   1.808  2.6013 -0.9356 -0.9742
10389TIP3    H255363   1.925   1.012   1.704  0.6187  1.0434  0.3755
10390TIP3   OH255364   3.281   4.759   2.554 -0.5622  0.5166 -0.2625
10390TIP3    H155365   3.322   4.710   2.626 -0.8578 -0.5861 -0.8322
10390TIP3    H255366   3.191   4.727   2.551 -0.9492  1.5472 -0.2582
10391TIP3   OH255367   6.308   1.542   1.938 -0.3888  0.8827  0.2737
10391TIP3    H155368   6.365   1.541   2.014 -0.4534  1.6252  0.3402
10391TIP3    H255369   6.313   1.632   1.905  0.3925  0.3425 -1.1742
10392TIP3   OH255370   6.002   0.005   1.494 -0.0652  0.1114  0.0385
10392TIP3    H155371   6.030   0.040   1.409  1.6632 -0.8135  0.1839
10392TIP3    H255372   5.961  -0.079   1.473  1.0571 -0.4800  0.1613
10393TIP3   OH255373   2.522   6.119   0.767 -0.2994 -0.1795 -0.5117
10393TIP3    H155374   2.432   6.143   0.788 -0.2633  0.5940 -1.2068
10393TIP3    H255375   2.516   6.072   0.683 -0.1278 -0.7746 -0.2029
10394TIP3   OH255376   6.185   2.524   1.508 -0.3173  0.0369  0.6458
10394TIP3    H155377   6.208   2.452   1.448 -1.7611  0.0909 -0.0112
10394TIP3    H255378   6.218   2.602   1.464  2.0669 -0.2349  1.7822
10395TIP3   OH255379   7.528   5.899   0.390  0.3150  0.2120 -0.0633
10395TIP3    H155380   7.539   5.963   0.461 -0.1102 -0.2115  0.3918
10395TIP3    H255381   7.595   5.922   0.327  2.1795 -0.7304  1.4714
10396TIP3   OH255382   2.324   3.845   1.685  0.1938 -0.2665 -0.2260
10396TIP3    H155383   2.411   3.883   1.669 -0.2961  0.9537 -0.0482
10396TIP3    H255384   2.341   3.772   1.745  1.1290 -0.2524 -0.4515
10397TIP3   OH255385   7.347   2.025   0.475 -0.0608 -0.0123 -0.2172
10397TIP3    H155386   7.372   2.116   0.460 -0.6296  0.1221 -0.3625
10397TIP3    H255387   7.252   2.025   0.468 -0.3140 -0.1446  2.2634
10398TIP3   OH255388   3.986   0.380   1.341 -0.0055 -0.0680 -0.1913
10398TIP3    H155389   3.934   0.301   1.328  1.4876 -1.1813  0.3170
10398TIP3    H255390   4.061   0.370   1.282 -1.0088  2.1925 -2.0133
10399TIP3   OH255391   2.332   5.281   0.880 -0.7930 -0.2113  0.3141
10399TIP3    H155392   2.278   5.202   0.884 -0.6621 -0.4272 -1.3910
10399TIP3    H255393   2.278   5.350   0.917 -0.9867 -1.0404  1.6467
10400TIP3   OH255394   2.638   2.338   2.908  0.0828  0.6502 -0.3303
10400TIP3    H155395   2.632   2.245   2.931 -0.8485  0.9594  0.8306
10400TIP3    H255396   2.716   2.345   2.854  0.1398 -0.8164 -0.4826
10401TIP3   OH255397   0.455   5.326   2.200 -0.0467 -0.4005 -0.3477
10401TIP3    H155398   0.502   5.256   2.247  1.8871 -0.0071 -1.5929
10401TIP3    H255399   0.397   5.364   2.267  0.8508 -1.4143  1.0788
10402TIP3   OH255400   6.046   6.775   2.946 -0.0315  0.1636  0.4113
10402TIP3    H155401   6.103   6.701   2.924  1.3048  1.6440 -1.4689
10402TIP3    H255402   6.050   6.780   3.042 -1.9370 -3.4396  0.8642
10403TIP3   OH255403   7.021   6.053   1.332 -0.8107 -0.6216  0.2181
10403TIP3    H155404   7.070   5.978   1.299 -0.5057 -0.5254  0.4462
10403TIP3    H255405   7.061   6.128   1.289 -0.4009 -0.4946  0.8118
10404TIP3   OH255406   5.066   1.381   0.562  0.0747  0.3588  0.1307
10404TIP3    H155407   4.991   1.351   0.614  1.0750 -1.3640  0.6459
10404TIP3    H255408   5.122   1.303   0.554  2.0539  1.7217  0.1740
10405TIP3   OH255409   1.022   7.438   1.148 -0.2766 -0.6072 -0.1030
10405TIP3    H155410   0.930   7.414   1.148 -0.1730 -1.2493 -2.3876
10405TIP3    H255411   1.068   7.357   1.171 -0.2380 -0.6467 -0.3157
10406TIP3   OH255412   1.090   3.785   0.637  0.3918  0.0134  0.6150
10406TIP3    H155413   1.094   3.714   0.573  0.9856 -0.1331  0.8039
10406TIP3    H255414   1.087   3.864   0.584 -1.2622 -0.1674  0.3902
10407TIP3   OH255415   3.063   6.015   2.120  0.7021 -0.2250  0.1024
10407TIP3    H155416   3.128   6.001   2.051 -0.6798 -0.1255 -1.2683
10407TIP3    H255417   3.020   6.097   2.097 -0.8131 -0.9593  0.2255
10408TIP3   OH255418   1.426   5.524   1.727  0.1912 -0.4979 -0.1116
10408TIP3    H155419   1.420   5.445   1.782  2.0382 -0.0491  0.8145
10408TIP3    H255420   1.365   5.507   1.655  2.2089 -3.8668 -1.2583
10409TIP3   OH255421   2.893   6.509   1.869  0.6157 -0.3315  0.2478
10409TIP3    H155422   2.830   6.444   1.840  0.5371 -0.2993  0.3469
10409TIP3    H255423   2.864   6.591   1.829  0.2573 -0.2017  0.7640
10410TIP3   OH255424   6.335   6.723   1.809 -0.2053 -0.4616  0.1371
10410TIP3    H155425   6.247   6.731   1.845  0.2598  2.5399  0.8859
10410TIP3    H255426   6.324   6.733   1.714 -0.6895 -0.5320  0.1872
10411TIP3   OH255427   7.330   0.799   2.425  0.1630  0.7873  0.3414
10411TIP3    H155428   7.379   0.837   2.352  0.5758  0.7866  0.6163
10411TIP3    H255429   7.366   0.841   2.503  0.9543 -0.5013  0.6923
10412TIP3   OH255430   4.914   4.478   0.814 -0.4925  0.0810 -0.6616
10412TIP3    H155431   4.826   4.442   0.800 -0.6596  0.0350  0.3795
10412TIP3    H255432   4.902   4.545   0.881  0.3023 -0.1082 -0.3142
10413TIP3   OH255433   5.804   2.711   3.330 -0.4616  0.0351 -0.1888
10413TIP3    H155434   5.893   2.675   3.322  0.0332  0.7872  1.5064
10413TIP3    H255435   5.750   2.637   3.357 -0.1077 -0.1773 -0.0573
10414TIP3   OH255436   6.035   7.454   2.932 -0.7530  0.5069  0.1976
10414TIP3    H155437   6.057   7.470   3.024  0.1313 -0.2475  0.1337
10414TIP3    H255438   6.100   7.505   2.883 -1.9109  1.8130 -0.0372
10415TIP3   OH255439   4.703   1.349   2.365  0.6885  0.2075  0.5914
10415TIP3    H155440   4.765   1.420   2.379  1.6178 -0.5902  0.6278
10415TIP3    H255441   4.741   1.274   2.411  0.2788 -0.5966 -0.3309
10416TIP3   OH255442   3.158   4.736   0.559  0.1385  0.3225 -0.1479
10416TIP3    H155443   3.191   4.647   0.556 -0.2636  0.1866 -1.2271
10416TIP3    H255444   3.082   4.732   0.618  0.7668  0.1972  0.6670
10417TIP3   OH255445   3.219   3.416   2.383  0.5170  0.6088 -0.3457
10417TIP3    H155446   3.227   3.442   2.475  0.9305  1.5156 -0.6306
10417TIP3    H255447   3.283   3.346   2.373  0.4172  0.4500  0.0735
10418TIP3   OH255448   2.574   3.865   1.393  0.6254  0.2362  0.8780
10418TIP3    H155449   2.657   3.822   1.372 -0.6068 -2.5646  1.4137
10418TIP3    H255450   2.585   3.892   1.484  1.1684  0.4928  0.7458
10419TIP3   OH255451   4.494   0.956   0.546 -0.1109  0.4289  0.3050
10419TIP3    H155452   4.495   1.046   0.580 -0.3689  0.2951  0.6760
10419TIP3    H255453   4.555   0.957   0.473  0.6094  0.6778  0.9031
10420TIP3   OH255454   7.209   1.632   0.946  0.1787 -0.2591  0.1546
10420TIP3    H155455   7.169   1.704   0.897  0.4287  0.9729  1.6922
10420TIP3    H255456   7.149   1.558   0.933 -0.8799  0.6390 -0.2255
10421TIP3   OH255457   4.391   1.493   2.929 -0.2781 -0.4407  0.4724
10421TIP3    H155458   4.314   1.487   2.873  0.5704  2.6568 -1.2714
10421TIP3    H255459   4.356   1.513   3.016 -1.4979  0.5027 -0.1977
10422TIP3   OH255460   1.902   0.443   1.144  0.0561 -0.5403  0.6641
10422TIP3    H155461   1.812   0.455   1.174 -0.0974 -0.7244  0.2751
10422TIP3    H255462   1.896   0.445   1.049  0.6185  0.6252  0.6331
10423TIP3   OH255463   1.178   6.259   2.771 -0.3322 -0.4902 -0.5184
10423TIP3    H155464   1.267   6.227   2.787 -0.2210  0.0773  0.0280
10423TIP3    H255465   1.123   6.182   2.783  0.0981 -0.8916 -1.0577
10424TIP3   OH255466   1.288   7.219   2.685 -0.5072 -0.3635  0.1445
10424TIP3    H155467   1.314   7.309   2.702  1.1127 -1.0097  1.3414
10424TIP3    H255468   1.205   7.227   2.637 -0.6401  1.7343  0.6080
10425TIP3   OH255469   7.327   4.522   2.050  0.8147  0.3016 -0.1031
10425TIP3    H155470   7.378   4.443   2.072 -0.3646 -0.7462 -0.9645
10425TIP3    H255471   7.376   4.563   1.979  0.2281 -1.0303 -1.3476
10426TIP3   OH255472   5.738   2.616   2.586 -0.7007  0.2307  0.3834
10426TIP3    H155473   5.733   2.681   2.656  0.4005 -0.6726  1.3520
10426TIP3    H255474   5.683   2.651   2.516 -0.2996  2.0883  0.9483
10427TIP3   OH255475   0.876   2.125   1.194  0.0174  0.4177  0.2462
10427TIP3    H155476   0.843   2.127   1.104  1.4357  0.2978 -0.2962
10427TIP3    H255477   0.815   2.181   1.243 -0.5034  0.8619 -0.8786
10428TIP3   OH255478   2.522   5.983   0.518 -0.5295 -0.5784 -0.6781
10428TIP3    H155479   2.560   5.902   0.482  1.2574  0.1245 -0.4455
10428TIP3    H255480   2.594   6.045   0.520 -1.2079  0.2338  1.6724
10429TIP3   OH255481   2.327   5.855   2.668  0.3678  0.1479 -0.3179
10429TIP3    H155482   2.312   5.946   2.694  0.0992  0.4095 -1.3566
10429TIP3    H255483   2.348   5.859   2.575  0.2718 -0.8627 -0.3973
10430TIP3   OH255484   4.091   2.655   2.005  0.0292  0.4771 -0.3421
10430TIP3    H155485   4.147   2.616   2.072 -0.2038 -0.3409 -0.6105
10430TIP3    H255486   4.132   2.629   1.922  0.7828  2.1646 -0.5299
10431TIP3   OH255487   2.660   3.578   1.408  0.2763 -0.4510 -0.4124
10431TIP3    H155488   2.568   3.604   1.406  0.9332  2.0972 -1.9529
10431TIP3    H255489   2.672   3.540   1.494 -1.9725  0.1577  0.2422
10432TIP3   OH255490   5.577   2.925   3.048 -0.0099  0.1420  0.2614
10432TIP3    H155491   5.517   2.871   3.099  0.0833 -0.7651 -0.5480
10432TIP3    H255492   5.626   2.976   3.113 -1.5777  0.8389  0.9363
10433TIP3   OH255493   5.483   3.504   2.238  0.4778  0.2640 -0.0664
10433TIP3    H155494   5.452   3.552   2.161  0.5296 -0.7883 -0.7645
10433TIP3    H255495   5.426   3.532   2.309 -3.2709 -2.6848 -1.5629
10434TIP3   OH255496   6.436   5.505   1.771 -0.1356 -0.0519  0.1915
10434TIP3    H155497   6.507   5.569   1.769 -1.4410  1.4861  0.8043
10434TIP3    H255498   6.361   5.553   1.806 -0.8946 -2.2236  1.7632
10435TIP3   OH255499   2.137   6.596   0.747  0.4265  1.0485 -0.0486
10435TIP3    H155500   2.156   6.688   0.765 -0.6829  1.3640 -0.4280
10435TIP3    H255501   2.042   6.588   0.757  0.0845  0.6343 -2.8804
10436TIP3   OH255502   1.625   4.796   1.807 -0.1565 -0.1916  0.3085
10436TIP3    H155503   1.717   4.770   1.810  0.8343  2.7993 -0.5224
10436TIP3    H255504   1.587   4.740   1.739  1.4527 -0.4265 -0.4498
10437TIP3   OH255505   6.980   3.888   0.875 -0.5578 -0.6195 -0.0484
10437TIP3    H155506   6.994   3.919   0.964 -0.1323 -0.0521 -0.3036
10437TIP3    H255507   7.045   3.818   0.863  2.2749  1.9433 -1.2011
10438TIP3   OH255508   3.404   0.755   2.540 -0.3890 -0.7002 -0.1692
10438TIP3    H155509   3.443   0.764   2.453 -1.8238  2.1852 -0.6445
10438TIP3    H255510   3.439   0.828   2.591 -1.3651 -0.9495  0.9246
10439TIP3   OH255511   1.998   2.154   3.094  0.4808 -0.2827  0.0440
10439TIP3    H155512   2.088   2.167   3.063  0.1568 -1.3624 -1.4456
10439TIP3    H255513   1.971   2.240   3.125  2.0577  0.0396  0.6477
   7.57048   7.57048  30.00000
