Title
55513
    1DOPE     N    1   4.058   3.867  16.249  0.4066  0.0511 -0.3069
    1DOPE   HN1    2   4.085   3.953  16.198  1.0603 -0.6666 -1.2033
    1DOPE   HN2    3   4.145   3.825  16.285  0.3020  1.0071  1.1539
    1DOPE   HN3    4   4.019   3.790  16.190 -0.1122  1.1428 -1.4303
    1DOPE   C12    5   3.958   3.902  16.362  0.0775  0.4524  0.2902
    1DOPE  H12A    6   4.025   3.941  16.441  1.8849  0.1874 -1.0462
    1DOPE  H12B    7   3.920   3.803  16.396 -1.3890  1.0101  0.3459
    1DOPE   C11    8   3.862   4.001  16.299  0.2167 -0.0873 -0.1176
    1DOPE  H11A    9   3.789   4.006  16.383 -0.5088 -1.6494 -0.6242
    1DOPE  H11B   10   3.816   3.960  16.207  1.1321  0.3954 -0.8041
    1DOPE     P   11   3.874   4.243  16.205  0.1898  0.5005 -0.0220
    1DOPE   O13   12   3.979   4.332  16.146  0.1004 -0.0375  0.1024
    1DOPE   O14   13   3.779   4.313  16.292  0.0813  0.1349 -0.5449
    1DOPE   O11   14   3.780   4.182  16.092 -0.4851  0.0025  0.1711
    1DOPE   O12   15   3.933   4.120  16.279 -0.0561  0.1384  0.7238
    1DOPE    C1   16   3.859   4.113  15.990 -0.6811  0.1291 -0.3635
    1DOPE    HA   17   3.941   4.053  16.034 -0.7914  1.5096  1.8937
    1DOPE    HB   18   3.895   4.183  15.912 -1.1773 -0.7754 -1.4261
    1DOPE    C2   19   3.772   4.002  15.918 -0.0999  0.3911 -0.1940
    1DOPE    HS   20   3.821   3.903  15.934  1.5742  1.4334  1.4740
    1DOPE   O21   21   3.772   4.028  15.773  0.0170 -0.4731 -0.0975
    1DOPE   C21   22   3.881   3.979  15.711  0.7419 -0.2376  0.3486
    1DOPE   O22   23   3.971   3.915  15.761 -0.0351 -0.4207 -0.1450
    1DOPE   C22   24   3.890   4.040  15.571  0.5030  0.0374 -0.2645
    1DOPE   H2R   25   3.882   4.150  15.582  1.8819  0.0728  0.6019
    1DOPE   H2S   26   3.799   4.002  15.519  0.2960 -2.3523  1.6445
    1DOPE    C3   27   3.629   3.987  15.973 -0.5537 -0.2017  0.6683
    1DOPE    HX   28   3.576   4.084  15.959 -1.1455 -0.4219  1.3312
    1DOPE    HY   29   3.633   3.958  16.080 -3.7286 -1.0160  0.6764
    1DOPE   O31   30   3.559   3.890  15.885 -0.4982  0.2106  0.8524
    1DOPE   C31   31   3.602   3.761  15.902  0.5247  0.0640  0.1096
    1DOPE   O32   32   3.669   3.729  15.996  0.1360  0.4961 -0.5191
    1DOPE   C32   33   3.544   3.673  15.793  0.5459  0.1236  0.0901
    1DOPE   H2X   34   3.549   3.564  15.814 -1.3859  0.6349  4.1700
    1DOPE   H2Y   35   3.437   3.702  15.787  0.5067 -0.1220 -0.5437
    1DOPE   C23   36   4.010   3.991  15.483 -0.5177  0.1875 -0.2308
    1DOPE   H3R   37   4.038   3.884  15.493 -0.3624  0.2977  0.5735
    1DOPE   H3S   38   4.097   4.035  15.536  0.0810 -2.9037  1.5826
    1DOPE   C24   39   4.000   4.027  15.336  0.0032 -0.1543 -0.2068
    1DOPE   H4R   40   3.990   4.138  15.333 -0.0048 -0.1024  1.0992
    1DOPE   H4S   41   3.900   3.991  15.303  0.2856 -0.7818 -0.3861
    1DOPE   C25   42   4.124   3.984  15.245  0.1105  1.0539  0.3574
    1DOPE   H5R   43   4.172   3.891  15.284  0.2578  0.6858 -0.6788
    1DOPE   H5S   44   4.204   4.061  15.246  1.0905  0.1762 -2.2301
    1DOPE   C26   45   4.087   3.963  15.100  0.0856  0.9028  0.1042
    1DOPE   H6R   46   4.002   3.895  15.081  1.0916 -0.0250 -1.2549
    1DOPE   H6S   47   4.168   3.907  15.049 -0.9309 -0.6600  0.1444
    1DOPE   C27   48   4.048   4.101  15.043  0.0527  0.4232  0.3890
    1DOPE   H7R   49   4.127   4.179  15.048  0.1628  0.3999 -0.6880
    1DOPE   H7S   50   3.975   4.155  15.108  1.6525  0.8272  1.9229
    1DOPE   C28   51   3.991   4.094  14.894  0.6919 -0.2087 -0.7477
    1DOPE   H8R   52   3.951   4.192  14.862 -2.2992 -1.9583 -2.8665
    1DOPE   H8S   53   3.899   4.033  14.907  2.4421 -2.6420  1.2524
    1DOPE   C29   54   4.091   4.037  14.795  0.2296 -0.4681 -0.4337
    1DOPE   H9R   55   4.155   3.969  14.853 -1.0120  0.5900  2.3482
    1DOPE  C210   56   4.103   4.080  14.666 -0.2580 -0.4041 -0.7802
    1DOPE  H10R   57   4.179   4.035  14.601 -0.9026  0.4030 -2.1245
    1DOPE  C211   58   4.009   4.175  14.588 -0.0597  0.3909 -0.3840
    1DOPE  H11R   59   3.947   4.228  14.664  0.9163  1.3130 -0.2150
    1DOPE  H11S   60   3.954   4.117  14.511  0.9821 -2.1702  0.7055
    1DOPE  C212   61   4.100   4.281  14.521  0.0733  0.1210 -0.4627
    1DOPE  H12R   62   4.168   4.236  14.446  0.8563  2.3586 -1.1702
    1DOPE  H12S   63   4.157   4.332  14.601 -0.9297 -0.0555  0.3906
    1DOPE  C213   64   4.021   4.392  14.445  0.0101  0.6062  0.1537
    1DOPE  H13R   65   3.935   4.423  14.508  0.9515 -0.7123  2.1973
    1DOPE  H13S   66   3.973   4.337  14.362  0.5719 -2.2704  1.6239
    1DOPE  C214   67   4.105   4.513  14.389  0.1036  0.1769  0.2219
    1DOPE  H14R   68   4.175   4.493  14.305  2.3053  0.9400  1.7683
    1DOPE  H14S   69   4.155   4.568  14.471 -0.9460  1.7370 -0.1479
    1DOPE  C215   70   3.998   4.608  14.339  0.3276 -0.6121  0.1823
    1DOPE  H15R   71   3.911   4.600  14.407  1.0760  0.7300  1.3628
    1DOPE  H15S   72   3.968   4.571  14.238 -0.0513 -0.5017  0.2560
    1DOPE  C216   73   4.046   4.754  14.329 -0.6966  0.2097  0.6326
    1DOPE  H16R   74   4.106   4.777  14.419 -0.9557  0.5696  0.7111
    1DOPE  H16S   75   3.962   4.826  14.332 -0.0896  0.9343  0.6124
    1DOPE  C217   76   4.138   4.775  14.206 -0.1769  0.5768 -0.4609
    1DOPE  H17R   77   4.066   4.750  14.125 -0.5350  2.1886 -0.6725
    1DOPE  H17S   78   4.226   4.708  14.198  1.2878  2.3728 -0.0493
    1DOPE  C218   79   4.205   4.908  14.202 -0.3248 -0.7017 -0.0521
    1DOPE  H18R   80   4.295   4.899  14.266 -1.6423  2.1250  2.4882
    1DOPE  H18S   81   4.140   4.991  14.239  1.2313  1.0039 -0.9945
    1DOPE  H18T   82   4.229   4.925  14.095  1.0347  0.6137  0.4269
    1DOPE   C33   83   3.609   3.703  15.653 -0.5494  0.3942 -0.3802
    1DOPE   H3X   84   3.716   3.674  15.661 -0.7128  0.2298  1.9714
    1DOPE   H3Y   85   3.598   3.812  15.638 -0.1893  0.5129  0.1710
    1DOPE   C34   86   3.553   3.628  15.536 -0.4938  0.0679 -0.0262
    1DOPE   H4X   87   3.589   3.524  15.556  0.5131  0.3323 -0.3753
    1DOPE   H4Y   88   3.442   3.621  15.530 -0.3136 -3.0837 -2.9634
    1DOPE   C35   89   3.592   3.684  15.403  0.1157  0.6519  0.3393
    1DOPE   H5X   90   3.554   3.610  15.330  1.0936 -1.2135  1.6190
    1DOPE   H5Y   91   3.703   3.695  15.394  0.4930 -1.3693  1.8082
    1DOPE   C36   92   3.523   3.819  15.370 -0.4415  0.0163  0.2040
    1DOPE   H6X   93   3.529   3.876  15.466  0.4295  0.0620  0.1309
    1DOPE   H6Y   94   3.414   3.816  15.349 -0.6972  0.0619  1.4380
    1DOPE   C37   95   3.585   3.899  15.255  0.6668 -0.1754  0.3117
    1DOPE   H7X   96   3.549   4.003  15.270  1.1664 -0.0403  0.6143
    1DOPE   H7Y   97   3.695   3.886  15.258  0.6407 -0.8331 -0.9234
    1DOPE   C38   98   3.546   3.846  15.119  0.4137  0.2100  0.5367
    1DOPE   H8X   99   3.567   3.923  15.042  0.5087 -0.8236 -0.5079
    1DOPE   H8Y  100   3.437   3.824  15.125  0.3443  0.7909  1.5262
    1DOPE   C39  101   3.618   3.713  15.085  0.1041 -0.4411  0.3533
    1DOPE   H9X  102   3.728   3.716  15.097  0.4326 -1.2670 -1.8797
    1DOPE  C310  103   3.560   3.607  15.027  0.0707 -0.4487  0.2140
    1DOPE  H10X  104   3.626   3.521  15.011  0.3756 -0.4876  1.5390
    1DOPE  C311  105   3.415   3.573  14.987 -0.0841 -0.5435 -0.7963
    1DOPE  H11X  106   3.386   3.471  15.020 -0.7313  0.1465  0.8508
    1DOPE  H11Y  107   3.339   3.635  15.040  0.2063 -1.5207  0.8251
    1DOPE  C312  108   3.394   3.598  14.833 -0.0701 -0.1676 -0.3567
    1DOPE  H12X  109   3.398   3.708  14.813  1.9412 -0.3575 -1.3472
    1DOPE  H12Y  110   3.285   3.582  14.818 -0.1429 -3.0916  2.2952
    1DOPE  C313  111   3.492   3.537  14.731 -0.1436  0.6530 -0.3567
    1DOPE  H13X  112   3.464   3.592  14.638 -0.9493  1.2275  0.2092
    1DOPE  H13Y  113   3.595   3.568  14.756 -0.5695  0.0595  2.4948
    1DOPE  C314  114   3.476   3.391  14.710 -0.3912  0.1164 -0.3357
    1DOPE  H14X  115   3.372   3.372  14.678 -0.1910 -1.2107 -0.2328
    1DOPE  H14Y  116   3.490   3.338  14.806  0.3508  0.8809 -0.0051
    1DOPE  C315  117   3.571   3.333  14.609 -0.4130 -0.0496  0.6537
    1DOPE  H15X  118   3.674   3.368  14.635  0.3782 -0.4472 -1.7269
    1DOPE  H15Y  119   3.554   3.376  14.508  1.9443  1.6284  0.8827
    1DOPE  C316  120   3.574   3.184  14.607 -0.3130  0.6675 -0.3390
    1DOPE  H16X  121   3.467   3.155  14.613  0.3909 -2.0117  3.4135
    1DOPE  H16Y  122   3.614   3.150  14.705 -0.0332  1.5276 -0.1476
    1DOPE  C317  123   3.651   3.118  14.490 -0.1886 -0.6484  0.0460
    1DOPE  H17X  124   3.743   3.179  14.489 -2.0174  2.3420  0.9761
    1DOPE  H17Y  125   3.681   3.017  14.526  1.0817 -2.0294 -4.3104
    1DOPE  C318  126   3.581   3.125  14.358 -0.4314  0.3631  0.2726
    1DOPE  H18X  127   3.551   3.227  14.324  0.8205  0.1361 -1.6415
    1DOPE  H18Y  128   3.629   3.071  14.274 -0.6929 -0.0462  0.3800
    1DOPE  H18Z  129   3.485   3.070  14.371  0.2617 -1.5788 -2.1270
    2DOPE     N  130   5.305   3.652  16.585  0.2968 -0.5342  0.0529
    2DOPE   HN1  131   5.334   3.741  16.630 -0.9514  0.6012 -1.2929
    2DOPE   HN2  132   5.357   3.574  16.631 -0.3220 -0.7730  0.3573
    2DOPE   HN3  133   5.334   3.655  16.485  0.8944  1.2189  0.2524
    2DOPE   C12  134   5.157   3.629  16.604  0.2630  0.0032 -0.1904
    2DOPE  H12A  135   5.133   3.632  16.713  0.2130 -0.2488 -0.1929
    2DOPE  H12B  136   5.137   3.525  16.569  1.7373  0.4806 -2.6539
    2DOPE   C11  137   5.076   3.733  16.537  0.0761 -0.7190  0.4813
    2DOPE  H11A  138   4.969   3.705  16.544 -0.4787  1.3582  0.6606
    2DOPE  H11B  139   5.099   3.745  16.429 -1.2038  0.3017  0.3013
    2DOPE     P  140   5.096   3.993  16.543  0.2682 -0.2508  0.0018
    2DOPE   O13  141   5.140   4.092  16.643 -0.7439  0.1718 -0.1497
    2DOPE   O14  142   4.969   4.022  16.474  0.0985 -0.8465 -0.9872
    2DOPE   O11  143   5.202   3.966  16.437 -0.0354  0.5480 -0.2227
    2DOPE   O12  144   5.090   3.857  16.610  0.2259 -0.5065  0.1844
    2DOPE    C1  145   5.317   4.049  16.420  0.6973 -0.3269 -0.1397
    2DOPE    HA  146   5.394   3.990  16.366  0.9052  0.0410 -0.2513
    2DOPE    HB  147   5.365   4.076  16.517 -1.3550 -0.1214  0.8843
    2DOPE    C2  148   5.281   4.164  16.325 -0.2808 -0.6014 -0.0203
    2DOPE    HS  149   5.186   4.202  16.367  0.1841  0.2750  0.2607
    2DOPE   O21  150   5.275   4.124  16.186 -0.3346  0.0629 -0.5794
    2DOPE   C21  151   5.168   4.176  16.121 -1.3528 -0.2525  0.4250
    2DOPE   O22  152   5.108   4.278  16.161 -0.2028 -0.2214 -0.3569
    2DOPE   C22  153   5.126   4.100  15.993  0.4808  0.1297  0.3231
    2DOPE   H2R  154   5.116   3.990  16.006  0.1558  0.1529  0.2781
    2DOPE   H2S  155   5.204   4.121  15.916  2.4734 -1.3677  1.8343
    2DOPE    C3  156   5.386   4.286  16.341  0.1148 -0.3360 -0.6779
    2DOPE    HX  157   5.490   4.248  16.333  0.2406 -0.5555  1.4206
    2DOPE    HY  158   5.378   4.319  16.447  1.1018  1.6841 -1.1878
    2DOPE   O31  159   5.351   4.402  16.255 -0.1567 -0.5125  0.8028
    2DOPE   C31  160   5.426   4.415  16.146  0.2022  0.0423 -0.1657
    2DOPE   O32  161   5.532   4.357  16.124 -0.5913  0.2556 -0.2199
    2DOPE   C32  162   5.365   4.509  16.051  0.2468  0.0050  0.2554
    2DOPE   H2X  163   5.262   4.542  16.076 -0.1016 -1.4654  0.8913
    2DOPE   H2Y  164   5.436   4.595  16.059  0.3423  0.0766 -1.1217
    2DOPE   C23  165   4.993   4.152  15.932  0.0941 -0.4649  0.2838
    2DOPE   H3R  166   4.917   4.179  16.009  0.4468  1.6149 -0.0230
    2DOPE   H3S  167   4.959   4.080  15.855 -1.8858  0.5175  0.1545
    2DOPE   C24  168   5.022   4.280  15.849  0.2552  0.4633  0.7422
    2DOPE   H4R  169   5.096   4.246  15.774 -0.8809 -1.0213  0.2349
    2DOPE   H4S  170   5.058   4.369  15.905  0.6275  1.1074 -0.5035
    2DOPE   C25  171   4.906   4.331  15.758 -0.1160  0.1274 -0.2524
    2DOPE   H5R  172   4.937   4.417  15.696 -0.9953  1.5005  1.1200
    2DOPE   H5S  173   4.824   4.367  15.825 -0.0283 -0.3500  0.1221
    2DOPE   C26  174   4.836   4.216  15.689 -0.1377  0.5477  0.3846
    2DOPE   H6R  175   4.794   4.144  15.764  0.4714  1.2386  1.4122
    2DOPE   H6S  176   4.916   4.163  15.633 -1.4420  2.5175 -3.6591
    2DOPE   C27  177   4.739   4.263  15.582 -0.7629 -0.2359  0.5887
    2DOPE   H7R  178   4.743   4.194  15.494 -0.3295  1.3862 -0.7210
    2DOPE   H7S  179   4.775   4.359  15.540 -1.5202 -0.3796 -0.4477
    2DOPE   C28  180   4.595   4.271  15.630  0.8768 -0.1721  0.0117
    2DOPE   H8R  181   4.569   4.172  15.673 -3.9332 -0.1485 -2.2070
    2DOPE   H8S  182   4.533   4.264  15.538  2.2343  0.5593 -1.0034
    2DOPE   C29  183   4.543   4.390  15.706  0.3177  0.0390 -0.3286
    2DOPE   H9R  184   4.585   4.403  15.807 -1.6197  0.1795  0.5075
    2DOPE  C210  185   4.444   4.479  15.680 -0.3183  0.9054  0.2750
    2DOPE  H10R  186   4.404   4.534  15.766 -0.2321  1.3884  0.0120
    2DOPE  C211  187   4.360   4.493  15.553 -0.0953  0.0115  0.5892
    2DOPE  H11R  188   4.417   4.469  15.461 -1.0992  1.7092 -0.5333
    2DOPE  H11S  189   4.326   4.598  15.542 -1.0326 -0.3345  0.0679
    2DOPE  C212  190   4.242   4.394  15.540  0.6723  0.1058  0.4417
    2DOPE  H12R  191   4.189   4.402  15.637 -0.2304  1.2266 -0.1274
    2DOPE  H12S  192   4.269   4.288  15.516 -0.4693 -0.1685  0.3234
    2DOPE  C213  193   4.144   4.440  15.429  0.0409  0.4719 -0.3231
    2DOPE  H13R  194   4.098   4.536  15.461  0.7737  0.1226  1.9665
    2DOPE  H13S  195   4.053   4.376  15.428 -0.2582  0.8018  1.7721
    2DOPE  C214  196   4.214   4.466  15.295 -0.6849 -0.4144  0.0945
    2DOPE  H14R  197   4.295   4.393  15.275  0.3698  0.4057  1.2857
    2DOPE  H14S  198   4.247   4.571  15.304 -0.8783 -0.2665 -0.8064
    2DOPE  C215  199   4.111   4.457  15.183  0.4014 -0.1656 -0.0534
    2DOPE  H15R  200   4.025   4.516  15.222  0.5897  0.8182 -1.0873
    2DOPE  H15S  201   4.065   4.355  15.181 -1.2675  0.5382  0.6176
    2DOPE  C216  202   4.163   4.497  15.046  0.2765 -0.4794  0.1928
    2DOPE  H16R  203   4.244   4.429  15.015  1.4681  0.7565  0.5195
    2DOPE  H16S  204   4.219   4.593  15.043  1.1230 -1.0039 -1.6622
    2DOPE  C217  205   4.048   4.506  14.943  0.3122  0.4661  0.4960
    2DOPE  H17R  206   3.970   4.561  14.999  1.1158  0.3325  1.7772
    2DOPE  H17S  207   4.020   4.405  14.906 -2.0224  0.5657  1.7783
    2DOPE  C218  208   4.082   4.580  14.812 -0.4925 -0.0747 -0.1232
    2DOPE  H18R  209   3.994   4.584  14.745  0.4643 -0.5408 -1.4614
    2DOPE  H18S  210   4.159   4.521  14.757 -2.0235  0.0695 -2.5890
    2DOPE  H18T  211   4.118   4.682  14.835 -1.3817 -0.1905  1.9718
    2DOPE   C33  212   5.361   4.455  15.904 -0.0848  0.1295  0.4106
    2DOPE   H3X  213   5.297   4.364  15.904  0.2483 -0.1112  0.8567
    2DOPE   H3Y  214   5.462   4.439  15.861 -0.0440 -0.3885  0.6944
    2DOPE   C34  215   5.279   4.548  15.803 -0.2620  0.2456 -0.1004
    2DOPE   H4X  216   5.171   4.549  15.828  0.0437  1.0526  1.3426
    2DOPE   H4Y  217   5.317   4.650  15.824  1.0471 -0.4193  0.9167
    2DOPE   C35  218   5.317   4.517  15.654  0.0682  0.3285 -0.2639
    2DOPE   H5X  219   5.297   4.409  15.637 -0.4182  0.0778  1.7116
    2DOPE   H5Y  220   5.425   4.543  15.648  0.2783 -0.0298  1.4655
    2DOPE   C36  221   5.248   4.598  15.547 -0.0506  0.0162 -0.0979
    2DOPE   H6X  222   5.267   4.707  15.560  0.5162 -0.0191 -0.5769
    2DOPE   H6Y  223   5.140   4.581  15.567 -0.2154  1.6625  0.5669
    2DOPE   C37  224   5.288   4.552  15.404  0.5903  0.4868  0.0256
    2DOPE   H7X  225   5.396   4.572  15.386  0.5913  1.6121  1.1671
    2DOPE   H7Y  226   5.268   4.443  15.400  2.8673 -0.0852  1.9771
    2DOPE   C38  227   5.207   4.617  15.291 -0.2040 -0.2210  0.3799
    2DOPE   H8X  228   5.225   4.727  15.296  1.9059 -0.5394  0.6117
    2DOPE   H8Y  229   5.097   4.609  15.306  0.1595  0.0425  4.1488
    2DOPE   C39  230   5.240   4.557  15.158  0.1466  0.4874 -0.1913
    2DOPE   H9X  231   5.329   4.590  15.103  0.9078 -1.9086 -0.5296
    2DOPE  C310  232   5.183   4.451  15.095 -0.0789 -0.1990 -0.0811
    2DOPE  H10X  233   5.210   4.440  14.989 -3.2514 -0.0459 -1.0101
    2DOPE  C311  234   5.068   4.372  15.152  0.3458 -0.3540 -0.4411
    2DOPE  H11X  235   5.047   4.407  15.255  2.7986  1.0000 -0.3105
    2DOPE  H11Y  236   4.974   4.373  15.093  1.0673 -1.5126 -1.6583
    2DOPE  C312  237   5.106   4.213  15.167 -0.8133 -0.1301  0.4917
    2DOPE  H12X  238   5.193   4.213  15.236 -0.3621 -1.6792 -0.0320
    2DOPE  H12Y  239   5.132   4.177  15.065 -0.6373  1.9072 -0.2183
    2DOPE  C313  240   4.986   4.139  15.224 -0.5606  0.2607 -0.0285
    2DOPE  H13X  241   4.931   4.197  15.301 -1.3530  0.5190 -0.7690
    2DOPE  H13Y  242   4.906   4.139  15.147  1.6240 -0.6551 -2.4313
    2DOPE  C314  243   5.016   3.996  15.264  0.3838 -0.0131 -0.4699
    2DOPE  H14X  244   5.109   3.963  15.214  0.2500  1.0023 -1.4302
    2DOPE  H14Y  245   4.937   3.929  15.223 -2.0534  1.4633  1.5665
    2DOPE  C315  246   5.018   3.980  15.416 -0.3305  0.2642  0.4364
    2DOPE  H15X  247   4.930   4.027  15.463  1.7161  3.6404  1.2696
    2DOPE  H15Y  248   5.104   4.042  15.451  0.4539 -0.8965  0.6195
    2DOPE  C316  249   5.033   3.832  15.462  0.5712  0.3516 -0.5202
    2DOPE  H16X  250   5.090   3.782  15.381  0.2427 -2.5383  0.8911
    2DOPE  H16Y  251   4.937   3.777  15.470  1.4534 -1.2629 -0.7365
    2DOPE  C317  252   5.117   3.828  15.596 -0.6701 -0.4185  0.0313
    2DOPE  H17X  253   5.218   3.871  15.576 -0.8965  0.9994  1.7367
    2DOPE  H17Y  254   5.070   3.887  15.676 -1.8509 -1.0624 -0.1672
    2DOPE  C318  255   5.137   3.680  15.633 -0.0044  0.1442 -0.1082
    2DOPE  H18X  256   5.198   3.677  15.726  0.2938  1.7939 -0.2176
    2DOPE  H18Y  257   5.039   3.638  15.664 -0.5574 -0.0167 -1.9562
    2DOPE  H18Z  258   5.178   3.617  15.552 -0.7343  0.8339 -1.0350
    3DOPE     N  259   4.113   5.199  16.422 -0.3306  0.6364 -0.2301
    3DOPE   HN1  260   4.163   5.135  16.487 -0.0529  0.2827 -0.7826
    3DOPE   HN2  261   4.185   5.251  16.369  0.0724 -2.0120 -2.4770
    3DOPE   HN3  262   4.055   5.270  16.470 -2.4943  0.0478 -1.8217
    3DOPE   C12  263   4.018   5.124  16.328 -0.2660 -0.1418 -0.3190
    3DOPE  H12A  264   3.978   5.196  16.253 -1.7470 -1.5397 -0.9425
    3DOPE  H12B  265   3.936   5.072  16.382 -1.3629  1.0176 -0.8204
    3DOPE   C11  266   4.102   5.024  16.248  0.4169  0.7966 -0.4005
    3DOPE  H11A  267   4.037   5.005  16.159 -0.0484 -0.3598  0.1664
    3DOPE  H11B  268   4.112   4.928  16.301 -0.6557 -0.0332 -1.6345
    3DOPE     P  269   4.255   5.156  16.080 -0.0319 -0.1077  0.2664
    3DOPE   O13  270   4.386   5.121  16.022  0.0527  0.1139 -0.4191
    3DOPE   O14  271   4.222   5.297  16.098  0.3694  0.0786  0.5357
    3DOPE   O11  272   4.144   5.093  15.981  0.3243  0.5825  0.6499
    3DOPE   O12  273   4.231   5.078  16.216  0.1767 -0.4505 -0.2849
    3DOPE    C1  274   4.154   4.958  15.937  0.3834  0.6762  0.0448
    3DOPE    HA  275   4.053   4.912  15.935 -0.1103  1.3568  3.2765
    3DOPE    HB  276   4.208   4.894  16.011  0.7475  1.7281  0.7178
    3DOPE    C2  277   4.207   4.965  15.788  0.2573 -0.1255 -0.1071
    3DOPE    HS  278   4.299   5.027  15.780 -0.2556  0.8567  1.2360
    3DOPE   O21  279   4.092   5.030  15.724 -0.0876  0.2787  0.3854
    3DOPE   C21  280   4.123   5.131  15.645 -0.3069 -0.1628  0.0425
    3DOPE   O22  281   4.224   5.198  15.646 -0.2968 -0.2155 -0.0428
    3DOPE   C22  282   4.021   5.140  15.531 -0.0676 -0.4166  0.0110
    3DOPE   H2R  283   3.919   5.158  15.570  0.7302  0.7742  1.6707
    3DOPE   H2S  284   4.025   5.040  15.483 -2.1498 -0.8512  0.6310
    3DOPE    C3  285   4.246   4.824  15.728 -0.4172  0.1117  0.7302
    3DOPE    HX  286   4.161   4.753  15.737  0.8451 -1.6514 -0.6551
    3DOPE    HY  287   4.332   4.788  15.788 -0.6982  2.2564  2.5882
    3DOPE   O31  288   4.286   4.836  15.593 -0.4732  0.2987 -0.4947
    3DOPE   C31  289   4.404   4.896  15.575  0.1387  0.1122 -0.2612
    3DOPE   O32  290   4.480   4.920  15.663 -0.2576 -0.3213 -0.4852
    3DOPE   C32  291   4.427   4.925  15.432 -0.1485 -0.1923  0.7085
    3DOPE   H2X  292   4.431   4.826  15.382 -0.0015  0.0556  0.2242
    3DOPE   H2Y  293   4.343   4.980  15.385  1.6426  0.9997 -1.3001
    3DOPE   C23  294   4.072   5.236  15.424  0.0449  0.2158  0.1901
    3DOPE   H3R  295   4.177   5.212  15.398  0.2124  1.8697 -0.7924
    3DOPE   H3S  296   4.065   5.339  15.466  0.7901 -0.1555  1.2606
    3DOPE   C24  297   3.989   5.222  15.296  0.1133  0.1485  0.0138
    3DOPE   H4R  298   4.026   5.297  15.223  1.2470  0.9075  1.3091
    3DOPE   H4S  299   3.883   5.246  15.319  0.9183  2.2944  1.9528
    3DOPE   C25  300   3.997   5.086  15.236 -0.2531 -0.5409 -0.0704
    3DOPE   H5R  301   3.934   5.008  15.283 -0.1534 -2.8654 -3.4409
    3DOPE   H5S  302   4.103   5.054  15.237  0.3610  1.2763 -1.0409
    3DOPE   C26  303   3.947   5.084  15.090 -0.5634  0.1461 -0.2251
    3DOPE   H6R  304   4.015   5.150  15.031  3.0197 -0.5950  2.7565
    3DOPE   H6S  305   3.847   5.125  15.063 -0.3428 -0.2070 -1.6672
    3DOPE   C27  306   3.968   4.940  15.030  0.7398 -0.6623 -0.4231
    3DOPE   H7R  307   3.931   4.864  15.102  0.5747 -0.4984 -0.3367
    3DOPE   H7S  308   4.075   4.926  15.003  1.5141  1.5511  1.2484
    3DOPE   C28  309   3.888   4.920  14.902 -0.3129 -0.3722  0.0344
    3DOPE   H8R  310   3.923   4.821  14.864  1.1439  0.8557 -2.0041
    3DOPE   H8S  311   3.920   5.000  14.832  1.8594 -0.8235  0.4203
    3DOPE   C29  312   3.735   4.920  14.917 -0.4962  0.1111  0.0565
    3DOPE   H9R  313   3.699   4.983  15.000 -1.8103  0.0035 -0.4098
    3DOPE  C210  314   3.657   4.868  14.818  0.1645  0.1791 -0.6878
    3DOPE  H10R  315   3.552   4.900  14.816  0.7916  2.5216  0.6122
    3DOPE  C211  316   3.697   4.793  14.693  0.5981 -0.4539  0.1427
    3DOPE  H11R  317   3.621   4.714  14.677  0.5559 -0.8528  2.0667
    3DOPE  H11S  318   3.802   4.756  14.693  0.7500 -0.1606  2.3769
    3DOPE  C212  319   3.664   4.887  14.574 -0.1324  0.6956  0.1226
    3DOPE  H12R  320   3.557   4.891  14.545 -0.2907 -1.5238  0.2582
    3DOPE  H12S  321   3.696   4.818  14.493  0.0980  2.6656 -1.5386
    3DOPE  C213  322   3.735   5.022  14.569  0.7994 -0.0740  0.1544
    3DOPE  H13R  323   3.830   5.016  14.627  0.5237 -3.3853  0.4250
    3DOPE  H13S  324   3.673   5.090  14.633 -0.6650 -0.4555 -0.8115
    3DOPE  C214  325   3.768   5.080  14.432 -0.2747 -0.6320  1.0599
    3DOPE  H14R  326   3.798   4.996  14.365  0.5761 -0.5246  1.2930
    3DOPE  H14S  327   3.852   5.153  14.435 -0.0354 -0.8849  0.5881
    3DOPE  C215  328   3.645   5.162  14.382 -0.0896 -0.3587 -0.4952
    3DOPE  H15R  329   3.621   5.233  14.464 -2.5302 -0.2317 -1.2501
    3DOPE  H15S  330   3.558   5.093  14.381 -1.2261  1.0191 -2.5036
    3DOPE  C216  331   3.674   5.234  14.248  0.6724 -0.0340 -0.2494
    3DOPE  H16R  332   3.737   5.173  14.180  0.3621  1.2628 -1.7558
    3DOPE  H16S  333   3.748   5.316  14.266 -0.0419  0.7831 -0.9582
    3DOPE  C217  334   3.549   5.286  14.185  0.6220  0.1116  0.4240
    3DOPE  H17R  335   3.502   5.380  14.222 -1.0382 -0.8477  0.8457
    3DOPE  H17S  336   3.483   5.202  14.216 -0.4664  0.9433  0.3968
    3DOPE  C218  337   3.547   5.274  14.030  0.0947 -0.0957 -0.0717
    3DOPE  H18R  338   3.586   5.369  13.988 -1.1524  0.5528  0.2002
    3DOPE  H18S  339   3.446   5.257  13.988  0.5762 -1.7420 -0.6645
    3DOPE  H18T  340   3.600   5.182  13.997  2.4683  1.3857 -0.6300
    3DOPE   C33  341   4.553   5.016  15.398  0.7593  0.4439  0.0412
    3DOPE   H3X  342   4.638   5.002  15.469  0.1416 -1.0252  0.5318
    3DOPE   H3Y  343   4.514   5.116  15.427  1.6804  0.7736  0.1675
    3DOPE   C34  344   4.594   5.013  15.252 -0.6779 -0.5100 -0.5078
    3DOPE   H4X  345   4.682   5.081  15.245 -1.5651  0.7524  0.1842
    3DOPE   H4Y  346   4.629   4.915  15.213  0.9269 -1.1762  2.3329
    3DOPE   C35  347   4.495   5.087  15.158 -0.1454  0.3152 -0.5094
    3DOPE   H5X  348   4.397   5.036  15.166 -0.1763  0.1419 -1.8013
    3DOPE   H5Y  349   4.531   5.062  15.056  0.7266 -2.5401  0.4116
    3DOPE   C36  350   4.488   5.238  15.169  0.7319  1.6109 -0.7262
    3DOPE   H6X  351   4.594   5.271  15.173  1.2410 -0.0201 -0.3368
    3DOPE   H6Y  352   4.437   5.270  15.262  1.3391  2.2489 -0.6041
    3DOPE   C37  353   4.422   5.304  15.048 -0.7328  0.1795  0.5948
    3DOPE   H7X  354   4.489   5.282  14.963  0.1723  1.5468  0.9270
    3DOPE   H7Y  355   4.319   5.261  15.043 -0.9224  0.6950  0.0157
    3DOPE   C38  356   4.405   5.453  15.069 -0.2490  0.2846 -0.0202
    3DOPE   H8X  357   4.502   5.507  15.058 -0.7726  1.6238  1.6805
    3DOPE   H8Y  358   4.370   5.473  15.172  0.5329  0.1346  0.2831
    3DOPE   C39  359   4.322   5.516  14.959 -0.5977  0.1050 -0.4025
    3DOPE   H9X  360   4.217   5.530  14.990 -1.0454 -3.0502 -0.0963
    3DOPE  C310  361   4.353   5.542  14.828  0.1264 -0.0896  0.5397
    3DOPE  H10X  362   4.291   5.612  14.771  1.6320 -0.4859 -1.7174
    3DOPE  C311  363   4.487   5.521  14.756  0.2695  0.4542  0.7019
    3DOPE  H11X  364   4.569   5.492  14.826  0.1375  1.5187  1.3209
    3DOPE  H11Y  365   4.473   5.442  14.680 -1.0060  0.9363  0.4133
    3DOPE  C312  366   4.533   5.659  14.699  0.0592  0.0728  0.2828
    3DOPE  H12X  367   4.582   5.707  14.786  2.9383 -0.2949 -1.0228
    3DOPE  H12Y  368   4.450   5.724  14.663  0.0878  0.4961  0.9756
    3DOPE  C313  369   4.636   5.644  14.586  0.4639  0.7646  0.0747
    3DOPE  H13X  370   4.711   5.571  14.624 -1.0844 -0.2906  1.2393
    3DOPE  H13Y  371   4.581   5.611  14.495  0.0856  2.2771 -0.2816
    3DOPE  C314  372   4.713   5.770  14.562 -0.4169  1.3574 -0.0211
    3DOPE  H14X  373   4.766   5.798  14.656 -0.5739  0.0970  0.4582
    3DOPE  H14Y  374   4.646   5.854  14.535 -0.7240  0.3937 -2.5998
    3DOPE  C315  375   4.821   5.747  14.455 -0.3417  0.6999  0.0632
    3DOPE  H15X  376   4.779   5.754  14.352 -0.4647  1.7132  0.1713
    3DOPE  H15Y  377   4.868   5.646  14.454  2.9079  2.0637 -1.9642
    3DOPE  C316  378   4.942   5.847  14.466 -0.2190 -0.3107 -0.7742
    3DOPE  H16X  379   5.031   5.821  14.404  1.9121  1.8473  1.1908
    3DOPE  H16Y  380   4.982   5.847  14.569  1.0438  0.4153 -1.2385
    3DOPE  C317  381   4.904   5.990  14.429  0.1569 -0.3952 -0.2477
    3DOPE  H17X  382   4.849   5.980  14.333 -2.2941  0.4723  0.9815
    3DOPE  H17Y  383   4.828   6.035  14.496  1.2329 -0.0326  0.7477
    3DOPE  C318  384   5.034   6.076  14.422  0.2738 -0.1928  0.7262
    3DOPE  H18X  385   5.108   6.028  14.354 -0.3850  0.7030 -0.6712
    3DOPE  H18Y  386   5.004   6.178  14.389  1.0137 -0.1712  0.0812
    3DOPE  H18Z  387   5.087   6.093  14.518  2.6670 -0.1472 -0.5293
    4DOPE     N  388   4.821   3.129  15.978 -0.4270  0.6165 -0.1228
    4DOPE   HN1  389   4.850   3.137  15.878  0.0987  1.1574  0.0690
    4DOPE   HN2  390   4.865   3.198  16.041 -0.4126  2.4708 -2.0375
    4DOPE   HN3  391   4.848   3.034  16.009 -0.0140 -0.1836 -2.7118
    4DOPE   C12  392   4.673   3.150  15.975 -0.4685  0.3219  0.0643
    4DOPE  H12A  393   4.654   3.238  15.911 -1.5244  0.1441  0.1159
    4DOPE  H12B  394   4.644   3.175  16.079 -2.2978  0.5770 -0.4705
    4DOPE   C11  395   4.590   3.020  15.926  0.1591  0.5861 -0.0937
    4DOPE  H11A  396   4.635   2.972  15.837 -0.2891 -0.6060  0.2989
    4DOPE  H11B  397   4.489   3.056  15.899  0.4814 -0.8783 -3.8104
    4DOPE     P  398   4.686   2.807  16.051  0.1960  0.3075  0.0988
    4DOPE   O13  399   4.644   2.712  16.160  0.0808 -0.2842  0.3952
    4DOPE   O14  400   4.818   2.867  16.062  0.3333  0.4422  0.2971
    4DOPE   O11  401   4.674   2.722  15.925  0.2438  1.0395 -0.1089
    4DOPE   O12  402   4.585   2.931  16.039  0.4860  0.1464 -0.2344
    4DOPE    C1  403   4.753   2.596  15.912 -0.1083 -0.2152  0.5041
    4DOPE    HA  404   4.689   2.512  15.946 -1.2268 -0.2737 -1.5766
    4DOPE    HB  405   4.838   2.591  15.984 -1.0002 -1.1151  1.5479
    4DOPE    C2  406   4.793   2.568  15.767  0.4833 -0.0599  0.1630
    4DOPE    HS  407   4.854   2.657  15.738 -0.5447  0.7238  0.3511
    4DOPE   O21  408   4.668   2.558  15.697 -0.0254  0.0135  0.6927
    4DOPE   C21  409   4.674   2.585  15.572 -0.4527 -0.0556  0.4161
    4DOPE   O22  410   4.774   2.630  15.519  0.0176 -0.5037  0.7459
    4DOPE   C22  411   4.547   2.540  15.499  0.1860  1.3973 -0.2385
    4DOPE   H2R  412   4.462   2.602  15.536 -1.7440  0.1381 -2.3401
    4DOPE   H2S  413   4.529   2.434  15.529 -1.6183  0.9101 -2.7082
    4DOPE    C3  414   4.881   2.437  15.759 -0.4487  0.0064  0.5744
    4DOPE    HX  415   4.815   2.363  15.810  1.3430 -0.5712  2.1562
    4DOPE    HY  416   4.975   2.451  15.815 -0.0713  2.2186 -0.4999
    4DOPE   O31  417   4.913   2.381  15.630  0.0293  0.0609  0.3962
    4DOPE   C31  418   5.019   2.446  15.568 -0.0496  0.1583  0.6832
    4DOPE   O32  419   5.097   2.521  15.623  0.6690  0.2232 -0.5200
    4DOPE   C32  420   5.039   2.384  15.434 -0.0131  0.1205  0.1381
    4DOPE   H2X  421   5.149   2.396  15.424 -0.1137  2.4367  1.0887
    4DOPE   H2Y  422   5.002   2.279  15.437  0.4641 -0.0624 -0.2350
    4DOPE   C23  423   4.554   2.543  15.344 -0.0221 -0.3656 -0.3808
    4DOPE   H3R  424   4.472   2.488  15.293 -0.7600  0.8716 -0.5772
    4DOPE   H3S  425   4.650   2.498  15.311  0.0314  0.3531 -1.2455
    4DOPE   C24  426   4.534   2.687  15.291  0.5343 -0.1079  0.2131
    4DOPE   H4R  427   4.614   2.756  15.326  2.1126 -1.5180 -0.4482
    4DOPE   H4S  428   4.434   2.715  15.330 -0.4528 -1.0096 -1.4999
    4DOPE   C25  429   4.547   2.695  15.142  0.1291 -0.1705  0.3918
    4DOPE   H5R  430   4.494   2.613  15.089  2.4819 -1.6255  0.1407
    4DOPE   H5S  431   4.655   2.677  15.127 -0.1321 -2.3171  0.7961
    4DOPE   C26  432   4.515   2.836  15.092 -0.6953  0.1674 -0.3069
    4DOPE   H6R  433   4.585   2.897  15.153  2.6667 -2.1809 -1.5585
    4DOPE   H6S  434   4.410   2.859  15.122 -0.7810 -1.1351  0.5128
    4DOPE   C27  435   4.534   2.859  14.943 -0.2560  0.4125  0.0884
    4DOPE   H7R  436   4.643   2.852  14.922 -0.0815 -0.4279  1.1617
    4DOPE   H7S  437   4.493   2.958  14.915 -1.0169 -0.6500 -3.0425
    4DOPE   C28  438   4.464   2.758  14.846 -0.3976  0.0521 -0.2595
    4DOPE   H8R  439   4.354   2.770  14.851 -0.5024  0.7548 -2.6780
    4DOPE   H8S  440   4.494   2.656  14.878  1.4217  1.4688  3.0490
    4DOPE   C29  441   4.519   2.776  14.707  0.0036  0.5224 -0.8563
    4DOPE   H9R  442   4.616   2.724  14.696 -0.5181 -0.9103  0.7891
    4DOPE  C210  443   4.461   2.839  14.605 -0.2870 -0.0478  0.1194
    4DOPE  H10R  444   4.508   2.842  14.505  0.4246  1.6392  0.4775
    4DOPE  C211  445   4.328   2.920  14.610 -0.4940  0.3286 -0.3247
    4DOPE  H11R  446   4.351   3.021  14.650 -0.1553  0.2312 -0.2687
    4DOPE  H11S  447   4.256   2.873  14.681 -1.3630 -0.6109 -1.7616
    4DOPE  C212  448   4.263   2.939  14.471 -0.5152 -0.7262 -0.3680
    4DOPE  H12R  449   4.160   2.971  14.493 -0.3384 -1.0646  1.0473
    4DOPE  H12S  450   4.259   2.838  14.423  2.4656 -1.8547  1.4492
    4DOPE  C213  451   4.340   3.041  14.373  0.0190 -0.3921 -0.2632
    4DOPE  H13R  452   4.422   3.090  14.430 -2.5375  2.1954  1.5009
    4DOPE  H13S  453   4.272   3.129  14.366  2.2067  1.3069 -1.1959
    4DOPE  C214  454   4.382   2.995  14.238 -0.3377  0.5672  0.0464
    4DOPE  H14R  455   4.300   2.935  14.193 -0.3935  2.3947 -2.5074
    4DOPE  H14S  456   4.466   2.923  14.240  1.2818  2.3768  0.4244
    4DOPE  C215  457   4.417   3.107  14.137 -0.2222  0.2357  0.2032
    4DOPE  H15R  458   4.501   3.170  14.175  1.5852 -2.1152  0.3067
    4DOPE  H15S  459   4.327   3.170  14.125 -0.3702  0.2484  1.2606
    4DOPE  C216  460   4.442   3.058  13.997  0.3264  0.5152 -0.0727
    4DOPE  H16R  461   4.367   2.981  13.970  1.6804 -0.9260  0.1123
    4DOPE  H16S  462   4.540   3.005  13.990 -0.8622 -1.5914 -1.5439
    4DOPE  C217  463   4.460   3.175  13.895 -0.4317 -0.3008  0.7301
    4DOPE  H17R  464   4.542   3.231  13.944  0.1142 -2.0238  1.8442
    4DOPE  H17S  465   4.366   3.232  13.909 -0.5168 -0.1555 -0.3659
    4DOPE  C218  466   4.496   3.118  13.755  0.6518 -0.1267  0.0972
    4DOPE  H18R  467   4.578   3.044  13.770 -0.3105 -1.1641  0.4144
    4DOPE  H18S  468   4.532   3.207  13.699 -0.2045  0.8080  0.9910
    4DOPE  H18T  469   4.410   3.074  13.700  0.9986 -2.1701  1.0569
    4DOPE   C33  470   4.980   2.467  15.321 -0.0805  0.8347 -0.1185
    4DOPE   H3X  471   5.027   2.567  15.314  1.2219  0.1167 -2.5969
    4DOPE   H3Y  472   4.870   2.484  15.315 -0.3370 -0.8808 -0.5932
    4DOPE   C34  473   4.997   2.395  15.184 -0.1582  0.8939  0.2684
    4DOPE   H4X  474   5.108   2.396  15.175 -0.2820  1.7122 -1.7622
    4DOPE   H4Y  475   4.969   2.288  15.187  1.0702  0.5746  1.4236
    4DOPE   C35  476   4.938   2.470  15.069  0.5255  0.3576 -0.6725
    4DOPE   H5X  477   5.007   2.468  14.982  1.5976 -0.3185  0.1814
    4DOPE   H5Y  478   4.922   2.578  15.092 -0.1718  0.1370 -0.0899
    4DOPE   C36  479   4.809   2.403  15.020  0.1556 -0.0283  0.0321
    4DOPE   H6X  480   4.731   2.392  15.099  1.2285 -1.6764  0.9190
    4DOPE   H6Y  481   4.845   2.299  15.008 -1.3999 -0.7640  1.2903
    4DOPE   C37  482   4.737   2.463  14.899  0.2354 -0.1023  0.3108
    4DOPE   H7X  483   4.714   2.567  14.929 -1.2719 -0.4047  0.2765
    4DOPE   H7Y  484   4.812   2.471  14.817  2.0155  2.4758  2.0526
    4DOPE   C38  485   4.608   2.389  14.852 -0.2766 -0.6355 -0.4118
    4DOPE   H8X  486   4.555   2.461  14.785 -0.9418 -1.3090 -0.6206
    4DOPE   H8Y  487   4.545   2.356  14.937  0.6146 -1.1038  0.0892
    4DOPE   C39  488   4.636   2.258  14.777 -0.0185  0.5343 -0.1088
    4DOPE   H9X  489   4.663   2.173  14.842 -0.8317 -0.2341 -0.7543
    4DOPE  C310  490   4.645   2.239  14.640  0.3878  0.5790 -0.8874
    4DOPE  H10X  491   4.639   2.134  14.609  0.6470 -0.6126  2.6496
    4DOPE  C311  492   4.616   2.337  14.525  0.5480 -0.2299  0.4750
    4DOPE  H11X  493   4.512   2.322  14.490  1.0797 -1.4277 -0.6930
    4DOPE  H11Y  494   4.628   2.440  14.563  1.4991  0.2988 -1.1470
    4DOPE  C312  495   4.695   2.318  14.396  0.6517 -0.1421 -0.5617
    4DOPE  H12X  496   4.698   2.209  14.370  2.5973 -0.1723 -0.3522
    4DOPE  H12Y  497   4.804   2.337  14.408  0.6139 -1.7319  4.3398
    4DOPE  C313  498   4.641   2.410  14.284  0.1605  0.0819  0.7500
    4DOPE  H13X  499   4.535   2.386  14.262  0.0768  1.9342 -1.2496
    4DOPE  H13Y  500   4.632   2.510  14.333 -1.3255  0.8326 -0.9145
    4DOPE  C314  501   4.731   2.403  14.155 -0.0105  0.1577  0.3730
    4DOPE  H14X  502   4.680   2.327  14.092 -2.7885  3.2676 -1.4593
    4DOPE  H14Y  503   4.836   2.387  14.190 -0.2092  3.4522  2.9943
    4DOPE  C315  504   4.739   2.544  14.083 -0.7062 -0.1506 -0.5474
    4DOPE  H15X  505   4.797   2.614  14.146 -1.7820  0.8922 -0.6743
    4DOPE  H15Y  506   4.635   2.584  14.078 -0.5179  0.4526  0.2124
    4DOPE  C316  507   4.797   2.524  13.941  0.4321  0.5400 -0.4392
    4DOPE  H16X  508   4.899   2.486  13.961 -0.3732 -1.2386  0.5805
    4DOPE  H16Y  509   4.801   2.621  13.886  3.5442 -0.8388 -2.9588
    4DOPE  C317  510   4.726   2.424  13.851  0.5566  0.2933  0.4940
    4DOPE  H17X  511   4.736   2.327  13.903 -0.2825  0.5511  1.1496
    4DOPE  H17Y  512   4.617   2.438  13.834  0.6870  0.1421 -0.5280
    4DOPE  C318  513   4.780   2.410  13.716 -0.3719 -0.3054  0.4312
    4DOPE  H18X  514   4.738   2.325  13.659  0.7492 -0.4186 -0.2469
    4DOPE  H18Y  515   4.758   2.501  13.656  0.7355  0.0199  0.5062
    4DOPE  H18Z  516   4.890   2.403  13.725 -0.3580  1.8136  3.4041
    5DOPE     N  517   2.394   4.771  16.774  0.6890 -0.0748  0.2976
    5DOPE   HN1  518   2.356   4.783  16.678  1.3617  2.4340  0.2531
    5DOPE   HN2  519   2.322   4.743  16.843  0.1439 -0.1477 -0.2891
    5DOPE   HN3  520   2.438   4.860  16.807  4.6008 -2.0309  0.9505
    5DOPE   C12  521   2.496   4.666  16.756 -0.2279  0.5606 -0.4043
    5DOPE  H12A  522   2.549   4.651  16.853  1.0558  0.0501 -1.1596
    5DOPE  H12B  523   2.563   4.700  16.674  1.7302  0.3703  1.0419
    5DOPE   C11  524   2.436   4.528  16.732  0.0461  0.6717  1.1186
    5DOPE  H11A  525   2.385   4.498  16.827 -0.1855 -0.2838  0.7068
    5DOPE  H11B  526   2.512   4.449  16.712 -0.2787 -0.1229  2.7805
    5DOPE     P  527   2.258   4.391  16.603  0.2359 -0.4587 -0.2784
    5DOPE   O13  528   2.141   4.427  16.522  0.1849 -0.0658  0.2513
    5DOPE   O14  529   2.241   4.322  16.734 -0.0276 -0.1946 -0.1658
    5DOPE   O11  530   2.354   4.306  16.511  0.2156  0.8253  0.2631
    5DOPE   O12  531   2.332   4.531  16.632  0.5217  0.1126 -0.6382
    5DOPE    C1  532   2.463   4.366  16.437  0.7031 -0.3859  0.6403
    5DOPE    HA  533   2.527   4.281  16.407  0.3634 -0.2538 -0.4950
    5DOPE    HB  534   2.527   4.434  16.497 -1.4397 -0.3664  3.0892
    5DOPE    C2  535   2.420   4.443  16.303  0.2977 -0.6822  0.5995
    5DOPE    HS  536   2.348   4.520  16.337 -0.5046 -0.2543 -1.9167
    5DOPE   O21  537   2.356   4.351  16.212 -0.0023 -0.4394 -0.6802
    5DOPE   C21  538   2.244   4.385  16.166 -0.1787  0.0169  0.0404
    5DOPE   O22  539   2.185   4.495  16.173 -0.7496  0.3780  0.3693
    5DOPE   C22  540   2.193   4.264  16.083  0.4302 -0.2994  0.4252
    5DOPE   H2R  541   2.155   4.184  16.150  0.8936  0.5115  1.7198
    5DOPE   H2S  542   2.275   4.221  16.022  1.5645  1.5822  0.5330
    5DOPE    C3  543   2.543   4.518  16.236  0.0974  0.4404 -0.0789
    5DOPE    HX  544   2.629   4.448  16.232 -0.3750 -0.1438 -0.2581
    5DOPE    HY  545   2.568   4.608  16.296 -0.6581 -0.3480  1.4863
    5DOPE   O31  546   2.508   4.543  16.096  0.4744  0.2159 -0.0592
    5DOPE   C31  547   2.601   4.615  16.033  0.2971  0.5856 -0.4718
    5DOPE   O32  548   2.688   4.672  16.093 -0.9161 -0.0798  0.7513
    5DOPE   C32  549   2.595   4.604  15.882 -0.0184  0.2977  0.8022
    5DOPE   H2X  550   2.640   4.511  15.841  0.7425  0.1275  1.9812
    5DOPE   H2Y  551   2.486   4.589  15.863  0.1369  1.6700 -1.4669
    5DOPE   C23  552   2.082   4.313  15.986 -0.8888  0.0189 -1.0734
    5DOPE   H3R  553   2.120   4.398  15.926  0.6106  0.3900  0.3166
    5DOPE   H3S  554   1.991   4.348  16.038 -0.5918  0.3554 -0.7693
    5DOPE   C24  555   2.023   4.196  15.901  0.8649 -0.1931 -0.1638
    5DOPE   H4R  556   2.028   4.108  15.969 -0.1162  0.7274  1.1491
    5DOPE   H4S  557   2.082   4.165  15.812 -0.1853  2.1667 -1.7664
    5DOPE   C25  558   1.872   4.203  15.859 -0.7479 -0.4181 -0.3396
    5DOPE   H5R  559   1.851   4.304  15.818 -0.8183 -1.1769 -2.2738
    5DOPE   H5S  560   1.811   4.185  15.951 -0.2305 -1.1077 -0.1244
    5DOPE   C26  561   1.830   4.103  15.750  0.2291 -0.4175 -0.7200
    5DOPE   H6R  562   1.719   4.094  15.745  0.2971 -0.9990 -1.2052
    5DOPE   H6S  563   1.880   4.005  15.766 -2.2790 -1.5982  0.5778
    5DOPE   C27  564   1.880   4.160  15.615 -1.0031  0.0088  0.0138
    5DOPE   H7R  565   1.990   4.160  15.598 -0.9519  2.1484  0.0752
    5DOPE   H7S  566   1.851   4.267  15.614  0.1829  0.3617  0.8405
    5DOPE   C28  567   1.820   4.102  15.488 -0.4620 -0.2142 -0.2676
    5DOPE   H8R  568   1.870   4.158  15.406  1.9461  1.8844  2.4214
    5DOPE   H8S  569   1.717   4.142  15.478  0.6419  2.5128 -1.9414
    5DOPE   C29  570   1.826   3.960  15.464 -0.2618  0.5850  0.0785
    5DOPE   H9R  571   1.821   3.893  15.551  1.2440 -0.9179 -0.9203
    5DOPE  C210  572   1.867   3.902  15.352 -0.9092 -0.6469  0.4860
    5DOPE  H10R  573   1.875   3.792  15.348  0.2424 -0.5625  0.0724
    5DOPE  C211  574   1.899   3.964  15.218 -0.2875  0.0112  0.1060
    5DOPE  H11R  575   1.850   4.063  15.216  2.0888  1.2413 -1.0348
    5DOPE  H11S  576   1.844   3.905  15.141 -1.6001 -0.6352  1.4832
    5DOPE  C212  577   2.049   3.969  15.187 -0.0389  0.4838  0.3244
    5DOPE  H12R  578   2.092   3.871  15.219  1.5023  1.7464  2.3831
    5DOPE  H12S  579   2.091   4.061  15.233  2.2011  0.6745 -1.8909
    5DOPE  C213  580   2.074   3.990  15.038 -0.3902 -1.0068 -0.4477
    5DOPE  H13R  581   2.181   4.002  15.012 -0.6893  0.8774 -0.9719
    5DOPE  H13S  582   2.023   4.080  14.997  1.2784 -0.0755 -0.5425
    5DOPE  C214  583   2.012   3.884  14.943  0.1888  0.2959 -0.0584
    5DOPE  H14R  584   1.907   3.869  14.978  1.0236 -1.3953  1.9020
    5DOPE  H14S  585   2.054   3.782  14.956  2.8586  1.0882 -1.6572
    5DOPE  C215  586   2.024   3.926  14.797 -0.7705  0.5038  1.0848
    5DOPE  H15R  587   2.131   3.924  14.767 -1.0618 -0.5834  0.0332
    5DOPE  H15S  588   1.983   4.029  14.787 -1.5549  0.3083  2.1169
    5DOPE  C216  589   1.956   3.822  14.697  1.1393 -0.3982  0.4034
    5DOPE  H16R  590   1.847   3.811  14.716  1.0118 -0.7798 -0.4788
    5DOPE  H16S  591   1.996   3.719  14.708  0.4343 -0.7923 -0.5162
    5DOPE  C217  592   1.970   3.865  14.545  0.4814  0.1533 -0.1150
    5DOPE  H17R  593   2.066   3.822  14.510  0.6537 -0.6874  1.2839
    5DOPE  H17S  594   1.962   3.976  14.542 -2.0024  0.0253 -1.2320
    5DOPE  C218  595   1.859   3.805  14.457 -0.3219  0.3257 -0.3097
    5DOPE  H18R  596   1.762   3.845  14.493  0.1440  0.7874  0.4723
    5DOPE  H18S  597   1.861   3.695  14.466  0.6355  0.3780  0.2543
    5DOPE  H18T  598   1.874   3.835  14.351 -3.3158 -0.3463 -1.0025
    5DOPE   C33  599   2.632   4.740  15.815 -0.4883  0.0481  0.4462
    5DOPE   H3X  600   2.737   4.757  15.848 -0.1867  0.1207 -0.5271
    5DOPE   H3Y  601   2.573   4.828  15.849  1.0701  0.8337  1.2750
    5DOPE   C34  602   2.636   4.727  15.660 -0.4516 -0.1687  0.0222
    5DOPE   H4X  603   2.690   4.817  15.622 -1.9236  0.3426 -0.9287
    5DOPE   H4Y  604   2.697   4.638  15.634  0.4523  1.1758 -2.9769
    5DOPE   C35  605   2.502   4.722  15.587 -0.0846 -0.3339 -0.4768
    5DOPE   H5X  606   2.452   4.821  15.591 -0.4413 -0.2744 -3.6376
    5DOPE   H5Y  607   2.453   4.643  15.647  1.1251 -1.1943 -0.5756
    5DOPE   C36  608   2.510   4.686  15.439 -0.6964  0.0879  0.2178
    5DOPE   H6X  609   2.407   4.668  15.401 -0.8707  2.2567 -0.4469
    5DOPE   H6Y  610   2.577   4.597  15.431  0.9929  1.3416 -0.1431
    5DOPE   C37  611   2.571   4.791  15.344  0.5485 -0.4478 -0.3341
    5DOPE   H7X  612   2.506   4.881  15.340 -0.0882 -0.9169 -0.9055
    5DOPE   H7Y  613   2.670   4.823  15.380 -0.3979  2.1497  0.1805
    5DOPE   C38  614   2.593   4.735  15.200 -0.3864  0.7773 -0.6832
    5DOPE   H8X  615   2.503   4.681  15.164 -1.0387 -0.5065  2.5526
    5DOPE   H8Y  616   2.671   4.659  15.219  0.3637  1.6102 -0.3414
    5DOPE   C39  617   2.646   4.835  15.106 -0.8418 -0.3106  0.5837
    5DOPE   H9X  618   2.672   4.933  15.147 -0.5246  1.0035 -2.5180
    5DOPE  C310  619   2.658   4.810  14.973  0.8875 -0.5332  0.0857
    5DOPE  H10X  620   2.683   4.889  14.900  0.4362 -1.3318 -0.9640
    5DOPE  C311  621   2.613   4.683  14.905 -0.2280  0.7797 -0.1230
    5DOPE  H11X  622   2.616   4.592  14.969 -0.4854  0.8293 -0.0385
    5DOPE  H11Y  623   2.510   4.703  14.867 -0.5644 -1.7657 -0.7062
    5DOPE  C312  624   2.697   4.633  14.784  0.1310  0.0941  0.4469
    5DOPE  H12X  625   2.799   4.604  14.817 -0.3719 -0.4027  1.6180
    5DOPE  H12Y  626   2.702   4.720  14.716 -2.3888 -0.2293 -0.2513
    5DOPE  C313  627   2.636   4.506  14.713 -0.0076 -0.3470  0.0165
    5DOPE  H13X  628   2.649   4.426  14.788  2.2211 -2.3318 -2.2990
    5DOPE  H13Y  629   2.527   4.511  14.691  0.1648 -1.0119 -1.1073
    5DOPE  C314  630   2.701   4.500  14.579  0.3843 -0.0374  0.0413
    5DOPE  H14X  631   2.811   4.488  14.586  0.4100 -0.0361 -0.3560
    5DOPE  H14Y  632   2.686   4.585  14.509 -1.6543 -0.7885 -0.5023
    5DOPE  C315  633   2.647   4.378  14.507 -0.2253 -0.8817 -0.3422
    5DOPE  H15X  634   2.539   4.386  14.484 -0.3753 -3.1803 -0.7082
    5DOPE  H15Y  635   2.660   4.284  14.565  2.3544 -1.1627 -1.2225
    5DOPE  C316  636   2.730   4.353  14.382 -0.6845 -0.5487 -0.2195
    5DOPE  H16X  637   2.838   4.372  14.401 -0.7850  1.2395 -1.2666
    5DOPE  H16Y  638   2.706   4.430  14.306 -0.0781 -0.7819 -0.6591
    5DOPE  C317  639   2.697   4.219  14.319 -0.3588 -0.2608 -0.8208
    5DOPE  H17X  640   2.711   4.150  14.405 -1.7063  2.7190  2.0081
    5DOPE  H17Y  641   2.588   4.215  14.297 -0.7259  1.1369  0.6031
    5DOPE  C318  642   2.782   4.196  14.194  0.1004  0.7289  0.0361
    5DOPE  H18X  643   2.792   4.288  14.132 -0.0697  1.2672  0.7945
    5DOPE  H18Y  644   2.889   4.170  14.211  0.1726  1.0648  0.0979
    5DOPE  H18Z  645   2.739   4.108  14.142 -1.5823  0.3140  2.0202
    6DOPE     N  646   2.425   5.279  16.611 -0.2702 -0.0660  0.0878
    6DOPE   HN1  647   2.492   5.296  16.690 -0.6326 -0.6486  0.5269
    6DOPE   HN2  648   2.386   5.375  16.603 -1.4847 -0.6332 -0.9827
    6DOPE   HN3  649   2.349   5.213  16.635 -0.5476 -0.0500 -0.7422
    6DOPE   C12  650   2.489   5.252  16.475 -0.4066  0.9884  0.2600
    6DOPE  H12A  651   2.585   5.308  16.461  0.8502 -1.5530 -2.5194
    6DOPE  H12B  652   2.414   5.284  16.399 -1.3584  1.4023  1.3621
    6DOPE   C11  653   2.535   5.105  16.469  1.0589 -0.4381  0.7759
    6DOPE  H11A  654   2.612   5.084  16.547 -0.4609  1.1477  2.8280
    6DOPE  H11B  655   2.589   5.088  16.373  5.1713  0.7610  2.6168
    6DOPE     P  656   2.419   4.870  16.433 -0.4816  0.1037 -0.0789
    6DOPE   O13  657   2.296   4.808  16.480  0.0467  0.3972 -0.2014
    6DOPE   O14  658   2.545   4.803  16.456 -0.5199 -0.1466 -0.4461
    6DOPE   O11  659   2.419   4.898  16.276  0.4717 -0.3318  0.0597
    6DOPE   O12  660   2.425   5.014  16.494 -0.2242 -0.6054  0.1030
    6DOPE    C1  661   2.313   4.986  16.225 -0.4463 -0.1116 -0.8915
    6DOPE    HA  662   2.316   5.089  16.268 -1.5748  0.1261 -1.3517
    6DOPE    HB  663   2.213   4.942  16.243 -0.5313 -0.4235 -2.0426
    6DOPE    C2  664   2.331   5.001  16.075  0.1069  0.4441  1.1200
    6DOPE    HS  665   2.253   5.071  16.039 -0.2266 -0.1561  0.6719
    6DOPE   O21  666   2.321   4.872  16.013  0.2663 -0.0059  0.3736
    6DOPE   C21  667   2.201   4.830  15.983  0.6509  0.1472 -0.1567
    6DOPE   O22  668   2.096   4.878  16.021  0.0983 -0.3609 -0.2589
    6DOPE   C22  669   2.209   4.720  15.875 -0.3883 -0.4051 -0.0083
    6DOPE   H2R  670   2.205   4.626  15.935 -3.2377 -0.9321 -0.8851
    6DOPE   H2S  671   2.312   4.722  15.833  0.4048  0.4108  1.8801
    6DOPE    C3  672   2.464   5.060  16.030  0.0521  0.1981  0.7045
    6DOPE    HX  673   2.530   4.971  16.024 -1.3575 -0.8062 -0.8885
    6DOPE    HY  674   2.506   5.130  16.105  1.9743  0.0671 -0.1956
    6DOPE   O31  675   2.445   5.124  15.905  0.1721  0.2529  0.9335
    6DOPE   C31  676   2.562   5.161  15.851  0.8923 -0.2736 -0.5055
    6DOPE   O32  677   2.670   5.146  15.897 -0.1582  0.0225  0.1081
    6DOPE   C32  678   2.524   5.222  15.711  0.6690  0.3477 -0.2663
    6DOPE   H2X  679   2.416   5.204  15.693  0.9276 -1.3982 -0.2227
    6DOPE   H2Y  680   2.537   5.333  15.718  1.7948  0.3493 -1.8151
    6DOPE   C23  681   2.082   4.723  15.782 -0.5142  0.8999  0.2497
    6DOPE   H3R  682   2.065   4.833  15.771  0.6638  1.3572  2.2771
    6DOPE   H3S  683   2.002   4.668  15.837 -0.0318 -0.3280 -0.2504
    6DOPE   C24  684   2.105   4.647  15.649 -0.0764 -0.3390 -0.0398
    6DOPE   H4R  685   2.189   4.692  15.593 -0.2553 -1.3588 -1.1700
    6DOPE   H4S  686   2.014   4.659  15.585  0.0028  1.4556  0.1222
    6DOPE   C25  687   2.125   4.499  15.657  0.1359  0.3723 -0.5416
    6DOPE   H5R  688   2.053   4.447  15.723  2.4040 -1.3196  0.7419
    6DOPE   H5S  689   2.230   4.489  15.692  0.2834  1.9712 -0.4549
    6DOPE   C26  690   2.124   4.437  15.518 -0.0755 -0.3609  0.3328
    6DOPE   H6R  691   2.023   4.424  15.474 -0.0238  1.5124 -0.4790
    6DOPE   H6S  692   2.171   4.339  15.539  0.6911 -0.3637 -1.2146
    6DOPE   C27  693   2.205   4.500  15.406 -0.0285  0.2839 -0.1727
    6DOPE   H7R  694   2.307   4.493  15.449  0.5983  1.7229 -1.3309
    6DOPE   H7S  695   2.181   4.608  15.396 -1.3734  0.0548  0.4508
    6DOPE   C28  696   2.194   4.427  15.271  0.1652 -0.0826  0.1891
    6DOPE   H8R  697   2.087   4.437  15.243  0.2092 -1.4421 -0.5444
    6DOPE   H8S  698   2.227   4.322  15.284 -1.4546 -0.7271 -0.5730
    6DOPE   C29  699   2.266   4.498  15.161  0.9088  0.2213 -0.1315
    6DOPE   H9R  700   2.313   4.590  15.200 -2.5890  2.2723 -0.2841
    6DOPE  C210  701   2.300   4.448  15.041 -0.8250 -0.9921  0.2784
    6DOPE  H10R  702   2.323   4.524  14.965  1.3149 -1.8008  0.0407
    6DOPE  C211  703   2.268   4.315  14.982 -0.3078  0.4552  0.3258
    6DOPE  H11R  704   2.164   4.320  14.945  0.0285 -1.0518 -0.8885
    6DOPE  H11S  705   2.268   4.240  15.064  3.6197 -1.3641 -1.0483
    6DOPE  C212  706   2.355   4.280  14.864 -0.5114 -0.2035  0.0519
    6DOPE  H12R  707   2.457   4.266  14.907 -0.0336 -1.1535 -1.3389
    6DOPE  H12S  708   2.358   4.371  14.800 -0.1785 -1.0699 -1.2041
    6DOPE  C213  709   2.298   4.168  14.781 -0.1202 -0.3147 -0.9200
    6DOPE  H13R  710   2.191   4.194  14.762 -0.4219 -2.1345 -2.0790
    6DOPE  H13S  711   2.305   4.074  14.840  1.1219 -0.0720 -0.6727
    6DOPE  C214  712   2.348   4.161  14.640 -1.0563 -0.1361 -0.0270
    6DOPE  H14R  713   2.458   4.145  14.632 -0.6643  1.9827  0.5231
    6DOPE  H14S  714   2.347   4.268  14.611  3.0414  1.0019  3.1092
    6DOPE  C215  715   2.275   4.061  14.546  0.2860  0.1375  0.4970
    6DOPE  H15R  716   2.167   4.071  14.570  0.2251  0.4643  0.0892
    6DOPE  H15S  717   2.320   3.960  14.557 -1.5303 -1.0263 -1.8790
    6DOPE  C216  718   2.292   4.098  14.394 -0.8706 -0.1767  0.1313
    6DOPE  H16R  719   2.400   4.090  14.371 -1.1727 -1.4761 -0.9568
    6DOPE  H16S  720   2.258   4.202  14.378  0.3338  0.0137 -1.4462
    6DOPE  C217  721   2.213   4.006  14.307  0.2617 -0.8553 -0.6461
    6DOPE  H17R  722   2.109   3.997  14.346  1.1483  0.1089  2.1516
    6DOPE  H17S  723   2.248   3.901  14.319  2.7059 -0.0016  0.1046
    6DOPE  C218  724   2.231   4.035  14.162 -0.0158  0.0109  0.3964
    6DOPE  H18R  725   2.175   4.128  14.138 -1.9724 -1.1978  0.1088
    6DOPE  H18S  726   2.205   3.965  14.081  1.6421  3.4990 -3.5625
    6DOPE  H18T  727   2.339   4.060  14.146 -0.1677 -0.1867 -0.9929
    6DOPE   C33  728   2.616   5.176  15.592 -0.5126 -0.6432  0.8611
    6DOPE   H3X  729   2.603   5.066  15.583 -1.2584 -0.5314  0.4713
    6DOPE   H3Y  730   2.723   5.199  15.611  1.0269 -3.8495 -2.7536
    6DOPE   C34  731   2.565   5.233  15.453  0.2660  0.4545 -0.1998
    6DOPE   H4X  732   2.466   5.195  15.419  0.3404  1.3210 -1.4204
    6DOPE   H4Y  733   2.547   5.343  15.459 -0.4068  0.5076 -2.3157
    6DOPE   C35  734   2.679   5.212  15.354  0.2346 -0.0838  0.4792
    6DOPE   H5X  735   2.707   5.106  15.372 -0.8386 -0.8008 -1.6742
    6DOPE   H5Y  736   2.774   5.268  15.368  0.5517 -0.1565 -1.1748
    6DOPE   C36  737   2.639   5.224  15.209 -0.8136  0.3111  0.2986
    6DOPE   H6X  738   2.585   5.321  15.201 -0.5737  0.3561 -1.1007
    6DOPE   H6Y  739   2.564   5.145  15.188 -0.8082  0.2417  0.5372
    6DOPE   C37  740   2.758   5.209  15.107 -0.4924  0.0591 -0.6244
    6DOPE   H7X  741   2.836   5.287  15.121  0.1137 -0.8937  1.7122
    6DOPE   H7Y  742   2.814   5.113  15.116  0.4814  0.6714  0.1130
    6DOPE   C38  743   2.695   5.207  14.966 -0.4874 -0.1841  0.2781
    6DOPE   H8X  744   2.630   5.296  14.951 -1.2757 -0.4319  1.9282
    6DOPE   H8Y  745   2.632   5.115  14.974  2.4121 -2.2942  0.4973
    6DOPE   C39  746   2.805   5.191  14.867 -0.6396 -0.3368 -0.5275
    6DOPE   H9X  747   2.902   5.235  14.895 -1.2814  0.0579  1.2051
    6DOPE  C310  748   2.781   5.146  14.748  0.3594  1.0061 -0.0864
    6DOPE  H10X  749   2.865   5.109  14.689 -0.5511 -2.7495  0.7028
    6DOPE  C311  750   2.662   5.078  14.688  0.8213  0.3714  0.9334
    6DOPE  H11X  751   2.692   4.975  14.658 -0.7789  0.3388 -0.7945
    6DOPE  H11Y  752   2.578   5.054  14.756 -0.0067 -4.5050 -1.3126
    6DOPE  C312  753   2.592   5.120  14.554  0.1139 -0.4851  0.5263
    6DOPE  H12X  754   2.539   5.217  14.549 -2.5303 -1.8359  0.8711
    6DOPE  H12Y  755   2.516   5.047  14.521  1.5364 -1.6139 -0.3601
    6DOPE  C313  756   2.692   5.129  14.435  0.4315 -0.0099  0.1089
    6DOPE  H13X  757   2.765   5.208  14.463 -1.1844  1.2364  0.9787
    6DOPE  H13Y  758   2.744   5.031  14.426  1.0550  0.1556  1.6238
    6DOPE  C314  759   2.617   5.166  14.307  0.2146 -0.6745 -0.3816
    6DOPE  H14X  760   2.587   5.271  14.322 -2.0455 -0.9111 -2.5682
    6DOPE  H14Y  761   2.525   5.105  14.295 -0.7478  0.5267  0.6917
    6DOPE  C315  762   2.706   5.172  14.184 -0.0028  0.7220 -0.0570
    6DOPE  H15X  763   2.753   5.072  14.180 -0.4270  0.4268  1.7807
    6DOPE  H15Y  764   2.792   5.244  14.185 -0.0785  0.8352 -0.7715
    6DOPE  C316  765   2.624   5.204  14.054 -0.6981  0.0910 -0.6043
    6DOPE  H16X  766   2.536   5.139  14.040 -1.4182  0.9482 -0.1531
    6DOPE  H16Y  767   2.688   5.209  13.963 -0.8307  1.0863 -0.6512
    6DOPE  C317  768   2.570   5.350  14.053 -0.0640 -0.9784 -0.2610
    6DOPE  H17X  769   2.517   5.366  14.149 -1.2445  0.2462 -1.0896
    6DOPE  H17Y  770   2.658   5.418  14.051 -0.6529 -0.1946  0.0008
    6DOPE  C318  771   2.482   5.382  13.939  0.3256 -0.3914  0.0251
    6DOPE  H18X  772   2.537   5.394  13.844 -2.8462 -1.6423 -2.1475
    6DOPE  H18Y  773   2.403   5.308  13.915  1.2103 -0.5305 -2.8325
    6DOPE  H18Z  774   2.426   5.476  13.958 -0.5701 -0.8105 -0.4528
    7DOPE     N  775   4.487   5.746  15.895  0.3238  0.3213  0.2694
    7DOPE   HN1  776   4.450   5.687  15.972  2.7734 -1.2791  0.3390
    7DOPE   HN2  777   4.578   5.782  15.929  0.2038  0.0966  0.8227
    7DOPE   HN3  778   4.408   5.809  15.869 -0.7939 -2.0088 -2.5614
    7DOPE   C12  779   4.539   5.665  15.782  0.0754 -0.3963 -0.3961
    7DOPE  H12A  780   4.604   5.725  15.716 -0.4751 -1.5742 -2.0651
    7DOPE  H12B  781   4.451   5.626  15.727  0.0757 -3.6840  1.6422
    7DOPE   C11  782   4.625   5.560  15.842  0.0392 -0.0072 -0.0151
    7DOPE  H11A  783   4.668   5.495  15.763  1.2528  0.2810  0.3828
    7DOPE  H11B  784   4.568   5.489  15.905  0.6344 -0.7136 -0.2561
    7DOPE     P  785   4.863   5.548  15.949  0.0403  0.2417  0.0339
    7DOPE   O13  786   4.844   5.448  16.053  0.6089 -0.5219  0.6776
    7DOPE   O14  787   4.964   5.649  15.969  0.2446 -0.4620 -0.2844
    7DOPE   O11  788   4.889   5.488  15.810  0.0708  0.2423  0.3079
    7DOPE   O12  789   4.726   5.614  15.923  0.4754  0.3027 -0.0397
    7DOPE    C1  790   4.952   5.580  15.713  0.8621  0.3491 -0.9890
    7DOPE    HA  791   5.051   5.611  15.753 -0.0803  0.0899  1.8224
    7DOPE    HB  792   4.894   5.674  15.701  1.4464  0.5794 -2.2083
    7DOPE    C2  793   4.976   5.504  15.580 -0.2398 -0.3708  0.1264
    7DOPE    HS  794   5.040   5.421  15.618  0.4213  1.4435  3.3092
    7DOPE   O21  795   5.046   5.582  15.484 -0.7861  0.0606  0.5033
    7DOPE   C21  796   5.179   5.590  15.497  0.5714 -0.4772 -0.6619
    7DOPE   O22  797   5.242   5.540  15.591  0.1349 -0.4990  0.6834
    7DOPE   C22  798   5.234   5.672  15.385  0.2195 -0.2500  0.2956
    7DOPE   H2R  799   5.329   5.719  15.419  1.2496 -0.9627 -1.4805
    7DOPE   H2S  800   5.165   5.756  15.365  1.2897  0.0986 -2.3054
    7DOPE    C3  801   4.850   5.440  15.519 -0.2378  0.0267 -0.1462
    7DOPE    HX  802   4.787   5.531  15.522  2.9260  2.3660  0.3824
    7DOPE    HY  803   4.813   5.367  15.595 -1.6747  1.2985  0.4270
    7DOPE   O31  804   4.864   5.395  15.385  0.3506 -0.8340  0.5231
    7DOPE   C31  805   4.788   5.452  15.291 -0.2460  0.0687  0.4414
    7DOPE   O32  806   4.695   5.530  15.297 -0.0179  0.2647 -0.5447
    7DOPE   C32  807   4.859   5.414  15.159  0.2569 -0.3232  0.0072
    7DOPE   H2X  808   4.968   5.431  15.174  0.4829 -2.0208  0.4798
    7DOPE   H2Y  809   4.830   5.309  15.140 -1.1942  0.3130 -1.5500
    7DOPE   C23  810   5.262   5.605  15.253 -0.0622 -0.5520  0.7470
    7DOPE   H3R  811   5.260   5.687  15.178 -0.0753 -1.6680 -0.5180
    7DOPE   H3S  812   5.172   5.547  15.223 -1.6039  2.2751 -0.4575
    7DOPE   C24  813   5.397   5.534  15.235 -0.2042  0.1485 -0.1347
    7DOPE   H4R  814   5.402   5.444  15.299 -1.7890 -0.2405 -0.5217
    7DOPE   H4S  815   5.463   5.611  15.280 -1.9555  2.0477 -0.6895
    7DOPE   C25  816   5.445   5.512  15.094 -0.0411 -0.5236 -0.2484
    7DOPE   H5R  817   5.441   5.612  15.047  0.3223  0.4164  1.6503
    7DOPE   H5S  818   5.373   5.447  15.039  1.3374 -1.5481 -0.9110
    7DOPE   C26  819   5.584   5.453  15.066  0.1010 -0.1250  0.6923
    7DOPE   H6R  820   5.569   5.344  15.083  1.9488 -0.6517 -0.7348
    7DOPE   H6S  821   5.672   5.487  15.125  1.6458 -0.5778 -1.2686
    7DOPE   C27  822   5.629   5.479  14.924  0.7523 -0.4663 -0.1341
    7DOPE   H7R  823   5.601   5.583  14.896 -0.4672 -0.5994  0.5024
    7DOPE   H7S  824   5.557   5.425  14.858 -0.7906  2.8997 -1.4557
    7DOPE   C28  825   5.763   5.421  14.873 -0.4984 -0.7234 -0.1313
    7DOPE   H8R  826   5.766   5.425  14.762  0.1057 -1.7905 -0.1665
    7DOPE   H8S  827   5.765   5.313  14.900  0.2447 -0.0402  2.9030
    7DOPE   C29  828   5.873   5.498  14.948  0.1400 -0.0899  1.0570
    7DOPE   H9R  829   5.886   5.461  15.050  2.4780 -1.5083  0.3245
    7DOPE  C210  830   5.967   5.590  14.907 -0.4705 -0.3619  0.5973
    7DOPE  H10R  831   6.048   5.617  14.977  1.2972  0.2122 -1.5597
    7DOPE  C211  832   5.997   5.652  14.771 -0.3075  0.2238 -0.7942
    7DOPE  H11R  833   5.937   5.745  14.761  0.4158  0.6429 -1.3156
    7DOPE  H11S  834   5.966   5.587  14.687 -0.0809  0.6852 -1.2410
    7DOPE  C212  835   6.141   5.700  14.754  0.4921 -0.4192  0.7401
    7DOPE  H12R  836   6.200   5.607  14.744 -0.2329 -0.6028 -3.7109
    7DOPE  H12S  837   6.180   5.764  14.837  1.6252  0.9345 -0.7637
    7DOPE  C213  838   6.162   5.779  14.618 -0.7591  0.7786 -0.4616
    7DOPE  H13R  839   6.170   5.708  14.534 -0.9982  0.9054 -0.5902
    7DOPE  H13S  840   6.255   5.837  14.635 -0.2592 -0.6105  2.2086
    7DOPE  C214  841   6.049   5.874  14.580  0.1781 -0.5228 -0.1162
    7DOPE  H14R  842   6.041   5.949  14.662  1.6337 -0.5434  0.0597
    7DOPE  H14S  843   5.953   5.819  14.571  0.0344 -0.2202 -0.5208
    7DOPE  C215  844   6.069   5.922  14.440  0.6097 -0.3708  0.2771
    7DOPE  H15R  845   6.085   5.830  14.379 -1.1868 -1.6278  1.5741
    7DOPE  H15S  846   6.164   5.979  14.438 -0.1749  0.9834  0.1019
    7DOPE  C216  847   5.947   5.999  14.404 -0.5208  0.2636 -0.3228
    7DOPE  H16R  848   5.935   6.065  14.492 -1.7554  0.2655 -0.4817
    7DOPE  H16S  849   5.860   5.930  14.397 -0.2849 -0.2297  1.2299
    7DOPE  C217  850   5.968   6.086  14.281  0.5493 -0.6271  0.0486
    7DOPE  H17R  851   5.998   6.018  14.198  0.1199  1.0109 -1.5040
    7DOPE  H17S  852   6.056   6.153  14.294  0.7453 -1.0412  0.9852
    7DOPE  C218  853   5.846   6.168  14.258  0.1944  0.6546 -0.6872
    7DOPE  H18R  854   5.845   6.217  14.158  1.0613  0.2309 -0.9144
    7DOPE  H18S  855   5.848   6.250  14.333  2.0633  2.0151 -2.1085
    7DOPE  H18T  856   5.755   6.105  14.265 -0.8957  2.1723 -0.7112
    7DOPE   C33  857   4.816   5.492  15.028  0.0648 -0.2109 -0.1251
    7DOPE   H3X  858   4.839   5.598  15.051  0.1375 -0.3346  0.3908
    7DOPE   H3Y  859   4.709   5.472  15.006  0.0415 -1.9746  1.3586
    7DOPE   C34  860   4.903   5.457  14.910 -0.1245  0.5659 -0.3026
    7DOPE   H4X  861   4.893   5.541  14.838 -0.9857  1.8390  1.2320
    7DOPE   H4Y  862   5.007   5.445  14.949 -0.1429  2.6397  0.5016
    7DOPE   C35  863   4.864   5.324  14.837 -0.3839 -0.2736  0.3162
    7DOPE   H5X  864   4.757   5.317  14.810 -1.0810 -0.4268  2.8499
    7DOPE   H5Y  865   4.874   5.247  14.916 -2.1708 -2.4566 -1.4356
    7DOPE   C36  866   4.952   5.286  14.723 -0.3018 -0.0296 -0.1381
    7DOPE   H6X  867   4.942   5.374  14.655 -1.0595  0.4152  0.5244
    7DOPE   H6Y  868   4.911   5.193  14.679 -3.0114  1.1625 -0.3553
    7DOPE   C37  869   5.101   5.264  14.754  0.5516 -0.2410  0.2080
    7DOPE   H7X  870   5.162   5.337  14.811  3.2486 -2.2767  0.1200
    7DOPE   H7Y  871   5.112   5.168  14.809 -0.2081 -0.5932 -0.2255
    7DOPE   C38  872   5.178   5.240  14.624 -0.3091 -0.0049  0.4854
    7DOPE   H8X  873   5.167   5.333  14.564 -1.1778 -0.7792 -0.6039
    7DOPE   H8Y  874   5.135   5.163  14.557 -1.7068 -0.2497  1.6188
    7DOPE   C39  875   5.318   5.212  14.660 -0.6090  0.6494 -0.2205
    7DOPE   H9X  876   5.388   5.293  14.686 -0.6546 -0.0393  2.3653
    7DOPE  C310  877   5.362   5.086  14.690  0.9135 -0.5872  0.6007
    7DOPE  H10X  878   5.471   5.075  14.691  1.0060 -1.1606 -2.9127
    7DOPE  C311  879   5.292   4.954  14.690  0.0536 -0.0910  0.1410
    7DOPE  H11X  880   5.323   4.891  14.776  1.3823  1.9566  1.2432
    7DOPE  H11Y  881   5.182   4.973  14.696 -0.0611 -1.0102  1.3411
    7DOPE  C312  882   5.333   4.870  14.569 -0.2373  0.6179 -0.2242
    7DOPE  H12X  883   5.288   4.768  14.570  1.3577 -0.1034 -0.1754
    7DOPE  H12Y  884   5.441   4.845  14.578 -0.8209 -1.6045  1.5571
    7DOPE  C313  885   5.300   4.931  14.435  0.3980 -0.0321  0.8954
    7DOPE  H13X  886   5.197   4.974  14.426 -0.0368 -0.7263  2.2869
    7DOPE  H13Y  887   5.366   5.018  14.416 -0.6763  1.5888  3.8583
    7DOPE  C314  888   5.331   4.823  14.324  0.1115  0.0171  0.8611
    7DOPE  H14X  889   5.261   4.738  14.339 -0.6818  0.2627 -1.0943
    7DOPE  H14Y  890   5.435   4.789  14.341  1.6682  2.5065 -2.4090
    7DOPE  C315  891   5.327   4.881  14.181  0.3324  0.2263  0.1539
    7DOPE  H15X  892   5.351   4.805  14.104 -1.0304  1.3303 -1.4584
    7DOPE  H15Y  893   5.400   4.965  14.178 -0.8296  1.2686  0.3215
    7DOPE  C316  894   5.187   4.925  14.135  0.3232 -0.4480 -0.0255
    7DOPE  H16X  895   5.156   5.007  14.204 -1.2677 -0.4737 -0.6836
    7DOPE  H16Y  896   5.107   4.849  14.144 -0.7273  0.6983  0.6731
    7DOPE  C317  897   5.202   4.978  13.998  0.1381  0.3745  0.1828
    7DOPE  H17X  898   5.279   5.058  13.992 -1.3435  1.8580  0.1684
    7DOPE  H17Y  899   5.239   4.895  13.935  0.0507  0.0180  0.6000
    7DOPE  C318  900   5.067   5.032  13.950  0.0673 -0.2623 -0.2264
    7DOPE  H18X  901   5.090   5.098  13.863  1.9007 -1.5132 -0.7523
    7DOPE  H18Y  902   5.011   4.949  13.901  0.5791 -0.3934 -0.6046
    7DOPE  H18Z  903   5.002   5.085  14.023 -0.0894 -1.2711  0.3836
    8DOPE     N  904   5.900   6.385  16.211 -0.3466  0.0396  0.2685
    8DOPE   HN1  905   5.798   6.368  16.224 -0.5323 -0.0653 -1.1780
    8DOPE   HN2  906   5.950   6.295  16.198 -1.9656 -1.0475  1.2125
    8DOPE   HN3  907   5.937   6.436  16.293  0.0683 -1.9773  1.4037
    8DOPE   C12  908   5.912   6.477  16.097  0.5474  0.2911 -0.6528
    8DOPE  H12A  909   5.879   6.415  16.011 -0.0271 -1.1760  0.5608
    8DOPE  H12B  910   6.020   6.502  16.084  0.4860  1.0916  0.2513
    8DOPE   C11  911   5.811   6.588  16.108  0.5043  0.0199 -0.4171
    8DOPE  H11A  912   5.827   6.662  16.028  0.5413  1.1575  0.6160
    8DOPE  H11B  913   5.830   6.644  16.202 -0.3061 -0.6090  0.1349
    8DOPE     P  914   5.560   6.648  16.103 -0.1406  0.1290  0.2699
    8DOPE   O13  915   5.596   6.752  16.201 -0.0290 -0.0692 -0.0604
    8DOPE   O14  916   5.434   6.577  16.108  0.1462  0.1301 -0.2948
    8DOPE   O11  917   5.569   6.717  15.964  0.0438 -0.1199 -0.1329
    8DOPE   O12  918   5.675   6.539  16.099 -0.3275  0.1492 -0.3771
    8DOPE    C1  919   5.470   6.702  15.862  0.0740  0.0235  0.3092
    8DOPE    HA  920   5.454   6.593  15.846  2.2966 -0.1493 -1.1482
    8DOPE    HB  921   5.510   6.735  15.764 -0.9641 -1.3301 -0.6037
    8DOPE    C2  922   5.328   6.774  15.886  0.0116  0.4357  0.1656
    8DOPE    HS  923   5.280   6.722  15.971  2.6186 -0.3124  1.2761
    8DOPE   O21  924   5.252   6.769  15.761  0.1254 -0.5872 -0.2530
    8DOPE   C21  925   5.117   6.777  15.774  0.4012 -0.1266 -0.2554
    8DOPE   O22  926   5.053   6.798  15.875 -0.7172 -0.0339  0.0616
    8DOPE   C22  927   5.058   6.761  15.634  0.1471  0.9317 -0.0210
    8DOPE   H2R  928   5.102   6.666  15.596 -2.1375  0.3481 -1.4407
    8DOPE   H2S  929   5.089   6.845  15.568 -0.8404 -0.0864 -1.8833
    8DOPE    C3  930   5.350   6.920  15.934 -0.0430  0.2521 -0.9851
    8DOPE    HX  931   5.415   6.919  16.024 -0.8588  0.6298 -0.3777
    8DOPE    HY  932   5.259   6.963  15.980  0.0119 -0.3189 -0.3234
    8DOPE   O31  933   5.403   7.008  15.834  0.4977  0.2196  0.5418
    8DOPE   C31  934   5.314   7.063  15.750  0.3469  0.1032 -0.5212
    8DOPE   O32  935   5.193   7.059  15.761  0.0965  0.1454  0.4577
    8DOPE   C32  936   5.389   7.152  15.647  0.6247 -0.4143  0.6595
    8DOPE   H2X  937   5.368   7.259  15.666 -0.6808 -0.9342  2.4131
    8DOPE   H2Y  938   5.496   7.144  15.677  0.1980 -2.1748  1.8475
    8DOPE   C23  939   4.899   6.743  15.618 -0.0209 -0.6207 -0.1372
    8DOPE   H3R  940   4.858   6.837  15.661 -0.0989 -0.0832 -1.3494
    8DOPE   H3S  941   4.861   6.648  15.663 -1.3403 -1.0336 -1.9765
    8DOPE   C24  942   4.856   6.725  15.470 -0.2625 -0.2916 -0.3956
    8DOPE   H4R  943   4.745   6.730  15.471 -0.2449  1.1497 -1.8736
    8DOPE   H4S  944   4.886   6.622  15.442 -0.2656 -0.0853 -1.1983
    8DOPE   C25  945   4.901   6.832  15.378  0.3635  0.9295 -0.3960
    8DOPE   H5R  946   5.011   6.847  15.368  0.4287  1.0661  0.5121
    8DOPE   H5S  947   4.843   6.919  15.415 -1.8489 -0.1583 -1.1071
    8DOPE   C26  948   4.841   6.799  15.236 -0.2812 -0.5612 -0.6846
    8DOPE   H6R  949   4.734   6.777  15.254 -0.1168 -0.0095  1.1802
    8DOPE   H6S  950   4.876   6.697  15.212  1.4995 -0.3920  0.9125
    8DOPE   C27  951   4.853   6.905  15.127  0.2764  0.0496  0.2813
    8DOPE   H7R  952   4.963   6.921  15.125  0.3788 -0.6652  0.0090
    8DOPE   H7S  953   4.803   7.000  15.154  0.7084 -0.2780  2.3948
    8DOPE   C28  954   4.799   6.854  14.994 -1.0631 -0.4303 -0.4164
    8DOPE   H8R  955   4.696   6.813  15.009 -0.4898 -1.6020  0.5420
    8DOPE   H8S  956   4.863   6.770  14.961  1.2435  0.5261  1.3710
    8DOPE   C29  957   4.797   6.957  14.879  0.1989 -0.3965 -0.4083
    8DOPE   H9R  958   4.895   6.985  14.838  0.0485 -0.2928 -0.6975
    8DOPE  C210  959   4.694   7.036  14.846 -0.0712 -0.8950  0.0112
    8DOPE  H10R  960   4.707   7.117  14.772 -0.8126  1.5383  2.3964
    8DOPE  C211  961   4.552   7.041  14.905 -0.0710 -0.6440 -0.1595
    8DOPE  H11R  962   4.548   6.974  14.993 -0.0370  1.3619  1.4241
    8DOPE  H11S  963   4.470   6.998  14.843 -1.4734 -0.2442  1.3425
    8DOPE  C212  964   4.510   7.177  14.952  0.2917 -0.3900 -0.2371
    8DOPE  H12R  965   4.403   7.157  14.974  0.2164 -1.2307 -1.2656
    8DOPE  H12S  966   4.510   7.247  14.865  1.7247  0.9465  0.7936
    8DOPE  C213  967   4.586   7.231  15.066  0.1868 -0.0401 -0.2072
    8DOPE  H13R  968   4.568   7.338  15.087  3.0293  0.1231  1.9893
    8DOPE  H13S  969   4.696   7.217  15.060  0.4480  1.3758  0.8048
    8DOPE  C214  970   4.543   7.157  15.199  0.4587  0.3172  0.4644
    8DOPE  H14R  971   4.571   7.050  15.192 -1.5466 -0.2721  0.6347
    8DOPE  H14S  972   4.432   7.157  15.204  0.3445 -1.9808 -0.7088
    8DOPE  C215  973   4.615   7.206  15.328 -0.2648  0.1558  0.7573
    8DOPE  H15R  974   4.593   7.312  15.348 -3.2255 -0.5186  1.5268
    8DOPE  H15S  975   4.723   7.221  15.304 -0.5625  1.0503 -0.0755
    8DOPE  C216  976   4.589   7.121  15.449  0.3110 -0.4956  0.6865
    8DOPE  H16R  977   4.611   7.014  15.433 -0.8494 -0.6463 -0.0631
    8DOPE  H16S  978   4.478   7.122  15.463  0.2022  0.0665 -0.1602
    8DOPE  C217  979   4.659   7.184  15.575  0.0306  0.2039 -0.2016
    8DOPE  H17R  980   4.608   7.150  15.668 -1.5199  1.2506 -0.6301
    8DOPE  H17S  981   4.644   7.294  15.580 -0.5791  0.1005  3.9279
    8DOPE  C218  982   4.805   7.143  15.591 -0.2500  0.2486  0.4794
    8DOPE  H18R  983   4.860   7.186  15.677 -0.3211 -1.4502  1.4094
    8DOPE  H18S  984   4.854   7.157  15.492  0.6516  1.1760  1.0400
    8DOPE  H18T  985   4.805   7.035  15.617 -1.3516  0.3970  1.1394
    8DOPE   C33  986   5.355   7.122  15.505 -0.3793  0.7943 -0.0658
    8DOPE   H3X  987   5.246   7.131  15.487 -0.4179  2.2658  0.7536
    8DOPE   H3Y  988   5.385   7.016  15.488  0.6262  1.4579 -3.0979
    8DOPE   C34  989   5.434   7.203  15.398 -0.8669 -0.4394 -0.4839
    8DOPE   H4X  990   5.392   7.306  15.397 -0.7160 -0.3795 -1.1409
    8DOPE   H4Y  991   5.536   7.204  15.442 -0.1983  1.1970 -1.9533
    8DOPE   C35  992   5.439   7.132  15.262 -0.4774 -0.0344 -0.4548
    8DOPE   H5X  993   5.336   7.092  15.248 -0.3399  0.4266 -3.4846
    8DOPE   H5Y  994   5.517   7.053  15.265 -2.2527 -1.9106 -1.0943
    8DOPE   C36  995   5.465   7.234  15.148 -0.3379  0.5689 -0.1642
    8DOPE   H6X  996   5.555   7.298  15.159  0.4208 -0.3850 -0.7186
    8DOPE   H6Y  997   5.389   7.316  15.149  0.7549  1.6178 -0.0562
    8DOPE   C37  998   5.458   7.176  15.008  0.1444  0.6043  0.3652
    8DOPE   H7X  999   5.524   7.087  14.996 -1.0497 -0.5298  1.7882
    8DOPE   H7Y 1000   5.357   7.130  15.003  0.5908 -0.3402 -0.2117
    8DOPE   C38 1001   5.484   7.278  14.900  0.4131  0.2003  0.0329
    8DOPE   H8X 1002   5.423   7.369  14.921  0.3279  0.2023 -0.2271
    8DOPE   H8Y 1003   5.448   7.244  14.801 -0.4413 -1.1869  0.8007
    8DOPE   C39 1004   5.637   7.298  14.906  0.2893 -0.2305  0.1170
    8DOPE   H9X 1005   5.687   7.311  15.002  0.5079  0.7618 -0.1183
    8DOPE  C310 1006   5.718   7.289  14.799  0.3088  0.6107  0.1374
    8DOPE  H10X 1007   5.827   7.310  14.801  0.3674  0.4490  3.0888
    8DOPE  C311 1008   5.661   7.262  14.662 -0.1186  0.5788  0.0351
    8DOPE  H11X 1009   5.559   7.305  14.650  0.0006  0.9128  0.2075
    8DOPE  H11Y 1010   5.725   7.322  14.594  0.9690  0.1351  0.6421
    8DOPE  C312 1011   5.665   7.112  14.619  0.1883 -0.2398 -0.1353
    8DOPE  H12X 1012   5.597   7.039  14.668  0.4059 -0.6988 -0.5059
    8DOPE  H12Y 1013   5.767   7.073  14.637 -0.0632  0.0992  2.3282
    8DOPE  C313 1014   5.624   7.105  14.473 -0.4665  0.1115  0.3553
    8DOPE  H13X 1015   5.518   7.137  14.459 -1.0230 -1.1035  1.5733
    8DOPE  H13Y 1016   5.681   7.173  14.405 -2.4285 -0.7381 -2.3269
    8DOPE  C314 1017   5.648   6.953  14.428 -0.5260  0.0624 -0.1305
    8DOPE  H14X 1018   5.583   6.881  14.481 -1.0087 -1.5359 -2.7325
    8DOPE  H14Y 1019   5.753   6.928  14.454 -1.1793 -2.0410  0.6778
    8DOPE  C315 1020   5.639   6.930  14.276 -0.6472  0.8364 -0.0165
    8DOPE  H15X 1021   5.720   6.984  14.222 -1.2903  0.2396 -1.6361
    8DOPE  H15Y 1022   5.542   6.959  14.232  0.3152 -0.7934 -3.5606
    8DOPE  C316 1023   5.655   6.783  14.244 -0.1851 -0.0872  0.4946
    8DOPE  H16X 1024   5.646   6.769  14.134 -1.5336  1.3858  0.3789
    8DOPE  H16Y 1025   5.573   6.730  14.298  0.1788 -0.8490  0.3130
    8DOPE  C317 1026   5.789   6.725  14.300  0.3097 -0.0062  0.0110
    8DOPE  H17X 1027   5.874   6.790  14.272  0.6291 -0.4378 -0.0219
    8DOPE  H17Y 1028   5.774   6.710  14.409 -0.2725 -1.0263 -0.1911
    8DOPE  C318 1029   5.819   6.593  14.224  0.5064  0.3480  0.1206
    8DOPE  H18X 1030   5.729   6.530  14.231  0.5330  0.3840  0.9794
    8DOPE  H18Y 1031   5.904   6.534  14.266  0.4725 -0.4783 -0.9398
    8DOPE  H18Z 1032   5.821   6.602  14.114  1.6530 -1.1282 -0.0185
    9DOPE     N 1033   2.047   4.695  16.479 -0.4853 -0.2153 -0.7985
    9DOPE   HN1 1034   2.139   4.740  16.498 -0.0498 -1.4382  0.2119
    9DOPE   HN2 1035   2.000   4.693  16.572  1.1151 -0.8435  0.0575
    9DOPE   HN3 1036   2.062   4.593  16.464 -0.6931 -0.1586 -1.4192
    9DOPE   C12 1037   1.996   4.764  16.360  0.6281  0.2484  0.5040
    9DOPE  H12A 1038   1.907   4.706  16.327  0.9237  0.1556 -0.1404
    9DOPE  H12B 1039   2.077   4.760  16.284 -1.8958 -0.1150 -2.3782
    9DOPE   C11 1040   1.975   4.911  16.393  0.1441  0.0748 -0.5751
    9DOPE  H11A 1041   1.949   4.971  16.303 -1.6770 -0.3030 -0.3356
    9DOPE  H11B 1042   2.065   4.960  16.435 -0.1898  1.5653 -1.5282
    9DOPE     P 1043   1.720   4.926  16.463 -0.1118  0.1713 -0.2289
    9DOPE   O13 1044   1.676   5.066  16.460 -0.3635 -0.3302 -0.2344
    9DOPE   O14 1045   1.635   4.836  16.548 -0.4773 -0.9787  0.0427
    9DOPE   O11 1046   1.716   4.870  16.317  0.0188  0.0910 -0.4505
    9DOPE   O12 1047   1.873   4.920  16.498 -0.0252  0.7924 -0.0525
    9DOPE    C1 1048   1.638   4.928  16.204  0.3973 -0.0089 -0.0147
    9DOPE    HA 1049   1.695   5.015  16.165 -0.2781  0.9975  1.2029
    9DOPE    HB 1050   1.540   4.967  16.238  0.5024  1.9273 -1.7402
    9DOPE    C2 1051   1.630   4.832  16.080 -0.3183  0.1296  0.5682
    9DOPE    HS 1052   1.598   4.906  16.002 -1.8960  0.6946  1.7007
    9DOPE   O21 1053   1.531   4.734  16.113  0.1456 -0.0574 -0.1348
    9DOPE   C21 1054   1.424   4.735  16.039 -0.2073  0.3243  0.0322
    9DOPE   O22 1055   1.403   4.818  15.951 -0.0374  0.2447  0.2601
    9DOPE   C22 1056   1.313   4.641  16.081  0.3128 -0.0148 -0.2058
    9DOPE   H2R 1057   1.274   4.657  16.183 -3.4637 -1.0108 -1.3296
    9DOPE   H2S 1058   1.359   4.540  16.073 -0.8634 -0.5606 -0.1907
    9DOPE    C3 1059   1.765   4.760  16.054 -1.0636 -0.2137  0.1686
    9DOPE    HX 1060   1.793   4.688  16.133 -0.1378 -0.8857 -0.7383
    9DOPE    HY 1061   1.849   4.832  16.051 -0.4439 -0.9437 -0.3264
    9DOPE   O31 1062   1.776   4.689  15.931  0.2691 -0.4087  0.6663
    9DOPE   C31 1063   1.706   4.584  15.898 -0.1564  0.6956 -0.9312
    9DOPE   O32 1064   1.638   4.511  15.969 -0.2489  0.1135 -0.2629
    9DOPE   C32 1065   1.738   4.549  15.754 -0.6692  0.3318  0.8626
    9DOPE   H2X 1066   1.763   4.643  15.700 -1.5389 -0.1491 -0.4095
    9DOPE   H2Y 1067   1.832   4.490  15.753  0.3562  1.9273  0.7980
    9DOPE   C23 1068   1.200   4.633  15.978  0.3021 -0.2547 -0.0043
    9DOPE   H3R 1069   1.154   4.730  15.952 -1.4675 -1.4391 -1.6103
    9DOPE   H3S 1070   1.121   4.568  16.020 -1.9281  2.1849 -0.1857
    9DOPE   C24 1071   1.252   4.567  15.848 -0.2522  0.0863 -0.4362
    9DOPE   H4R 1072   1.312   4.476  15.870 -0.0147  0.1919 -0.6352
    9DOPE   H4S 1073   1.316   4.639  15.793 -0.6684  1.4717  0.8346
    9DOPE   C25 1074   1.136   4.513  15.762  0.0215  0.7441  0.2994
    9DOPE   H5R 1075   1.056   4.590  15.765  0.1208  0.8713 -0.2051
    9DOPE   H5S 1076   1.103   4.419  15.810 -1.0446  0.8218 -0.2565
    9DOPE   C26 1077   1.171   4.496  15.614 -0.7241 -0.0915  0.0290
    9DOPE   H6R 1078   1.269   4.444  15.613 -0.2644  0.7692 -0.3237
    9DOPE   H6S 1079   1.180   4.597  15.570  1.4971 -0.8229 -1.3754
    9DOPE   C27 1080   1.072   4.425  15.534  0.4960  0.4123  0.2470
    9DOPE   H7R 1081   0.976   4.471  15.567 -1.2533 -1.8098 -1.4112
    9DOPE   H7S 1082   1.066   4.321  15.572  1.6312  0.7759  1.4683
    9DOPE   C28 1083   1.103   4.430  15.384 -0.0905 -0.0420 -0.3391
    9DOPE   H8R 1084   1.108   4.539  15.361 -3.7354 -0.2702 -3.2020
    9DOPE   H8S 1085   1.006   4.393  15.343 -0.5150  0.2589  0.3801
    9DOPE   C29 1086   1.228   4.353  15.351 -0.7401 -0.0572  0.6501
    9DOPE   H9R 1087   1.279   4.303  15.434 -1.3800 -0.1772  0.9813
    9DOPE  C210 1088   1.278   4.327  15.227 -0.2941 -1.0895 -0.1826
    9DOPE  H10R 1089   1.363   4.258  15.217  1.9181  1.4470  0.2531
    9DOPE  C211 1090   1.225   4.377  15.098 -0.4227 -0.1265 -0.1057
    9DOPE  H11R 1091   1.164   4.469  15.113 -1.1368 -0.7263  0.8186
    9DOPE  H11S 1092   1.155   4.304  15.052  0.9100 -1.8550  0.5085
    9DOPE  C212 1093   1.337   4.398  14.990 -0.5119 -0.0910 -0.9810
    9DOPE  H12R 1094   1.411   4.316  14.982  1.3250  1.5669 -1.8968
    9DOPE  H12S 1095   1.390   4.487  15.030 -1.4037  0.3504 -0.7616
    9DOPE  C213 1096   1.270   4.429  14.853  0.4529  0.1443  0.0140
    9DOPE  H13R 1097   1.182   4.495  14.865 -1.3632 -2.0424 -0.4714
    9DOPE  H13S 1098   1.225   4.341  14.801  1.5169 -0.8189  0.6631
    9DOPE  C214 1099   1.369   4.497  14.747  0.0553  0.3201 -0.2117
    9DOPE  H14R 1100   1.453   4.426  14.727 -1.1421 -1.5101  0.9250
    9DOPE  H14S 1101   1.415   4.588  14.792 -3.3863  2.0202  0.1730
    9DOPE  C215 1102   1.299   4.537  14.614 -0.4129  0.9361 -0.2226
    9DOPE  H15R 1103   1.215   4.600  14.648 -2.0532 -1.4984  0.5303
    9DOPE  H15S 1104   1.263   4.444  14.565 -1.3533  1.3572 -0.3417
    9DOPE  C216 1105   1.392   4.610  14.513 -0.1064  0.2757  0.1234
    9DOPE  H16R 1106   1.418   4.714  14.543 -2.2891  1.7045 -2.4735
    9DOPE  H16S 1107   1.341   4.626  14.416  1.7625  2.3200 -0.6028
    9DOPE  C217 1108   1.520   4.535  14.475 -0.8938 -0.2833  0.0878
    9DOPE  H17R 1109   1.494   4.429  14.455 -2.4626  0.3044 -1.1904
    9DOPE  H17S 1110   1.595   4.533  14.557 -1.3614 -2.6692  0.5508
    9DOPE  C218 1111   1.590   4.580  14.342 -0.4583  0.0533  0.1463
    9DOPE  H18R 1112   1.650   4.496  14.301 -0.2573  0.1096  0.3232
    9DOPE  H18S 1113   1.657   4.662  14.378  1.2922 -0.3253 -2.0378
    9DOPE  H18T 1114   1.511   4.608  14.269 -0.0036  2.7071  0.5476
    9DOPE   C33 1115   1.623   4.494  15.662 -0.1196 -0.1782  0.5329
    9DOPE   H3X 1116   1.534   4.561  15.663 -0.0840 -0.0967 -0.4402
    9DOPE   H3Y 1117   1.574   4.398  15.686  0.1682 -0.4015  0.2283
    9DOPE   C34 1118   1.679   4.486  15.515 -0.5318  1.6011  0.1163
    9DOPE   H4X 1119   1.726   4.576  15.470  1.0923  0.5723 -0.3361
    9DOPE   H4Y 1120   1.759   4.409  15.508 -0.8439  1.2650  0.2484
    9DOPE   C35 1121   1.576   4.443  15.414  0.8566  0.3476 -0.3213
    9DOPE   H5X 1122   1.474   4.484  15.431  0.7317 -0.5115  1.2104
    9DOPE   H5Y 1123   1.565   4.334  15.435 -1.0582  0.8492  1.6967
    9DOPE   C36 1124   1.617   4.472  15.266 -0.4136  0.3170  0.0417
    9DOPE   H6X 1125   1.645   4.580  15.257  1.9587 -0.1982  0.4431
    9DOPE   H6Y 1126   1.528   4.449  15.204  0.9297 -1.3450 -1.3954
    9DOPE   C37 1127   1.733   4.377  15.211  0.0541  0.6044 -0.6769
    9DOPE   H7X 1128   1.832   4.409  15.248  0.5173 -2.2625  0.7528
    9DOPE   H7Y 1129   1.727   4.274  15.250  1.6190  1.7823  3.1536
    9DOPE   C38 1130   1.728   4.386  15.057 -0.0458 -0.1220  0.3854
    9DOPE   H8X 1131   1.751   4.491  15.028 -0.2773 -0.4868 -1.1809
    9DOPE   H8Y 1132   1.621   4.369  15.031 -0.2680  0.1849  1.0672
    9DOPE   C39 1133   1.821   4.292  14.985 -0.3886  0.4272  0.3575
    9DOPE   H9X 1134   1.824   4.193  15.032 -0.6471  0.2945  0.0895
    9DOPE  C310 1135   1.906   4.319  14.884 -0.0213  0.2003 -0.1542
    9DOPE  H10X 1136   1.966   4.230  14.859 -0.3755  0.0342 -0.4227
    9DOPE  C311 1137   1.942   4.437  14.800  0.2293 -0.5611  0.0608
    9DOPE  H11X 1138   1.908   4.538  14.832  3.4302  1.1565 -1.4544
    9DOPE  H11Y 1139   2.052   4.454  14.793 -0.1095  0.9950 -2.0475
    9DOPE  C312 1140   1.890   4.423  14.656  0.0043  0.3903  0.1440
    9DOPE  H12X 1141   1.889   4.518  14.599 -1.5182 -1.1346 -2.5603
    9DOPE  H12Y 1142   1.784   4.390  14.660  0.3700 -0.7627  0.6337
    9DOPE  C313 1143   1.959   4.313  14.576  0.2584  0.8514  0.1013
    9DOPE  H13X 1144   2.064   4.347  14.571 -0.2676  2.5018 -0.3047
    9DOPE  H13Y 1145   1.951   4.217  14.632  1.7605 -0.7060 -2.1983
    9DOPE  C314 1146   1.912   4.292  14.433 -0.3215  0.2690  1.1264
    9DOPE  H14X 1147   1.983   4.226  14.379 -2.2912 -0.0714 -1.2014
    9DOPE  H14Y 1148   1.902   4.394  14.388  2.1922  0.1025 -0.0235
    9DOPE  C315 1149   1.770   4.231  14.415 -1.1029  0.0531 -0.2622
    9DOPE  H15X 1150   1.697   4.311  14.439 -2.5644 -1.6907  1.5057
    9DOPE  H15Y 1151   1.766   4.142  14.481  2.3795  0.5248  0.7438
    9DOPE  C316 1152   1.736   4.181  14.265 -0.6586  0.6788  0.4683
    9DOPE  H16X 1153   1.693   4.267  14.210 -3.1236 -0.9596 -0.3329
    9DOPE  H16Y 1154   1.659   4.102  14.280  0.3889 -0.4806  0.0056
    9DOPE  C317 1155   1.856   4.130  14.175 -0.3350  0.2726 -0.2068
    9DOPE  H17X 1156   1.947   4.193  14.171 -0.8510  1.1043  0.9446
    9DOPE  H17Y 1157   1.870   4.035  14.230 -1.8484  0.1958  0.0983
    9DOPE  C318 1158   1.804   4.094  14.033  0.1613 -0.0178  0.0379
    9DOPE  H18X 1159   1.880   4.056  13.961  0.0372  1.0830 -0.7009
    9DOPE  H18Y 1160   1.724   4.016  14.034 -1.6840  1.8084  0.6502
    9DOPE  H18Z 1161   1.762   4.185  13.985  1.1954  0.8764  0.7875
   10DOPE     N 1162   2.227   6.365  16.438  0.2581  0.0259 -0.3136
   10DOPE   HN1 1163   2.220   6.280  16.497 -1.8464 -0.6100 -1.3717
   10DOPE   HN2 1164   2.306   6.425  16.469  0.1788  0.3484 -0.7315
   10DOPE   HN3 1165   2.147   6.432  16.427  2.4048  2.6447 -1.0397
   10DOPE   C12 1166   2.255   6.323  16.299 -0.4178  0.3144  0.7179
   10DOPE  H12A 1167   2.353   6.269  16.296  0.6196  2.1544 -1.5523
   10DOPE  H12B 1168   2.274   6.417  16.244  1.9043 -0.9464 -0.8643
   10DOPE   C11 1169   2.128   6.254  16.227  0.2358  0.0199 -0.3239
   10DOPE  H11A 1170   2.161   6.242  16.121  2.2588 -0.5103  0.3198
   10DOPE  H11B 1171   2.030   6.305  16.238 -1.1076 -2.3945 -0.3177
   10DOPE     P 1172   2.181   5.997  16.227 -0.0043 -0.2885  0.1366
   10DOPE   O13 1173   2.182   5.902  16.340  0.1821  0.4055 -0.0576
   10DOPE   O14 1174   2.314   6.036  16.172 -0.0658 -0.2062 -0.2020
   10DOPE   O11 1175   2.091   5.938  16.109 -0.4313 -0.9808  0.5061
   10DOPE   O12 1176   2.101   6.126  16.281  0.0834 -0.8243  0.5737
   10DOPE    C1 1177   1.988   5.849  16.132  0.2437 -0.1008 -0.3796
   10DOPE    HA 1178   1.897   5.876  16.075  0.1699 -1.4737 -0.9568
   10DOPE    HB 1179   1.956   5.850  16.238 -0.2933 -3.5032 -0.3817
   10DOPE    C2 1180   2.033   5.706  16.107 -0.1469 -0.2298 -0.2478
   10DOPE    HS 1181   2.124   5.696  16.171  0.0938 -0.6406 -0.6488
   10DOPE   O21 1182   2.051   5.684  15.972  0.0258  1.0310  0.4986
   10DOPE   C21 1183   2.136   5.594  15.920  0.1469 -0.1101 -0.5551
   10DOPE   O22 1184   2.204   5.515  15.987 -1.0039 -0.5984 -0.2475
   10DOPE   C22 1185   2.119   5.588  15.766 -0.2994 -0.2503 -0.3414
   10DOPE   H2R 1186   2.068   5.682  15.737  0.8961  1.0745  1.6788
   10DOPE   H2S 1187   2.045   5.506  15.749  0.3848 -0.8741 -0.3802
   10DOPE    C3 1188   1.925   5.606  16.155  1.3219  0.6622 -0.1887
   10DOPE    HX 1189   1.921   5.612  16.266  0.3085 -3.1872  0.1246
   10DOPE    HY 1190   1.959   5.503  16.134 -1.8877 -0.3036 -1.2386
   10DOPE   O31 1191   1.796   5.635  16.097 -0.3483 -0.3855 -0.0225
   10DOPE   C31 1192   1.756   5.554  15.998 -0.4859 -0.1582  0.8063
   10DOPE   O32 1193   1.816   5.455  15.959  0.2896 -0.1531  0.0992
   10DOPE   C32 1194   1.616   5.604  15.958  0.9260  0.7008  0.9703
   10DOPE   H2X 1195   1.563   5.605  16.055  2.4128 -1.3613  1.8910
   10DOPE   H2Y 1196   1.632   5.706  15.918  0.6578  0.4548  0.2228
   10DOPE   C23 1197   2.252   5.556  15.697  0.4039 -0.5615  0.0671
   10DOPE   H3R 1198   2.311   5.481  15.755  0.3773 -1.3723 -0.9185
   10DOPE   H3S 1199   2.318   5.644  15.687  0.9671 -0.8907  0.7904
   10DOPE   C24 1200   2.226   5.484  15.559  0.3607  0.4388  0.8921
   10DOPE   H4R 1201   2.188   5.380  15.575  0.7161 -0.1387 -1.5902
   10DOPE   H4S 1202   2.330   5.483  15.519 -0.4395  0.6669 -1.3034
   10DOPE   C25 1203   2.140   5.557  15.460 -0.1737  0.1443 -0.1871
   10DOPE   H5R 1204   2.105   5.659  15.486  0.9963  0.5142  0.0001
   10DOPE   H5S 1205   2.045   5.506  15.437 -0.6957  0.8020  0.4801
   10DOPE   C26 1206   2.213   5.567  15.323 -0.2167 -0.2059  0.0273
   10DOPE   H6R 1207   2.315   5.612  15.332 -0.1806 -0.2705 -0.0488
   10DOPE   H6S 1208   2.160   5.631  15.248  0.5835  0.4437 -0.0027
   10DOPE   C27 1209   2.243   5.433  15.252  0.0734 -0.1402  0.3219
   10DOPE   H7R 1210   2.155   5.366  15.241 -0.7418  0.9769 -0.2048
   10DOPE   H7S 1211   2.317   5.373  15.308  0.5687  0.4900  0.3525
   10DOPE   C28 1212   2.296   5.452  15.107 -0.0870 -0.7961 -0.8734
   10DOPE   H8R 1213   2.375   5.529  15.090  1.2251 -1.7396  0.6372
   10DOPE   H8S 1214   2.209   5.487  15.048 -1.0364 -0.9885  0.3767
   10DOPE   C29 1215   2.335   5.318  15.051 -0.1698  0.1752  0.0911
   10DOPE   H9R 1216   2.347   5.241  15.129 -0.6460 -0.3495 -0.3454
   10DOPE  C210 1217   2.351   5.291  14.919  0.2561  0.6028  0.2348
   10DOPE  H10R 1218   2.360   5.186  14.888 -0.9316  1.3279 -3.0116
   10DOPE  C211 1219   2.334   5.383  14.799  0.2630 -0.5904  0.2361
   10DOPE  H11R 1220   2.424   5.392  14.735 -0.5809  0.9641 -0.8009
   10DOPE  H11S 1221   2.304   5.486  14.830 -2.0917 -1.9153  2.8719
   10DOPE  C212 1222   2.218   5.338  14.701 -1.2012 -0.8803  0.2762
   10DOPE  H12R 1223   2.243   5.230  14.687  0.2356 -0.5680  0.2372
   10DOPE  H12S 1224   2.225   5.398  14.608 -1.6662  0.1506  0.8924
   10DOPE  C213 1225   2.088   5.360  14.762 -0.8474  0.2813  0.4216
   10DOPE  H13R 1226   2.029   5.440  14.712 -0.5847 -0.1422 -0.5834
   10DOPE  H13S 1227   2.100   5.392  14.868  0.5129 -1.6480  0.9103
   10DOPE  C214 1228   2.002   5.235  14.771  0.1213  0.0095  0.3230
   10DOPE  H14R 1229   1.920   5.247  14.844 -0.1192  1.1166 -0.1153
   10DOPE  H14S 1230   2.059   5.148  14.810  0.1426  0.6923  1.9078
   10DOPE  C215 1231   1.944   5.206  14.629 -0.5549 -0.2197 -0.3848
   10DOPE  H15R 1232   2.022   5.230  14.554 -0.7317 -0.3609 -0.6170
   10DOPE  H15S 1233   1.858   5.275  14.615 -0.9150 -0.4699  0.5062
   10DOPE  C216 1234   1.900   5.058  14.604  0.5034 -0.2615 -0.2274
   10DOPE  H16R 1235   1.874   5.018  14.705 -0.6178  0.9687  0.0073
   10DOPE  H16S 1236   1.983   5.003  14.556  0.4355 -0.2310 -0.3811
   10DOPE  C217 1237   1.787   5.059  14.492  0.5240  0.0284 -0.2983
   10DOPE  H17R 1238   1.815   5.106  14.396  0.6468 -0.9911 -0.7737
   10DOPE  H17S 1239   1.694   5.105  14.532  0.7415  1.7079 -1.5981
   10DOPE  C218 1240   1.747   4.909  14.468 -0.3321 -0.7629  0.5426
   10DOPE  H18R 1241   1.837   4.864  14.421  0.4258  0.5937  0.6459
   10DOPE  H18S 1242   1.665   4.904  14.393  2.1190 -0.7356 -2.3396
   10DOPE  H18T 1243   1.716   4.869  14.567  1.4933  1.2942  2.0366
   10DOPE   C33 1244   1.552   5.510  15.849 -0.0749 -0.1063  0.1328
   10DOPE   H3X 1245   1.444   5.540  15.850 -0.1458 -0.3056 -0.6882
   10DOPE   H3Y 1246   1.559   5.402  15.872 -0.0918 -0.0464  0.4153
   10DOPE   C34 1247   1.611   5.536  15.707  0.0154 -0.4702 -0.2934
   10DOPE   H4X 1248   1.603   5.644  15.683  1.3595 -0.1764  0.4844
   10DOPE   H4Y 1249   1.715   5.499  15.706 -0.7378 -2.7927  0.2756
   10DOPE   C35 1250   1.536   5.456  15.594 -0.5316 -0.5442 -0.7448
   10DOPE   H5X 1251   1.426   5.470  15.597 -0.4496 -0.0923  1.7397
   10DOPE   H5Y 1252   1.547   5.350  15.625 -1.1914 -0.5500 -0.5304
   10DOPE   C36 1253   1.573   5.503  15.446  0.4398  0.1275  0.0041
   10DOPE   H6X 1254   1.683   5.485  15.445  0.6768  1.4752  0.2819
   10DOPE   H6Y 1255   1.557   5.612  15.432  1.7124  0.1443 -1.7930
   10DOPE   C37 1256   1.495   5.429  15.336 -0.1874  0.2343  0.3861
   10DOPE   H7X 1257   1.491   5.324  15.372  0.1329  0.0616 -0.0587
   10DOPE   H7Y 1258   1.388   5.452  15.321 -0.4579 -0.7231  0.7316
   10DOPE   C38 1259   1.571   5.429  15.195  0.2019  0.2023  0.0109
   10DOPE   H8X 1260   1.553   5.525  15.143 -1.9796  0.3845  0.9583
   10DOPE   H8Y 1261   1.519   5.351  15.136 -0.2157 -0.5452  1.3058
   10DOPE   C39 1262   1.719   5.403  15.191 -0.5812 -0.0726  0.1376
   10DOPE   H9X 1263   1.741   5.332  15.272 -0.0553  1.9504  1.8819
   10DOPE  C310 1264   1.818   5.459  15.119  0.2542 -0.0511  0.6156
   10DOPE  H10X 1265   1.919   5.418  15.127 -0.2210 -2.7498 -3.6323
   10DOPE  C311 1266   1.803   5.575  15.015  0.2254  0.0847 -0.4122
   10DOPE  H11X 1267   1.824   5.538  14.912 -0.2488  1.9565 -1.2244
   10DOPE  H11Y 1268   1.700   5.613  15.001  1.0510  2.6987 -0.1248
   10DOPE  C312 1269   1.895   5.689  15.061 -1.1278 -0.6048  0.2410
   10DOPE  H12X 1270   1.892   5.777  14.994  1.0577 -2.1132 -1.9959
   10DOPE  H12Y 1271   2.001   5.658  15.073 -0.9736  0.5269  2.1640
   10DOPE  C313 1272   1.853   5.743  15.198 -0.1257 -0.7038 -1.1201
   10DOPE  H13X 1273   1.763   5.807  15.186 -0.1137 -0.1382  1.1705
   10DOPE  H13Y 1274   1.834   5.673  15.282  0.1185  0.0563 -0.4012
   10DOPE  C314 1275   1.954   5.849  15.257 -0.1386  0.7927  0.2780
   10DOPE  H14X 1276   1.962   5.920  15.172 -1.1354 -0.2019 -0.6809
   10DOPE  H14Y 1277   2.052   5.800  15.278 -0.0967  0.7636  0.0198
   10DOPE  C315 1278   1.896   5.933  15.365 -0.0959 -0.4248 -0.9585
   10DOPE  H15X 1279   1.792   5.960  15.337 -0.1527  0.3429 -0.0366
   10DOPE  H15Y 1280   1.957   6.026  15.370  1.9350 -1.6885 -0.7496
   10DOPE  C316 1281   1.890   5.861  15.495 -0.3547 -0.3720  0.0140
   10DOPE  H16X 1282   1.997   5.840  15.517 -0.5867 -1.9767 -0.2826
   10DOPE  H16Y 1283   1.845   5.760  15.502  2.1855 -1.4551  2.5007
   10DOPE  C317 1284   1.846   5.945  15.612  0.0239 -0.3996 -0.3572
   10DOPE  H17X 1285   1.890   5.894  15.701 -0.9537 -0.2413  0.2359
   10DOPE  H17Y 1286   1.880   6.050  15.605 -1.4442  0.1655  0.5504
   10DOPE  C318 1287   1.692   5.958  15.622 -0.8832  0.3593  0.1486
   10DOPE  H18X 1288   1.656   5.864  15.671  0.7579 -0.3270  0.1070
   10DOPE  H18Y 1289   1.650   6.036  15.690 -2.5037 -0.5382  0.2274
   10DOPE  H18Z 1290   1.642   5.959  15.523  0.6441  0.4565 -0.6521
   11DOPE     N 1291   0.250   3.458  16.084 -0.1287 -0.0325  0.1809
   11DOPE   HN1 1292   0.343   3.464  16.131  0.7180 -1.1955 -1.2257
   11DOPE   HN2 1293   0.210   3.552  16.064  0.0867  0.3492  1.4270
   11DOPE   HN3 1294   0.191   3.401  16.147 -1.6434  2.5489  1.2574
   11DOPE   C12 1295   0.282   3.380  15.962  0.5467 -0.8628  0.5110
   11DOPE  H12A 1296   0.327   3.449  15.888  0.3653 -1.6209 -0.3257
   11DOPE  H12B 1297   0.186   3.346  15.917 -0.0374 -0.2994  1.2916
   11DOPE   C11 1298   0.378   3.261  15.986 -0.1268  0.0838  0.0085
   11DOPE  H11A 1299   0.396   3.217  15.885 -0.3847 -0.1372  0.0564
   11DOPE  H11B 1300   0.326   3.178  16.040 -2.2367  0.0915 -1.8726
   11DOPE     P 1301   0.608   3.383  16.000 -0.3179 -0.0442 -0.0434
   11DOPE   O13 1302   0.736   3.379  16.072 -0.1977 -0.2911 -0.1795
   11DOPE   O14 1303   0.554   3.516  15.959  0.4316  0.5343  0.3505
   11DOPE   O11 1304   0.631   3.301  15.865 -0.3751 -0.0300  0.3885
   11DOPE   O12 1305   0.496   3.290  16.064  0.0202 -0.0620  0.1171
   11DOPE    C1 1306   0.727   3.344  15.769 -0.6234  0.0268  0.1951
   11DOPE    HA 1307   0.828   3.311  15.802  0.3930  2.4422 -0.3164
   11DOPE    HB 1308   0.727   3.455  15.770 -0.4478  0.0299 -0.0824
   11DOPE    C2 1309   0.697   3.298  15.628 -0.3982  0.0449  0.4999
   11DOPE    HS 1310   0.731   3.196  15.601 -0.7160 -0.8112  3.0258
   11DOPE   O21 1311   0.759   3.393  15.532  0.0050  0.2617 -0.2147
   11DOPE   C21 1312   0.892   3.380  15.528 -0.3968  0.1998  0.0484
   11DOPE   O22 1313   0.957   3.315  15.613 -0.1702  0.1567  0.2064
   11DOPE   C22 1314   0.941   3.458  15.407 -0.1192  0.0575 -0.0163
   11DOPE   H2R 1315   0.936   3.566  15.433  1.4659  0.1034  0.1943
   11DOPE   H2S 1316   0.881   3.434  15.317  0.1021 -1.2851  0.1690
   11DOPE    C3 1317   0.547   3.282  15.595 -0.2491 -0.6880  0.1947
   11DOPE    HX 1318   0.502   3.383  15.611  0.9747 -0.1219  0.1518
   11DOPE    HY 1319   0.503   3.203  15.658  0.3328 -0.5364  0.8017
   11DOPE   O31 1320   0.529   3.243  15.456  0.3763  0.0346 -0.1324
   11DOPE   C31 1321   0.396   3.234  15.427 -0.3709  0.5861  0.1303
   11DOPE   O32 1322   0.306   3.239  15.509  0.0862 -0.2219  0.2086
   11DOPE   C32 1323   0.392   3.171  15.286 -0.3023 -0.1996  0.5958
   11DOPE   H2X 1324   0.464   3.086  15.284 -1.9940 -1.6652 -0.9372
   11DOPE   H2Y 1325   0.291   3.136  15.258 -0.2407  0.3692 -0.3583
   11DOPE   C23 1326   1.085   3.416  15.376 -0.2733  0.7979  0.3758
   11DOPE   H3R 1327   1.090   3.314  15.332 -1.9438  0.6420  0.4753
   11DOPE   H3S 1328   1.145   3.417  15.470 -0.3799  3.1880  0.4761
   11DOPE   C24 1329   1.141   3.522  15.281  0.5963  0.2544  0.7648
   11DOPE   H4R 1330   1.247   3.539  15.307  0.8677  1.4683 -0.9592
   11DOPE   H4S 1331   1.108   3.628  15.295  0.0972  0.3242 -0.7477
   11DOPE   C25 1332   1.118   3.482  15.131 -0.1534  0.1106  0.1221
   11DOPE   H5R 1333   1.014   3.460  15.099 -0.4131  0.0906  0.9426
   11DOPE   H5S 1334   1.166   3.382  15.124  0.0636  0.2178  0.1042
   11DOPE   C26 1335   1.192   3.565  15.027 -0.0005 -0.3511  0.1342
   11DOPE   H6R 1336   1.291   3.592  15.068  0.7189  0.6113 -2.0801
   11DOPE   H6S 1337   1.134   3.657  15.006 -4.5764 -3.0916 -0.7796
   11DOPE   C27 1338   1.219   3.494  14.893 -0.5293 -0.0093 -0.8188
   11DOPE   H7R 1339   1.125   3.460  14.843  0.0403 -0.3370 -1.7051
   11DOPE   H7S 1340   1.286   3.407  14.908  1.1673  1.1678 -1.3571
   11DOPE   C28 1341   1.296   3.581  14.791 -0.5356  0.8784 -0.7855
   11DOPE   H8R 1342   1.388   3.613  14.845  0.0070  0.0600 -1.1988
   11DOPE   H8S 1343   1.237   3.669  14.759  0.1594  1.3239 -0.8509
   11DOPE   C29 1344   1.330   3.491  14.671  0.2451 -0.0570 -0.3740
   11DOPE   H9R 1345   1.381   3.397  14.698  2.2742  1.4462  1.3273
   11DOPE  C210 1346   1.310   3.507  14.540  0.4771 -0.3749  0.5183
   11DOPE  H10R 1347   1.339   3.428  14.469  0.7022  0.1161  0.0618
   11DOPE  C211 1348   1.229   3.627  14.479 -0.8347 -0.2351 -0.1323
   11DOPE  H11R 1349   1.302   3.704  14.448 -1.4142  0.2189 -0.4004
   11DOPE  H11S 1350   1.166   3.673  14.559 -0.4420 -0.8943  0.5718
   11DOPE  C212 1351   1.159   3.599  14.347  0.3134 -0.1715  0.1238
   11DOPE  H12R 1352   1.066   3.546  14.379 -0.0101  1.4960  2.1401
   11DOPE  H12S 1353   1.225   3.542  14.278 -0.5460 -1.4248  0.2924
   11DOPE  C213 1354   1.110   3.725  14.284  0.3945 -0.6549 -1.1358
   11DOPE  H13R 1355   1.180   3.762  14.207  0.0829  0.0951 -1.0639
   11DOPE  H13S 1356   1.098   3.807  14.358  0.6191 -1.5972 -0.0122
   11DOPE  C214 1357   0.980   3.702  14.212  0.8621  0.2658  0.4364
   11DOPE  H14R 1358   0.897   3.680  14.283 -0.2556  0.4284 -0.7727
   11DOPE  H14S 1359   0.984   3.618  14.139  0.3620  1.3255 -0.8608
   11DOPE  C215 1360   0.937   3.818  14.129 -0.5435 -0.1341  0.6103
   11DOPE  H15R 1361   0.971   3.903  14.192  1.9169  0.6619 -1.6540
   11DOPE  H15S 1362   0.827   3.823  14.115 -0.1887  0.7006 -2.5235
   11DOPE  C216 1363   1.008   3.806  13.989  0.7520 -0.0371 -0.2559
   11DOPE  H16R 1364   0.979   3.711  13.940 -1.9315  0.5525  0.0633
   11DOPE  H16S 1365   1.114   3.780  14.014  0.5014 -1.4284 -0.5585
   11DOPE  C217 1366   0.978   3.926  13.908  0.2432  0.6954  0.1699
   11DOPE  H17R 1367   1.054   3.925  13.827  0.2768  1.0746  0.1935
   11DOPE  H17S 1368   0.987   4.018  13.970 -3.0181  0.2241  1.5511
   11DOPE  C218 1369   0.842   3.922  13.842 -0.3985 -0.2306 -0.5298
   11DOPE  H18R 1370   0.826   4.012  13.780 -1.7101 -0.8148 -1.0823
   11DOPE  H18S 1371   0.758   3.921  13.915 -0.0772 -0.8253 -0.1650
   11DOPE  H18T 1372   0.839   3.839  13.768  1.1196 -1.9598  1.2231
   11DOPE   C33 1373   0.429   3.282  15.179  0.2810  0.4067  0.2477
   11DOPE   H3X 1374   0.486   3.369  15.220  0.3944  0.4287  0.0451
   11DOPE   H3Y 1375   0.338   3.337  15.148  0.8514  1.1577 -0.1486
   11DOPE   C34 1376   0.517   3.215  15.073  0.7894 -0.6266 -0.3331
   11DOPE   H4X 1377   0.469   3.120  15.040  2.4562 -0.7531 -2.6193
   11DOPE   H4Y 1378   0.499   3.291  14.994  1.0311 -1.6743 -1.4139
   11DOPE   C35 1379   0.668   3.222  15.097 -0.2764 -0.0687  0.5894
   11DOPE   H5X 1380   0.691   3.181  15.197  1.1820  2.5094  1.4085
   11DOPE   H5Y 1381   0.700   3.328  15.087  1.1161 -0.4389  0.8872
   11DOPE   C36 1382   0.738   3.138  14.989 -0.3795 -0.9704  0.2497
   11DOPE   H6X 1383   0.721   3.174  14.886  4.1793  1.0108 -0.0593
   11DOPE   H6Y 1384   0.710   3.032  15.009  1.6326 -1.4153  0.9581
   11DOPE   C37 1385   0.891   3.159  15.005  0.1850 -1.0814  0.2068
   11DOPE   H7X 1386   0.912   3.268  15.016 -1.2969 -0.9096  1.8825
   11DOPE   H7Y 1387   0.950   3.117  15.090 -0.0145  0.0131  0.9087
   11DOPE   C38 1388   0.958   3.112  14.874 -0.2505  0.7344  0.1778
   11DOPE   H8X 1389   1.059   3.158  14.864  0.4977 -1.0900 -1.1502
   11DOPE   H8Y 1390   0.910   3.147  14.780 -1.3345  1.5294  0.9952
   11DOPE   C39 1391   0.969   2.958  14.869 -0.2506  0.4280  0.3240
   11DOPE   H9X 1392   0.907   2.898  14.937 -0.9890  0.2905 -0.4431
   11DOPE  C310 1393   1.065   2.890  14.802  0.0103 -0.1921 -0.3616
   11DOPE  H10X 1394   1.057   2.781  14.792 -1.4859 -0.3410  1.7373
   11DOPE  C311 1395   1.174   2.954  14.715  0.8014  0.2201  0.2186
   11DOPE  H11X 1396   1.188   3.062  14.739 -1.4250  0.6152 -0.0665
   11DOPE  H11Y 1397   1.273   2.906  14.731  0.5050  0.4101  3.0166
   11DOPE  C312 1398   1.152   2.954  14.562 -0.2865  0.2608 -0.6098
   11DOPE  H12X 1399   1.049   2.988  14.542 -1.2318 -0.1555  2.8069
   11DOPE  H12Y 1400   1.163   2.851  14.522  1.5604  0.4354 -0.6358
   11DOPE  C313 1401   1.251   3.051  14.489  0.0592 -0.1423 -0.3595
   11DOPE  H13X 1402   1.255   3.147  14.545  0.9661  0.3052 -1.1689
   11DOPE  H13Y 1403   1.354   3.011  14.500  0.3225  0.3217 -1.0977
   11DOPE  C314 1404   1.206   3.061  14.348  0.0043  0.3856  0.3024
   11DOPE  H14X 1405   1.104   3.105  14.352 -0.1787  0.0949 -0.7276
   11DOPE  H14Y 1406   1.206   2.958  14.306  1.0340 -0.2224  1.7215
   11DOPE  C315 1407   1.299   3.148  14.261 -0.0270 -0.4519 -0.3650
   11DOPE  H15X 1408   1.397   3.098  14.277 -0.5832 -0.5972  3.4824
   11DOPE  H15Y 1409   1.300   3.251  14.301 -0.1832 -0.2561 -0.8643
   11DOPE  C316 1410   1.243   3.152  14.113 -0.1178 -0.0535 -0.2816
   11DOPE  H16X 1411   1.133   3.139  14.115 -0.3312  1.4018 -1.0403
   11DOPE  H16Y 1412   1.281   3.054  14.076  1.1664  0.4219 -0.2683
   11DOPE  C317 1413   1.269   3.263  14.019 -0.8651 -0.3214 -0.5318
   11DOPE  H17X 1414   1.251   3.362  14.067 -1.3417 -1.0609  0.8822
   11DOPE  H17Y 1415   1.379   3.265  14.003 -1.0834  1.5293 -2.1127
   11DOPE  C318 1416   1.208   3.258  13.883 -0.2240  0.7578  0.0045
   11DOPE  H18X 1417   1.098   3.261  13.895 -0.1102 -0.1238  1.5521
   11DOPE  H18Y 1418   1.238   3.338  13.812  0.4144 -0.6341 -1.3430
   11DOPE  H18Z 1419   1.227   3.165  13.825  0.5923  0.1285  1.2231
   12DOPE     N 1420   2.937   7.179  15.956  0.8664  0.1733  0.0782
   12DOPE   HN1 1421   2.855   7.173  16.019  1.1653 -0.4295  0.4230
   12DOPE   HN2 1422   2.945   7.279  15.929  2.2299  0.4694  1.4212
   12DOPE   HN3 1423   2.919   7.112  15.879  2.7460 -0.8631  0.4524
   12DOPE   C12 1424   3.052   7.133  16.039  0.1712 -0.2387  0.4485
   12DOPE  H12A 1425   3.141   7.126  15.973  1.4372 -1.6477  2.2105
   12DOPE  H12B 1426   3.026   7.032  16.077 -0.9054  0.2376  1.0243
   12DOPE   C11 1427   3.093   7.239  16.146  0.2195  1.1938  0.1482
   12DOPE  H11A 1428   3.178   7.190  16.200 -0.3941  0.1503  0.2075
   12DOPE  H11B 1429   3.017   7.245  16.226  0.4443  0.5198  0.4261
   12DOPE     P 1430   3.275   7.411  16.070 -0.0854 -0.1404  0.0229
   12DOPE   O13 1431   3.367   7.336  16.154 -0.0896 -0.2638  0.3600
   12DOPE   O14 1432   3.283   7.559  16.080  0.4483  0.1109 -0.2461
   12DOPE   O11 1433   3.301   7.365  15.921  0.1641 -0.4016  0.4545
   12DOPE   O12 1434   3.123   7.363  16.090  0.6381 -0.3811  0.2824
   12DOPE    C1 1435   3.235   7.422  15.809  0.1792 -0.5903  0.8773
   12DOPE    HA 1436   3.241   7.533  15.805  0.9356 -0.5465  2.3493
   12DOPE    HB 1437   3.126   7.401  15.818  0.0106 -0.4885 -0.6544
   12DOPE    C2 1438   3.289   7.364  15.670  0.1333  0.2519 -0.1844
   12DOPE    HS 1439   3.207   7.371  15.595 -0.8085  1.7614  0.9040
   12DOPE   O21 1440   3.339   7.236  15.684 -0.0397  0.2947  0.7063
   12DOPE   C21 1441   3.243   7.139  15.701 -0.1815 -0.5241  0.5235
   12DOPE   O22 1442   3.124   7.165  15.707 -0.3384  0.5545 -0.3778
   12DOPE   C22 1443   3.310   7.006  15.693 -0.2832  0.1669 -0.2845
   12DOPE   H2R 1444   3.307   6.951  15.790 -0.1361  0.6159 -0.0233
   12DOPE   H2S 1445   3.419   7.022  15.679 -0.0144 -0.3954  1.0053
   12DOPE    C3 1446   3.406   7.446  15.613 -0.4811 -0.2720 -0.1956
   12DOPE    HX 1447   3.496   7.433  15.677 -0.5649 -0.3629 -0.0953
   12DOPE    HY 1448   3.386   7.554  15.627  2.6628  0.1809  1.6913
   12DOPE   O31 1449   3.428   7.417  15.471 -0.3762  0.7315  0.4391
   12DOPE   C31 1450   3.551   7.370  15.442 -0.3498 -0.2887 -0.0283
   12DOPE   O32 1451   3.643   7.347  15.523 -0.0137  0.3299  0.2850
   12DOPE   C32 1452   3.560   7.359  15.293  0.0994 -0.0490 -0.2467
   12DOPE   H2X 1453   3.463   7.363  15.240 -0.2297 -1.7024  0.1655
   12DOPE   H2Y 1454   3.610   7.449  15.250  0.8448  0.4108  1.4610
   12DOPE   C23 1455   3.239   6.923  15.585  0.5274  0.8526 -0.4432
   12DOPE   H3R 1456   3.130   6.920  15.607  0.6123 -0.9776 -0.0936
   12DOPE   H3S 1457   3.276   6.821  15.608  0.2428  0.5985 -1.0884
   12DOPE   C24 1458   3.272   6.965  15.437  0.0757 -0.2921  0.5103
   12DOPE   H4R 1459   3.377   6.999  15.428 -0.5384  1.5191 -0.3435
   12DOPE   H4S 1460   3.212   7.050  15.398 -1.3832 -0.0130  3.1231
   12DOPE   C25 1461   3.242   6.842  15.350  0.4524 -0.1398  0.0723
   12DOPE   H5R 1462   3.143   6.850  15.300  1.0025  1.3701 -0.8466
   12DOPE   H5S 1463   3.241   6.751  15.414 -1.3161 -0.8402 -0.8711
   12DOPE   C26 1464   3.343   6.806  15.245 -0.2131 -0.2942  0.3722
   12DOPE   H6R 1465   3.445   6.802  15.287 -0.1796  0.5311  0.3855
   12DOPE   H6S 1466   3.340   6.885  15.167 -1.7309  1.7115  2.3403
   12DOPE   C27 1467   3.306   6.674  15.171 -0.0145 -0.1869  0.0794
   12DOPE   H7R 1468   3.199   6.666  15.143 -0.4913  0.5568  1.5416
   12DOPE   H7S 1469   3.326   6.596  15.248  1.0960 -1.1168 -1.1265
   12DOPE   C28 1470   3.386   6.645  15.039 -0.0766  0.2828  0.4635
   12DOPE   H8R 1471   3.354   6.717  14.960  0.2225  2.2794  2.0850
   12DOPE   H8S 1472   3.351   6.549  14.994 -1.4079  0.9846 -0.0440
   12DOPE   C29 1473   3.535   6.644  15.054 -0.0489 -0.0822  0.6041
   12DOPE   H9R 1474   3.564   6.594  15.147  0.4889  2.3314  1.8195
   12DOPE  C210 1475   3.634   6.676  14.968 -0.6937 -0.8383  0.5037
   12DOPE  H10R 1476   3.736   6.645  14.996 -0.3981 -1.0810 -0.7852
   12DOPE  C211 1477   3.625   6.723  14.831 -1.0022 -0.2749 -0.3510
   12DOPE  H11R 1478   3.718   6.774  14.796 -0.3794 -1.0586  0.1436
   12DOPE  H11S 1479   3.556   6.810  14.830  0.5707  1.0796  0.7357
   12DOPE  C212 1480   3.579   6.620  14.723 -0.0966  0.1481  0.2065
   12DOPE  H12R 1481   3.534   6.662  14.631  0.2059  0.6054  0.2636
   12DOPE  H12S 1482   3.498   6.564  14.775 -0.5340  0.8448  0.2941
   12DOPE  C213 1483   3.681   6.523  14.670 -1.2843 -0.2275 -0.1304
   12DOPE  H13R 1484   3.623   6.457  14.602 -0.8196  1.0839 -1.8839
   12DOPE  H13S 1485   3.726   6.453  14.744 -0.1305  1.3997  0.7666
   12DOPE  C214 1486   3.798   6.593  14.598  0.3274  0.6950  0.1083
   12DOPE  H14R 1487   3.862   6.660  14.659  0.5665  0.1821  0.4232
   12DOPE  H14S 1488   3.746   6.654  14.521 -1.1806 -1.0215 -0.2986
   12DOPE  C215 1489   3.896   6.490  14.521  0.1434 -0.3866  0.0919
   12DOPE  H15R 1490   3.848   6.395  14.490  2.2670 -1.5799  0.3082
   12DOPE  H15S 1491   3.990   6.479  14.579  0.9985 -1.6347 -1.4600
   12DOPE  C216 1492   3.946   6.559  14.387 -0.6041 -0.8450  0.4713
   12DOPE  H16R 1493   3.985   6.653  14.431 -2.3811 -0.1670  0.6822
   12DOPE  H16S 1494   3.860   6.600  14.331  1.1131  2.2834 -0.1054
   12DOPE  C217 1495   4.047   6.473  14.301  0.4762 -0.7849  0.4646
   12DOPE  H17R 1496   4.071   6.532  14.210  0.6648  0.3919  1.2444
   12DOPE  H17S 1497   3.983   6.387  14.273 -0.2547  0.0533 -0.5441
   12DOPE  C218 1498   4.178   6.433  14.374  0.6598 -0.0278  0.0821
   12DOPE  H18R 1499   4.227   6.369  14.297  0.3675  1.6417 -1.5863
   12DOPE  H18S 1500   4.151   6.388  14.471 -2.0123  0.3966 -0.3953
   12DOPE  H18T 1501   4.230   6.524  14.412 -0.7886  0.0875  1.8967
   12DOPE   C33 1502   3.647   7.236  15.249  0.0878 -0.4659  0.1982
   12DOPE   H3X 1503   3.597   7.139  15.270  0.7718 -0.7240  0.6737
   12DOPE   H3Y 1504   3.736   7.226  15.314  0.8216 -2.0306 -0.9904
   12DOPE   C34 1505   3.690   7.238  15.098 -0.2042  0.0834  0.1481
   12DOPE   H4X 1506   3.619   7.268  15.017  1.1979 -1.2342 -1.6641
   12DOPE   H4Y 1507   3.766   7.317  15.081 -1.2962  1.0478 -0.4264
   12DOPE   C35 1508   3.736   7.098  15.045 -0.1082  0.0391  0.0376
   12DOPE   H5X 1509   3.654   7.023  15.052  0.6347 -0.6688  1.9920
   12DOPE   H5Y 1510   3.819   7.067  15.113  0.6946 -1.7019 -1.6452
   12DOPE   C36 1511   3.784   7.094  14.903 -1.2538  0.1828 -0.1923
   12DOPE   H6X 1512   3.844   7.003  14.882 -0.5827  0.7772 -0.9258
   12DOPE   H6Y 1513   3.857   7.176  14.886  0.3340 -1.0907  0.2886
   12DOPE   C37 1514   3.680   7.094  14.786  0.8297  0.0474  0.1432
   12DOPE   H7X 1515   3.605   7.015  14.808 -0.6356  1.2598 -0.3383
   12DOPE   H7Y 1516   3.640   7.198  14.785 -2.4691 -1.1138  0.0219
   12DOPE   C38 1517   3.732   7.061  14.647 -0.1712 -0.4884 -0.2841
   12DOPE   H8X 1518   3.652   7.059  14.570 -2.0398  0.7134  1.5219
   12DOPE   H8Y 1519   3.770   6.957  14.649  0.3874 -0.2982 -0.6548
   12DOPE   C39 1520   3.841   7.155  14.599  0.2558  0.3878  0.0306
   12DOPE   H9X 1521   3.833   7.262  14.620  2.0197  0.1084  2.6514
   12DOPE  C310 1522   3.962   7.117  14.549  0.4244  0.2858  0.6585
   12DOPE  H10X 1523   4.028   7.200  14.521  0.1880  0.0717 -0.6111
   12DOPE  C311 1524   4.022   6.976  14.528 -0.2042 -0.0622  0.0383
   12DOPE  H11X 1525   3.953   6.896  14.562 -1.4763  1.1384  0.3759
   12DOPE  H11Y 1526   4.033   6.962  14.418 -1.3158 -1.2751  0.0629
   12DOPE  C312 1527   4.158   6.952  14.591 -0.9522 -0.3289  0.2024
   12DOPE  H12X 1528   4.192   6.848  14.574 -2.3304 -0.9751  1.2107
   12DOPE  H12Y 1529   4.151   6.942  14.701 -2.2522 -0.3550  0.1332
   12DOPE  C313 1530   4.266   7.047  14.531 -0.5704 -0.4796  0.4910
   12DOPE  H13X 1531   4.248   7.154  14.554 -0.0803  0.0427 -1.3620
   12DOPE  H13Y 1532   4.360   7.014  14.581  1.1980  1.2818 -1.4915
   12DOPE  C314 1533   4.287   7.043  14.380 -0.2129 -0.7951 -0.0455
   12DOPE  H14X 1534   4.371   7.113  14.361 -2.0658  1.7504  0.6407
   12DOPE  H14Y 1535   4.194   7.080  14.332  0.4371 -0.1378 -0.8531
   12DOPE  C315 1536   4.308   6.904  14.322 -0.1171  0.4948 -0.0578
   12DOPE  H15X 1537   4.208   6.855  14.321  0.6427 -1.0977 -1.1763
   12DOPE  H15Y 1538   4.369   6.839  14.389 -4.4906 -3.4207  0.6616
   12DOPE  C316 1539   4.363   6.905  14.177 -0.5789  0.0255 -0.1220
   12DOPE  H16X 1540   4.461   6.957  14.184 -0.9298  0.5269  1.4080
   12DOPE  H16Y 1541   4.309   6.968  14.103  0.7106  3.0102  1.3154
   12DOPE  C317 1542   4.381   6.763  14.126  0.1106  0.4620  0.0070
   12DOPE  H17X 1543   4.427   6.697  14.202  1.6731 -1.2877 -2.3214
   12DOPE  H17Y 1544   4.290   6.699  14.119  1.1632 -1.1706  0.8493
   12DOPE  C318 1545   4.470   6.753  14.009 -0.4568  1.0513  0.5993
   12DOPE  H18X 1546   4.569   6.800  14.024 -0.9054  1.6821  1.7986
   12DOPE  H18Y 1547   4.487   6.646  13.988 -0.9300  1.0203  0.3540
   12DOPE  H18Z 1548   4.416   6.801  13.925 -1.2523 -0.1362  0.4116
   13DOPE     N 1549   2.103   1.989  16.154  0.2735  0.2039  0.0754
   13DOPE   HN1 1550   2.062   1.996  16.250  0.7771 -2.4047  0.5703
   13DOPE   HN2 1551   2.037   2.038  16.091 -0.5300 -1.1380 -0.1525
   13DOPE   HN3 1552   2.100   1.893  16.115  2.6500  0.8407 -1.9219
   13DOPE   C12 1553   2.243   2.039  16.158 -0.1845 -0.1122  0.2259
   13DOPE  H12A 1554   2.236   2.145  16.191 -1.9198  0.8164 -2.7965
   13DOPE  H12B 1555   2.283   2.028  16.055 -1.7099  1.0458 -0.5172
   13DOPE   C11 1556   2.325   1.944  16.251 -0.0474  0.3854 -0.1997
   13DOPE  H11A 1557   2.281   1.928  16.353  0.0924  0.4622 -0.1258
   13DOPE  H11B 1558   2.420   1.999  16.264  1.3057 -1.8490 -0.1057
   13DOPE     P 1559   2.429   1.695  16.235  0.1254  0.8151 -0.3723
   13DOPE   O13 1560   2.408   1.572  16.155 -0.3575  0.6977  0.1810
   13DOPE   O14 1561   2.409   1.680  16.381  0.3822  0.6365  0.4664
   13DOPE   O11 1562   2.577   1.740  16.225 -0.2274  0.1582 -0.4993
   13DOPE   O12 1563   2.354   1.823  16.179  0.0171 -0.0014 -0.1623
   13DOPE    C1 1564   2.639   1.836  16.145 -0.3234  0.0125  0.2146
   13DOPE    HA 1565   2.738   1.865  16.187 -0.2940 -1.8141  1.5226
   13DOPE    HB 1566   2.576   1.927  16.144 -1.4960 -0.7407  1.2627
   13DOPE    C2 1567   2.684   1.790  16.001  0.0239 -0.2588 -0.7088
   13DOPE    HS 1568   2.736   1.871  15.947 -1.0778  1.3249  0.5265
   13DOPE   O21 1569   2.579   1.734  15.919 -0.3082  0.7212 -0.2651
   13DOPE   C21 1570   2.485   1.823  15.885 -0.3224 -0.3925  0.3869
   13DOPE   O22 1571   2.502   1.945  15.893  0.0014  0.0460 -0.6089
   13DOPE   C22 1572   2.362   1.751  15.821 -0.0110 -0.4426  0.5077
   13DOPE   H2R 1573   2.310   1.702  15.906 -0.2915  0.9939  1.2099
   13DOPE   H2S 1574   2.389   1.680  15.741  1.9181  1.1946 -0.3791
   13DOPE    C3 1575   2.796   1.684  16.022  0.7980  0.4807  0.7056
   13DOPE    HX 1576   2.745   1.594  16.063 -2.1799  1.3193 -0.8909
   13DOPE    HY 1577   2.872   1.721  16.094  1.5369 -3.3365  2.1453
   13DOPE   O31 1578   2.856   1.663  15.889 -0.2764 -0.7118 -0.0340
   13DOPE   C31 1579   2.817   1.561  15.819 -0.3765  0.0631 -0.2082
   13DOPE   O32 1580   2.726   1.484  15.862 -0.0117  0.3002  0.3075
   13DOPE   C32 1581   2.892   1.537  15.689  0.4584  0.8007 -0.3380
   13DOPE   H2X 1582   2.958   1.622  15.664 -0.8203  2.0792  0.4942
   13DOPE   H2Y 1583   2.957   1.448  15.702 -2.2093 -1.0030  1.7930
   13DOPE   C23 1584   2.261   1.851  15.751 -0.6187 -0.2829 -0.3768
   13DOPE   H3R 1585   2.322   1.916  15.684 -1.4052  1.5574  0.6195
   13DOPE   H3S 1586   2.212   1.912  15.829 -1.2115 -2.1557  0.7832
   13DOPE   C24 1587   2.152   1.778  15.665 -0.3584 -0.2713 -0.0454
   13DOPE   H4R 1588   2.076   1.728  15.729  0.3464 -2.9209 -1.1619
   13DOPE   H4S 1589   2.207   1.697  15.614 -1.4608  0.7997 -3.1476
   13DOPE   C25 1590   2.081   1.865  15.558 -0.0565 -0.2097  0.0379
   13DOPE   H5R 1591   2.149   1.916  15.486  2.2331  0.4867  2.5184
   13DOPE   H5S 1592   2.044   1.953  15.615 -2.2406 -1.2266  0.3061
   13DOPE   C26 1593   1.974   1.778  15.485  0.4983  0.7684 -0.3265
   13DOPE   H6R 1594   1.912   1.726  15.562 -1.1010  0.2493 -1.9077
   13DOPE   H6S 1595   2.027   1.693  15.438 -1.7211 -1.3808  0.8035
   13DOPE   C27 1596   1.897   1.856  15.374 -0.4798 -0.0819 -0.3348
   13DOPE   H7R 1597   1.969   1.913  15.312  1.6006 -1.3134  0.8266
   13DOPE   H7S 1598   1.827   1.930  15.418  0.0727  0.9316 -1.1103
   13DOPE   C28 1599   1.813   1.770  15.284  0.0972 -0.3394  0.0733
   13DOPE   H8R 1600   1.732   1.826  15.233 -1.6296  0.1318  3.0977
   13DOPE   H8S 1601   1.749   1.702  15.345 -0.1774 -0.9929 -0.9244
   13DOPE   C29 1602   1.894   1.681  15.191  0.1065 -0.3282 -0.6280
   13DOPE   H9R 1603   1.996   1.660  15.225  0.5860  0.5247 -1.4939
   13DOPE  C210 1604   1.852   1.630  15.074  0.3182  0.2602 -0.3235
   13DOPE  H10R 1605   1.917   1.553  15.029  0.5556  0.4798 -0.3615
   13DOPE  C211 1606   1.727   1.644  15.000  0.1759 -0.3438  0.6202
   13DOPE  H11R 1607   1.737   1.726  14.926 -1.6597 -0.9115 -0.3125
   13DOPE  H11S 1608   1.646   1.671  15.072 -0.6826 -0.4592 -0.2878
   13DOPE  C212 1609   1.671   1.516  14.932 -0.5928 -0.4419 -0.3223
   13DOPE  H12R 1610   1.653   1.432  15.003 -0.3886 -1.4393 -1.4139
   13DOPE  H12S 1611   1.756   1.483  14.869  0.9561 -1.1137  1.9702
   13DOPE  C213 1612   1.557   1.535  14.833  0.5023 -0.4766 -0.2699
   13DOPE  H13R 1613   1.608   1.590  14.751 -1.3952  1.7519 -0.0539
   13DOPE  H13S 1614   1.484   1.602  14.882  0.4911 -0.9348  0.3580
   13DOPE  C214 1615   1.505   1.410  14.777  0.3219  0.0359  0.1741
   13DOPE  H14R 1616   1.451   1.348  14.852  0.8972 -1.8426 -0.8879
   13DOPE  H14S 1617   1.590   1.355  14.731 -0.9192 -1.7012 -0.1489
   13DOPE  C215 1618   1.406   1.431  14.659 -0.5319  0.3710 -0.1702
   13DOPE  H15R 1619   1.388   1.333  14.611 -1.8405  0.1602  0.7122
   13DOPE  H15S 1620   1.449   1.502  14.585  0.2655 -1.3262 -1.3943
   13DOPE  C216 1621   1.259   1.466  14.704 -0.0371 -0.2264 -0.4020
   13DOPE  H16R 1622   1.255   1.548  14.779  1.9661 -1.7522  1.5240
   13DOPE  H16S 1623   1.221   1.372  14.750 -0.1261 -0.0069 -0.0186
   13DOPE  C217 1624   1.175   1.507  14.574  0.0391 -0.4904  0.7168
   13DOPE  H17R 1625   1.074   1.538  14.610  0.0358  2.3201 -1.3671
   13DOPE  H17S 1626   1.158   1.412  14.519 -1.1888 -0.3779  0.8567
   13DOPE  C218 1627   1.240   1.612  14.476  0.4141 -0.8268  0.0736
   13DOPE  H18R 1628   1.253   1.715  14.516  2.8313 -1.0407  0.0300
   13DOPE  H18S 1629   1.171   1.630  14.391  0.3371 -1.8057 -0.0852
   13DOPE  H18T 1630   1.328   1.576  14.417  1.9268  1.1205  1.0301
   13DOPE   C33 1631   2.798   1.521  15.564 -0.1164 -0.2142  0.1280
   13DOPE   H3X 1632   2.734   1.431  15.576 -2.2364  0.8548 -2.2526
   13DOPE   H3Y 1633   2.864   1.511  15.475 -0.0702  0.0025  0.1390
   13DOPE   C34 1634   2.693   1.632  15.545 -0.3090  0.3443  0.4214
   13DOPE   H4X 1635   2.626   1.645  15.633  0.4001  0.8829  0.8892
   13DOPE   H4Y 1636   2.754   1.724  15.540 -0.6128  0.6156  1.5302
   13DOPE   C35 1637   2.609   1.611  15.417 -0.0753 -0.2498 -0.5634
   13DOPE   H5X 1638   2.676   1.574  15.337 -0.1808  2.0769 -1.8112
   13DOPE   H5Y 1639   2.578   1.710  15.376 -0.7020 -0.8382 -1.5496
   13DOPE   C36 1640   2.484   1.527  15.448  0.3158 -1.1724 -0.2805
   13DOPE   H6X 1641   2.414   1.574  15.520 -0.1402 -2.2703  0.0111
   13DOPE   H6Y 1642   2.505   1.422  15.478 -0.1769 -0.4163  3.0613
   13DOPE   C37 1643   2.386   1.525  15.330  0.7723 -1.1950  0.1857
   13DOPE   H7X 1644   2.378   1.633  15.306 -1.0812 -1.0365  1.3206
   13DOPE   H7Y 1645   2.440   1.477  15.245  0.8012 -1.3694  0.3031
   13DOPE   C38 1646   2.248   1.461  15.360 -0.4431 -1.2466  0.3143
   13DOPE   H8X 1647   2.179   1.504  15.285  0.8701  0.3837 -0.0213
   13DOPE   H8Y 1648   2.222   1.486  15.466 -1.6083 -0.3538 -0.1605
   13DOPE   C39 1649   2.259   1.314  15.351  0.5596  0.2940  0.3030
   13DOPE   H9X 1650   2.347   1.266  15.397 -0.5857  1.0577  3.6284
   13DOPE  C310 1651   2.172   1.232  15.286  0.2768 -0.2543  0.0389
   13DOPE  H10X 1652   2.192   1.124  15.287  0.8022 -0.1905 -1.1699
   13DOPE  C311 1653   2.041   1.271  15.214  0.4481  0.8160  1.1649
   13DOPE  H11X 1654   1.949   1.262  15.275 -3.9850  1.3249 -4.5190
   13DOPE  H11Y 1655   2.050   1.379  15.187  1.8848  0.4281 -0.0820
   13DOPE  C312 1656   2.023   1.182  15.091  0.1450  0.3192  0.2875
   13DOPE  H12X 1657   2.023   1.077  15.127  1.6370 -0.2173 -1.1558
   13DOPE  H12Y 1658   2.118   1.190  15.034  1.0513  0.5637  1.7735
   13DOPE  C313 1659   1.894   1.206  15.008  0.0333 -0.0837 -1.1626
   13DOPE  H13X 1660   1.806   1.174  15.066  0.0782  0.3264 -0.8633
   13DOPE  H13Y 1661   1.882   1.316  14.996 -0.7074 -0.1799 -1.2970
   13DOPE  C314 1662   1.902   1.143  14.869 -0.5690  0.2918  0.2424
   13DOPE  H14X 1663   1.890   1.032  14.874 -0.4307 -0.0468 -3.7838
   13DOPE  H14Y 1664   1.999   1.176  14.825 -0.1469 -1.9267 -0.6576
   13DOPE  C315 1665   1.790   1.175  14.780 -0.3907 -0.3256  0.3150
   13DOPE  H15X 1666   1.810   1.276  14.737 -0.3531 -0.0834  0.8843
   13DOPE  H15Y 1667   1.698   1.186  14.842 -0.4466 -0.2024  0.2129
   13DOPE  C316 1668   1.789   1.089  14.661  0.3170  0.4337  0.7770
   13DOPE  H16X 1669   1.781   0.982  14.690  1.6545  0.5178  1.5456
   13DOPE  H16Y 1670   1.882   1.101  14.602 -0.2820 -0.0490 -0.2766
   13DOPE  C317 1671   1.671   1.120  14.568  0.3752 -0.0420  0.1947
   13DOPE  H17X 1672   1.666   1.031  14.502  0.3596 -1.2407  1.7603
   13DOPE  H17Y 1673   1.575   1.123  14.623  0.1016 -1.0136 -0.2248
   13DOPE  C318 1674   1.697   1.251  14.480 -0.3510  0.5299 -0.1054
   13DOPE  H18X 1675   1.796   1.237  14.432  0.5856 -2.8327  2.3610
   13DOPE  H18Y 1676   1.610   1.270  14.415  0.8379  1.0964 -1.5781
   13DOPE  H18Z 1677   1.708   1.337  14.549 -1.6540 -0.8353  1.9212
   14DOPE     N 1678   6.206   5.778  16.481 -0.1997 -0.2830 -0.8563
   14DOPE   HN1 1679   6.264   5.750  16.562 -2.4857 -0.1178  0.9386
   14DOPE   HN2 1680   6.190   5.881  16.478  1.0320 -0.1092 -2.4733
   14DOPE   HN3 1681   6.112   5.741  16.505 -1.2656  0.9479 -2.8432
   14DOPE   C12 1682   6.251   5.718  16.350 -0.0613 -0.0815 -0.3919
   14DOPE  H12A 1683   6.356   5.749  16.330 -0.2402  0.6540 -0.2257
   14DOPE  H12B 1684   6.195   5.773  16.272  2.2808  1.4188 -1.1350
   14DOPE   C11 1685   6.246   5.565  16.335 -0.2890  0.0621 -0.2547
   14DOPE  H11A 1686   6.277   5.544  16.230  0.5124  1.4754 -0.3321
   14DOPE  H11B 1687   6.142   5.527  16.344  0.0978 -0.7271  1.2107
   14DOPE     P 1688   6.294   5.420  16.543  0.2627  0.1801  0.0784
   14DOPE   O13 1689   6.167   5.466  16.604 -0.2062 -0.2273 -0.2613
   14DOPE   O14 1690   6.411   5.412  16.633  0.1170  0.4807 -0.4368
   14DOPE   O11 1691   6.269   5.275  16.474  0.2113 -0.5430 -0.5039
   14DOPE   O12 1692   6.335   5.504  16.418  0.0116  0.3143  0.0880
   14DOPE    C1 1693   6.376   5.193  16.427 -0.0387 -0.5194  0.1421
   14DOPE    HA 1694   6.356   5.085  16.444  0.6560 -0.3245  2.5411
   14DOPE    HB 1695   6.468   5.220  16.483  0.8608  2.0914 -2.3657
   14DOPE    C2 1696   6.390   5.212  16.269 -0.2639  0.0315 -0.0808
   14DOPE    HS 1697   6.392   5.321  16.249  1.3201  0.1943  0.8113
   14DOPE   O21 1698   6.276   5.145  16.213  0.0353 -0.2201  0.3976
   14DOPE   C21 1699   6.230   5.195  16.107  0.0321 -0.3385  0.0633
   14DOPE   O22 1700   6.268   5.301  16.055 -0.0922  0.0539 -0.6794
   14DOPE   C22 1701   6.132   5.094  16.053  0.1323  0.1097  0.5047
   14DOPE   H2R 1702   6.068   5.064  16.138 -0.9073 -0.5489 -0.4702
   14DOPE   H2S 1703   6.187   5.002  16.026 -1.2033 -0.4963 -0.2533
   14DOPE    C3 1704   6.522   5.152  16.224  0.0279  0.1878  0.2011
   14DOPE    HX 1705   6.519   5.045  16.255  0.9194  0.0885 -0.0265
   14DOPE    HY 1706   6.607   5.187  16.287  0.6172 -0.9076  0.0376
   14DOPE   O31 1707   6.543   5.171  16.079  0.4495 -0.5704  0.8355
   14DOPE   C31 1708   6.567   5.297  16.051  0.6781  0.0483  0.1549
   14DOPE   O32 1709   6.600   5.388  16.122 -0.1485  0.3325 -0.3915
   14DOPE   C32 1710   6.536   5.316  15.900 -0.2051  0.3760 -0.5136
   14DOPE   H2X 1711   6.427   5.340  15.894 -0.7494 -1.8817 -0.5552
   14DOPE   H2Y 1712   6.597   5.403  15.868  0.9527 -1.1624 -2.7088
   14DOPE   C23 1713   6.072   5.155  15.929 -0.0826 -0.2793  0.1180
   14DOPE   H3R 1714   6.144   5.180  15.850  1.2328 -1.6039  0.8471
   14DOPE   H3S 1715   6.016   5.249  15.948  0.3744  0.0697 -0.2855
   14DOPE   C24 1716   5.972   5.071  15.850  0.5597  0.0331 -0.0347
   14DOPE   H4R 1717   5.876   5.119  15.824  0.3524 -0.0570  0.5584
   14DOPE   H4S 1718   5.939   4.982  15.907 -0.9863  0.3265 -0.4377
   14DOPE   C25 1719   6.031   5.034  15.716 -0.0810  0.1946  0.0410
   14DOPE   H5R 1720   6.090   5.118  15.671  0.8097  0.6809  2.0151
   14DOPE   H5S 1721   5.957   5.001  15.640  0.2680 -0.7569  0.1124
   14DOPE   C26 1722   6.123   4.915  15.734  0.3030 -0.1004  0.3510
   14DOPE   H6R 1723   6.073   4.836  15.794 -0.2286  0.1768  0.2783
   14DOPE   H6S 1724   6.216   4.940  15.790 -0.2121  0.8222  0.8089
   14DOPE   C27 1725   6.163   4.856  15.604  0.5899  0.1581  0.0749
   14DOPE   H7R 1726   6.232   4.922  15.546 -1.6960  1.9677 -0.7408
   14DOPE   H7S 1727   6.073   4.829  15.545  1.2890  1.0103 -1.4615
   14DOPE   C28 1728   6.224   4.718  15.624  0.1276 -0.1946 -0.6283
   14DOPE   H8R 1729   6.231   4.663  15.528 -0.7675 -1.1704 -0.1494
   14DOPE   H8S 1730   6.163   4.657  15.694  0.0687  2.0507  1.4511
   14DOPE   C29 1731   6.360   4.722  15.689  0.0186  0.1765 -0.4992
   14DOPE   H9R 1732   6.377   4.762  15.790  2.0379 -0.5755 -0.4860
   14DOPE  C210 1733   6.471   4.653  15.650  0.0743  1.3122 -0.4618
   14DOPE  H10R 1734   6.566   4.658  15.705  0.8373 -1.0074 -1.4438
   14DOPE  C211 1735   6.477   4.580  15.516 -0.2425  0.0159 -0.7150
   14DOPE  H11R 1736   6.447   4.649  15.434 -0.7932  0.0458 -0.4972
   14DOPE  H11S 1737   6.393   4.510  15.497 -1.1471  1.0660 -0.7074
   14DOPE  C212 1738   6.603   4.501  15.481  1.3113  0.9312  0.0492
   14DOPE  H12R 1739   6.611   4.420  15.557  1.0813  1.0375  0.1879
   14DOPE  H12S 1740   6.687   4.573  15.482  2.4403 -0.2990 -1.3128
   14DOPE  C213 1741   6.588   4.431  15.351 -0.0012 -0.4134  1.2138
   14DOPE  H13R 1742   6.574   4.513  15.278  3.8546  0.6506  1.4603
   14DOPE  H13S 1743   6.498   4.365  15.357 -1.0078  0.8436  0.3513
   14DOPE  C214 1744   6.713   4.358  15.299  0.1336 -0.1808  0.9463
   14DOPE  H14R 1745   6.728   4.269  15.364 -4.7702  0.1443  2.9154
   14DOPE  H14S 1746   6.800   4.428  15.299  0.9093 -0.9426 -2.3083
   14DOPE  C215 1747   6.696   4.316  15.146 -0.0408 -0.5275 -0.6701
   14DOPE  H15R 1748   6.587   4.306  15.129 -0.4231  2.5173 -0.5421
   14DOPE  H15S 1749   6.752   4.222  15.129  2.3972  0.1929  2.3459
   14DOPE  C216 1750   6.743   4.423  15.051 -0.2875  0.5451  0.2193
   14DOPE  H16R 1751   6.803   4.499  15.105  0.4761  0.0640  0.0555
   14DOPE  H16S 1752   6.665   4.462  14.983 -0.5673  1.1880  0.8890
   14DOPE  C217 1753   6.845   4.363  14.952  0.0422  0.2840 -0.6831
   14DOPE  H17R 1754   6.793   4.288  14.889 -2.0496  0.1934  1.0492
   14DOPE  H17S 1755   6.930   4.323  15.011  0.1794  0.9744 -0.4056
   14DOPE  C218 1756   6.899   4.478  14.867  0.2438  0.4525  0.2786
   14DOPE  H18R 1757   6.965   4.449  14.783  0.8660  0.8500  0.6144
   14DOPE  H18S 1758   6.961   4.542  14.934  2.2509 -0.5207 -0.5569
   14DOPE  H18T 1759   6.814   4.535  14.823  0.6036  0.2447 -0.7048
   14DOPE   C33 1760   6.571   5.185  15.821  0.6053  0.0172 -0.2243
   14DOPE   H3X 1761   6.502   5.102  15.845  0.4374 -0.1779 -1.3440
   14DOPE   H3Y 1762   6.671   5.144  15.849  0.1399 -2.6307 -2.1162
   14DOPE   C34 1763   6.571   5.203  15.670 -0.3473 -0.3986 -0.7896
   14DOPE   H4X 1764   6.474   5.248  15.640 -1.1814 -1.4736  0.1970
   14DOPE   H4Y 1765   6.647   5.283  15.654  0.0475 -1.2017 -3.2470
   14DOPE   C35 1766   6.582   5.077  15.578 -0.2327  0.3966 -0.1489
   14DOPE   H5X 1767   6.549   5.104  15.475  0.3771  1.8344  0.0127
   14DOPE   H5Y 1768   6.506   5.000  15.605 -0.8298 -0.1883 -3.1379
   14DOPE   C36 1769   6.729   5.025  15.575  0.1558  0.0806  0.4472
   14DOPE   H6X 1770   6.750   4.980  15.674 -2.6071  0.9900  1.5557
   14DOPE   H6Y 1771   6.805   5.104  15.557 -0.4753  1.0597  1.8101
   14DOPE   C37 1772   6.758   4.913  15.476  0.3477  0.2043 -0.1291
   14DOPE   H7X 1773   6.710   4.816  15.500  0.6575  0.0433 -0.1514
   14DOPE   H7Y 1774   6.704   4.936  15.381  1.0890  2.2853 -0.0944
   14DOPE   C38 1775   6.903   4.899  15.421  0.1832  0.7698 -0.4668
   14DOPE   H8X 1776   6.973   4.896  15.507  1.4614  0.1331 -1.4927
   14DOPE   H8Y 1777   6.934   4.989  15.364  1.7129  1.8363  1.9126
   14DOPE   C39 1778   6.918   4.784  15.324 -0.1240  0.0568 -0.8659
   14DOPE   H9X 1779   6.877   4.688  15.358  0.0384 -0.7857 -2.9178
   14DOPE  C310 1780   6.962   4.784  15.200 -0.6842  0.1441 -0.4328
   14DOPE  H10X 1781   6.959   4.692  15.141  0.4772 -0.7570  0.8617
   14DOPE  C311 1782   7.016   4.900  15.106  0.8147  0.3588  0.1694
   14DOPE  H11X 1783   7.051   4.993  15.155  1.0435  0.0159  0.6766
   14DOPE  H11Y 1784   7.103   4.852  15.057 -0.1329  0.1133 -1.3243
   14DOPE  C312 1785   6.921   4.941  14.987  0.5287  0.3676  0.5567
   14DOPE  H12X 1786   6.829   4.981  15.036 -0.7209 -0.2111 -1.2118
   14DOPE  H12Y 1787   6.882   4.849  14.939  0.1152  0.1940  1.2055
   14DOPE  C313 1788   6.971   5.043  14.893 -0.0231 -0.4987  0.2625
   14DOPE  H13X 1789   6.884   5.063  14.827  0.5888  0.5263 -0.2529
   14DOPE  H13Y 1790   6.996   5.136  14.948 -1.3588 -0.7579  1.3894
   14DOPE  C314 1791   7.082   4.979  14.816 -0.4325  0.0184  0.5551
   14DOPE  H14X 1792   7.163   4.932  14.876  0.6640 -0.1856 -1.0050
   14DOPE  H14Y 1793   7.131   5.059  14.757  2.8326 -1.2539  1.3080
   14DOPE  C315 1794   7.033   4.879  14.716  0.1704  0.3475 -0.4649
   14DOPE  H15X 1795   6.950   4.925  14.658  1.1139  0.6117 -1.6432
   14DOPE  H15Y 1796   6.989   4.795  14.775  1.3125 -1.2401 -1.7806
   14DOPE  C316 1797   7.145   4.830  14.624 -0.1432 -0.8283 -0.5035
   14DOPE  H16X 1798   7.236   4.810  14.684  0.9489  3.0736 -0.5779
   14DOPE  H16Y 1799   7.175   4.912  14.556 -0.9163  0.5818  0.7959
   14DOPE  C317 1800   7.096   4.709  14.543 -0.2881 -0.2343  0.2447
   14DOPE  H17X 1801   7.183   4.665  14.489 -0.6842  0.0575 -0.6440
   14DOPE  H17Y 1802   7.058   4.642  14.623 -1.2933  0.3506  0.2756
   14DOPE  C318 1803   6.991   4.738  14.441  0.0668 -0.4678  0.4334
   14DOPE  H18X 1804   6.979   4.651  14.373  1.8743 -1.4283  1.2781
   14DOPE  H18Y 1805   6.893   4.767  14.484  0.3940  0.1447  0.7795
   14DOPE  H18Z 1806   7.027   4.820  14.375 -0.7052 -0.3655  0.1266
   15DOPE     N 1807   1.247   2.108  16.191  0.4839 -0.5176 -0.4558
   15DOPE   HN1 1808   1.293   2.182  16.134  0.7469  0.2599  0.7317
   15DOPE   HN2 1809   1.229   2.161  16.279 -0.1810  0.9101 -1.4183
   15DOPE   HN3 1810   1.305   2.023  16.209  1.5800 -0.2610 -2.4472
   15DOPE   C12 1811   1.115   2.068  16.128 -0.7709 -0.2429 -0.4768
   15DOPE  H12A 1812   1.078   1.988  16.196  0.1468 -0.7369 -0.5442
   15DOPE  H12B 1813   1.140   2.025  16.029  0.4482 -0.3117 -0.1512
   15DOPE   C11 1814   1.017   2.184  16.112  0.1116  0.7407  0.0480
   15DOPE  H11A 1815   0.926   2.150  16.058 -1.9273  1.6992  2.6665
   15DOPE  H11B 1816   1.056   2.262  16.042 -1.1236 -0.2811 -1.8692
   15DOPE     P 1817   1.005   2.360  16.308 -0.3903 -0.1774 -0.2097
   15DOPE   O13 1818   1.151   2.348  16.330  0.0020 -0.3001 -0.2748
   15DOPE   O14 1819   0.920   2.382  16.428 -0.4726 -0.2548 -0.0706
   15DOPE   O11 1820   0.983   2.469  16.192  0.7265  0.3663 -0.1040
   15DOPE   O12 1821   0.965   2.230  16.234 -0.1582  0.6715 -0.3024
   15DOPE    C1 1822   0.851   2.526  16.170 -0.9494 -0.7538  0.1960
   15DOPE    HA 1823   0.828   2.596  16.254 -1.3240 -0.0125 -0.5125
   15DOPE    HB 1824   0.777   2.443  16.170  0.9606 -2.6246  2.9298
   15DOPE    C2 1825   0.858   2.612  16.035 -0.5354  0.2774 -0.3364
   15DOPE    HS 1826   0.752   2.623  16.003 -0.4492 -1.1083 -1.1472
   15DOPE   O21 1827   0.939   2.543  15.935 -0.0565  0.0869 -0.1474
   15DOPE   C21 1828   0.877   2.470  15.852 -0.9049 -0.3634  0.1196
   15DOPE   O22 1829   0.758   2.455  15.846 -0.4836  0.4416  0.0514
   15DOPE   C22 1830   0.977   2.412  15.748 -0.1565 -0.2531  0.2904
   15DOPE   H2R 1831   1.077   2.426  15.794 -0.0510 -0.5802  0.1630
   15DOPE   H2S 1832   0.979   2.484  15.663 -0.7637  0.3229  0.7548
   15DOPE    C3 1833   0.916   2.750  16.070  0.1676  0.1870  0.0745
   15DOPE    HX 1834   1.021   2.743  16.105 -0.1424  2.4102  1.6525
   15DOPE    HY 1835   0.858   2.792  16.154 -1.1122 -1.6704  0.1592
   15DOPE   O31 1836   0.921   2.827  15.944 -0.6221 -0.3481 -0.3584
   15DOPE   C31 1837   0.815   2.894  15.912 -0.0529  0.1226 -0.1337
   15DOPE   O32 1838   0.717   2.916  15.980 -0.2561 -0.0173 -0.4096
   15DOPE   C32 1839   0.823   2.936  15.766  0.3836  0.6804  0.2773
   15DOPE   H2X 1840   0.729   2.994  15.753 -1.0854 -1.5181  0.5384
   15DOPE   H2Y 1841   0.909   3.006  15.762  0.0113  1.0785 -1.5666
   15DOPE   C23 1842   0.952   2.273  15.694  0.5230 -0.2444  0.0218
   15DOPE   H3R 1843   0.848   2.235  15.680  0.8352 -0.6929 -1.2328
   15DOPE   H3S 1844   1.007   2.210  15.767 -0.4153 -0.6971  0.3613
   15DOPE   C24 1845   1.026   2.254  15.553  0.7815 -0.7964  0.3224
   15DOPE   H4R 1846   1.033   2.144  15.542 -1.1359 -1.2677  3.0583
   15DOPE   H4S 1847   1.129   2.297  15.554  0.5619 -0.2372 -0.2650
   15DOPE   C25 1848   0.943   2.315  15.432  0.6398  0.7907 -0.5308
   15DOPE   H5R 1849   1.008   2.375  15.365  2.7363 -0.2455  0.5077
   15DOPE   H5S 1850   0.866   2.377  15.483 -0.2268 -0.3969 -0.3434
   15DOPE   C26 1851   0.862   2.210  15.342 -0.2630 -0.2560 -0.5659
   15DOPE   H6R 1852   0.803   2.267  15.267  1.3773  1.4455 -0.6621
   15DOPE   H6S 1853   0.799   2.170  15.423 -0.3776 -0.2462 -0.6506
   15DOPE   C27 1854   0.941   2.095  15.270 -0.4936 -0.1501 -0.0847
   15DOPE   H7R 1855   1.003   2.038  15.342 -0.5480  1.5653  1.4107
   15DOPE   H7S 1856   1.019   2.144  15.209 -0.6724  0.0277 -0.1734
   15DOPE   C28 1857   0.849   2.008  15.193  0.3429  0.9914  0.3407
   15DOPE   H8R 1858   0.913   1.924  15.159  0.0622 -1.3979  4.9653
   15DOPE   H8S 1859   0.813   2.061  15.102 -0.9784 -1.5371 -0.7255
   15DOPE   C29 1860   0.728   1.950  15.257 -0.1727  0.2069 -0.4701
   15DOPE   H9R 1861   0.676   2.009  15.334 -0.0033 -0.4935  0.1885
   15DOPE  C210 1862   0.677   1.828  15.233 -0.2074 -0.0051 -0.3155
   15DOPE  H10R 1863   0.589   1.799  15.293 -0.3323  1.8184  0.4654
   15DOPE  C211 1864   0.738   1.724  15.140  0.1360 -0.2105 -0.5890
   15DOPE  H11R 1865   0.800   1.775  15.063  0.4788 -0.9749 -0.8345
   15DOPE  H11S 1866   0.646   1.689  15.089 -2.3351  2.8006  1.4431
   15DOPE  C212 1867   0.824   1.620  15.218  0.9594  0.2515 -0.1451
   15DOPE  H12R 1868   0.763   1.571  15.296  2.2381  2.0861  2.1312
   15DOPE  H12S 1869   0.898   1.680  15.275 -0.5882  2.1402  0.0147
   15DOPE  C213 1870   0.894   1.521  15.125  0.5034 -0.4755 -0.1526
   15DOPE  H13R 1871   0.926   1.431  15.182 -0.9989 -2.3353 -2.0953
   15DOPE  H13S 1872   0.977   1.573  15.073 -1.8117  2.7808 -0.9304
   15DOPE  C214 1873   0.804   1.457  15.019  0.2231  0.8389  0.4807
   15DOPE  H14R 1874   0.751   1.526  14.949  1.6075 -0.4982 -2.0024
   15DOPE  H14S 1875   0.723   1.394  15.062 -0.0768  1.5988  1.0680
   15DOPE  C215 1876   0.900   1.385  14.923  0.4743  0.6471 -0.5529
   15DOPE  H15R 1877   0.973   1.330  14.985 -0.8463  1.9676  2.3667
   15DOPE  H15S 1878   0.966   1.456  14.870 -1.0226  2.1139 -0.5606
   15DOPE  C216 1879   0.831   1.285  14.834  0.7804  0.3956  0.1226
   15DOPE  H16R 1880   0.746   1.329  14.777  0.6104 -1.8521 -1.4790
   15DOPE  H16S 1881   0.774   1.206  14.888  1.2062  0.3810  0.5582
   15DOPE  C217 1882   0.925   1.213  14.732 -0.2532  0.0683  0.2318
   15DOPE  H17R 1883   1.020   1.197  14.786 -0.5137 -3.1446 -0.0955
   15DOPE  H17S 1884   0.954   1.283  14.651  1.0292  1.4427  1.8105
   15DOPE  C218 1885   0.873   1.080  14.695 -0.0690 -0.3875  0.2820
   15DOPE  H18R 1886   0.923   1.038  14.605  0.4546  0.0633  0.3567
   15DOPE  H18S 1887   0.763   1.083  14.682 -0.1815  1.1556  1.3545
   15DOPE  H18T 1888   0.900   1.009  14.776  0.9275  0.6871  0.9263
   15DOPE   C33 1889   0.835   2.821  15.665  0.1271  0.1302 -0.1340
   15DOPE   H3X 1890   0.752   2.747  15.675 -0.3106  0.5600 -0.5840
   15DOPE   H3Y 1891   0.925   2.763  15.695 -0.3434 -0.1466  0.7973
   15DOPE   C34 1892   0.857   2.876  15.525  0.1242 -0.4837  0.0899
   15DOPE   H4X 1893   0.779   2.934  15.471  1.5142  1.9266  0.5078
   15DOPE   H4Y 1894   0.954   2.928  15.505  0.0980 -0.7453 -0.7443
   15DOPE   C35 1895   0.869   2.752  15.430 -0.4765 -1.1419  0.2653
   15DOPE   H5X 1896   0.773   2.698  15.421 -0.8419 -0.4484 -0.0159
   15DOPE   H5Y 1897   0.944   2.682  15.473 -0.4769 -2.0350 -1.1265
   15DOPE   C36 1898   0.919   2.799  15.288  0.8070 -0.0659  0.2104
   15DOPE   H6X 1899   1.002   2.872  15.293 -0.8577  1.9092  0.5423
   15DOPE   H6Y 1900   0.837   2.853  15.235  1.4783 -1.0912 -1.9452
   15DOPE   C37 1901   0.965   2.677  15.204  0.5530  0.0913 -0.3148
   15DOPE   H7X 1902   1.003   2.702  15.103 -0.5816 -0.9733 -1.0314
   15DOPE   H7Y 1903   1.058   2.648  15.257 -0.1178  1.2724  1.6300
   15DOPE   C38 1904   0.868   2.556  15.183  0.1469  0.1282 -0.4614
   15DOPE   H8X 1905   0.880   2.499  15.277  3.4161 -1.3504 -1.6159
   15DOPE   H8Y 1906   0.916   2.499  15.101  1.5052 -0.1204  0.4744
   15DOPE   C39 1907   0.729   2.594  15.147 -0.0673 -0.5323 -0.1621
   15DOPE   H9X 1908   0.700   2.700  15.150  0.0048 -0.5268  0.5723
   15DOPE  C310 1909   0.632   2.514  15.094 -0.6233  0.2398  0.0654
   15DOPE  H10X 1910   0.530   2.556  15.098 -1.7009 -2.3055  1.4957
   15DOPE  C311 1911   0.648   2.367  15.065  0.4701  0.0397 -0.7156
   15DOPE  H11X 1912   0.750   2.333  15.094  1.7768  1.1330 -3.6851
   15DOPE  H11Y 1913   0.579   2.309  15.130 -2.4159  0.8710 -2.8231
   15DOPE  C312 1914   0.616   2.337  14.923  0.0560 -0.6751  0.0755
   15DOPE  H12X 1915   0.695   2.373  14.854 -2.0212  0.3346 -1.9151
   15DOPE  H12Y 1916   0.514   2.375  14.898 -0.1749 -0.2464  1.5837
   15DOPE  C313 1917   0.610   2.177  14.892 -0.8317  0.2636  0.4237
   15DOPE  H13X 1918   0.600   2.161  14.783  2.9537 -0.2947  0.0022
   15DOPE  H13Y 1919   0.710   2.133  14.911  0.6625  3.4386  0.6653
   15DOPE  C314 1920   0.495   2.103  14.959  0.3095 -0.1843 -0.5231
   15DOPE  H14X 1921   0.399   2.137  14.916  0.7190 -1.1351 -2.3076
   15DOPE  H14Y 1922   0.494   2.123  15.068  1.1004 -1.0885 -0.3328
   15DOPE  C315 1923   0.495   1.953  14.934 -0.1661 -0.2602  0.3113
   15DOPE  H15X 1924   0.427   1.899  15.004 -1.8634 -0.4390 -1.3824
   15DOPE  H15Y 1925   0.601   1.922  14.938 -0.6682 -2.4602 -1.3687
   15DOPE  C316 1926   0.443   1.914  14.789  0.5668 -0.4971 -0.1625
   15DOPE  H16X 1927   0.503   1.976  14.719 -1.4228  1.9036  0.1071
   15DOPE  H16Y 1928   0.336   1.944  14.790  0.9017  0.7570  1.0606
   15DOPE  C317 1929   0.435   1.764  14.755 -0.2017 -1.2641 -0.0236
   15DOPE  H17X 1930   0.539   1.727  14.750  1.2892  2.1900  1.7934
   15DOPE  H17Y 1931   0.387   1.713  14.841 -0.5805 -0.0283  0.5275
   15DOPE  C318 1932   0.376   1.736  14.617  0.6347  0.5270  0.9857
   15DOPE  H18X 1933   0.275   1.782  14.610 -0.9707 -2.8920 -1.2244
   15DOPE  H18Y 1934   0.444   1.742  14.530 -1.9688  0.4777 -1.1500
   15DOPE  H18Z 1935   0.347   1.630  14.634 -1.8013  1.0069  0.2154
   16DOPE     N 1936   0.353   3.849  16.538 -0.5640 -0.1474  0.0249
   16DOPE   HN1 1937   0.291   3.818  16.616 -0.0042  1.1665  1.0346
   16DOPE   HN2 1938   0.437   3.883  16.589  0.7414  0.3346 -2.3218
   16DOPE   HN3 1939   0.305   3.932  16.497 -0.6859 -1.3436 -2.4576
   16DOPE   C12 1940   0.386   3.743  16.433  1.0069 -0.1768 -0.1303
   16DOPE  H12A 1941   0.290   3.694  16.407  1.1948  0.3143 -1.9238
   16DOPE  H12B 1942   0.449   3.662  16.476  0.0417 -2.8494 -3.3112
   16DOPE   C11 1943   0.440   3.802  16.300 -0.9092  0.5529 -0.5091
   16DOPE  H11A 1944   0.495   3.719  16.251 -0.9516 -0.8888  1.7486
   16DOPE  H11B 1945   0.512   3.877  16.340  2.3802 -2.5583 -0.0768
   16DOPE     P 1946   0.388   3.974  16.111  0.2381 -0.1894  0.1929
   16DOPE   O13 1947   0.462   3.901  16.010 -0.3697 -0.5642  0.3808
   16DOPE   O14 1948   0.462   4.074  16.191 -0.0656 -0.3278  0.0011
   16DOPE   O11 1949   0.255   4.041  16.051 -0.1975 -0.0819  0.1657
   16DOPE   O12 1950   0.336   3.861  16.218 -0.2701  0.6867  0.2911
   16DOPE    C1 1951   0.276   4.160  15.972  0.6848  0.3877 -0.1800
   16DOPE    HA 1952   0.381   4.194  15.959  0.2904  1.7738  0.1113
   16DOPE    HB 1953   0.226   4.239  16.033  1.0687  0.1817  0.4123
   16DOPE    C2 1954   0.206   4.160  15.832 -0.1472 -0.4922 -0.8435
   16DOPE    HS 1955   0.107   4.111  15.833  0.0642 -0.9923  1.6211
   16DOPE   O21 1956   0.284   4.087  15.738 -0.2975  0.0939  0.1152
   16DOPE   C21 1957   0.242   3.971  15.694  0.3700  0.1216  0.2716
   16DOPE   O22 1958   0.140   3.910  15.728 -0.9260  0.0057  0.1779
   16DOPE   C22 1959   0.361   3.914  15.611  0.1382 -0.6733 -0.1364
   16DOPE   H2R 1960   0.423   3.840  15.666 -0.0079 -0.0483  0.9043
   16DOPE   H2S 1961   0.427   3.997  15.580 -1.7408  0.1408 -2.2734
   16DOPE    C3 1962   0.193   4.303  15.774 -0.7309 -0.3669  0.6287
   16DOPE    HX 1963   0.286   4.360  15.791  0.0218 -0.5946 -2.1690
   16DOPE    HY 1964   0.120   4.363  15.832 -0.0351  0.0236  1.1083
   16DOPE   O31 1965   0.164   4.307  15.635 -0.5155  0.5186 -0.5695
   16DOPE   C31 1966   0.077   4.392  15.584 -0.3197 -0.0540 -0.0306
   16DOPE   O32 1967   0.022   4.478  15.640  0.4944  0.1467 -0.0235
   16DOPE   C32 1968   0.071   4.376  15.431 -0.2777 -0.1512  0.8804
   16DOPE   H2X 1969  -0.037   4.365  15.404  0.2431  0.3120 -1.6256
   16DOPE   H2Y 1970   0.086   4.475  15.383 -2.0162 -0.8635 -1.2972
   16DOPE   C23 1971   0.318   3.858  15.471  0.0304 -0.2870 -0.0457
   16DOPE   H3R 1972   0.406   3.852  15.404  0.5066 -3.1268  0.7380
   16DOPE   H3S 1973   0.254   3.924  15.409  1.6341 -1.1003 -2.7036
   16DOPE   C24 1974   0.253   3.720  15.466 -0.4989 -0.2689  0.0415
   16DOPE   H4R 1975   0.159   3.733  15.523 -0.5362  0.1095 -0.1063
   16DOPE   H4S 1976   0.323   3.655  15.522  0.2027  1.1383  0.8385
   16DOPE   C25 1977   0.214   3.663  15.329  0.5018 -0.4853  0.1287
   16DOPE   H5R 1978   0.306   3.651  15.268 -0.1049  1.6345 -1.3268
   16DOPE   H5S 1979   0.149   3.737  15.277  1.9911  1.6416  1.1231
   16DOPE   C26 1980   0.146   3.535  15.354  0.0835 -0.2955  0.4393
   16DOPE   H6R 1981   0.052   3.544  15.412 -1.4651 -0.2534 -1.9349
   16DOPE   H6S 1982   0.220   3.472  15.409  1.6099 -0.0092 -1.2095
   16DOPE   C27 1983   0.098   3.469  15.223 -0.5337 -0.4391 -0.2950
   16DOPE   H7R 1984   0.082   3.361  15.243  2.3442 -0.8360  0.3282
   16DOPE   H7S 1985   0.187   3.491  15.160 -0.7801  2.2817  0.1807
   16DOPE   C28 1986  -0.028   3.531  15.156 -0.1393 -0.5946  0.1865
   16DOPE   H8R 1987   0.003   3.637  15.145 -1.7354 -0.0713  0.5007
   16DOPE   H8S 1988  -0.121   3.529  15.217  0.4050  1.0098  1.1439
   16DOPE   C29 1989  -0.055   3.464  15.019  0.6167 -0.1187  0.4912
   16DOPE   H9R 1990  -0.119   3.375  15.024 -2.4923  1.9924  1.3344
   16DOPE  C210 1991  -0.021   3.514  14.898  0.7225 -0.2895  0.0413
   16DOPE  H10R 1992  -0.050   3.456  14.810  0.9771  1.9074 -1.5774
   16DOPE  C211 1993   0.041   3.648  14.861  0.3209 -0.5007  0.4378
   16DOPE  H11R 1994  -0.031   3.730  14.883 -0.1203 -0.4464 -1.1144
   16DOPE  H11S 1995   0.037   3.656  14.751 -1.5894 -0.6867  0.4558
   16DOPE  C212 1996   0.181   3.683  14.902 -0.4434  0.4666  0.8498
   16DOPE  H12R 1997   0.186   3.694  15.012  2.8797 -2.5105  1.1769
   16DOPE  H12S 1998   0.209   3.780  14.855 -0.4065  0.3528  0.6350
   16DOPE  C213 1999   0.284   3.570  14.868 -0.1289  0.3104  0.0052
   16DOPE  H13R 2000   0.265   3.545  14.761  0.5436  1.3411 -0.3695
   16DOPE  H13S 2001   0.257   3.480  14.928 -2.3958  1.5127  0.9234
   16DOPE  C214 2002   0.432   3.608  14.884  0.7376  0.5218 -1.1588
   16DOPE  H14R 2003   0.454   3.698  14.823  2.5012  1.8781  1.3143
   16DOPE  H14S 2004   0.492   3.523  14.846  2.1140 -0.0705  2.0272
   16DOPE  C215 2005   0.468   3.639  15.035  0.2425 -0.0830 -0.6329
   16DOPE  H15R 2006   0.427   3.557  15.098 -0.8378  0.5136 -0.5297
   16DOPE  H15S 2007   0.411   3.732  15.057 -1.5725 -1.5479  1.2707
   16DOPE  C216 2008   0.615   3.661  15.072  0.1676  0.0717  0.0930
   16DOPE  H16R 2009   0.662   3.735  15.003  0.5486 -0.9948 -0.8256
   16DOPE  H16S 2010   0.672   3.570  15.045  1.5128  0.2714  2.0326
   16DOPE  C217 2011   0.657   3.704  15.214  0.2005 -0.3059 -0.1053
   16DOPE  H17R 2012   0.605   3.797  15.245 -1.1307 -1.2138  0.5189
   16DOPE  H17S 2013   0.762   3.737  15.206 -0.3155  1.2292 -1.1188
   16DOPE  C218 2014   0.632   3.602  15.326 -0.4978  0.6975 -0.2321
   16DOPE  H18R 2015   0.524   3.606  15.351  0.1800  1.9896  2.8877
   16DOPE  H18S 2016   0.694   3.616  15.417  2.0319  0.8881 -1.8922
   16DOPE  H18T 2017   0.653   3.499  15.289 -0.7057 -0.6947  3.1784
   16DOPE   C33 2018   0.164   4.271  15.371  0.1116 -0.3153 -0.2090
   16DOPE   H3X 2019   0.136   4.169  15.406  0.0536 -0.6989 -1.3320
   16DOPE   H3Y 2020   0.261   4.299  15.418  0.7497  0.0718 -1.7134
   16DOPE   C34 2021   0.169   4.278  15.220  0.0107 -0.1557  0.2006
   16DOPE   H4X 2022   0.068   4.267  15.174  0.2164 -0.7095 -0.1238
   16DOPE   H4Y 2023   0.207   4.380  15.200  0.1597  0.2106  2.1986
   16DOPE   C35 2024   0.268   4.177  15.156 -1.0083  0.3610  0.0845
   16DOPE   H5X 2025   0.267   4.086  15.220 -1.2086  0.3275  0.0350
   16DOPE   H5Y 2026   0.365   4.231  15.154  0.1173 -1.5396  0.5654
   16DOPE   C36 2027   0.240   4.148  15.007  0.5856 -0.2210 -0.3595
   16DOPE   H6X 2028   0.224   4.249  14.963  1.8079  0.0752 -0.1678
   16DOPE   H6Y 2029   0.141   4.097  15.003  1.5375 -2.3024  0.8004
   16DOPE   C37 2030   0.348   4.068  14.931  0.3230  0.4370 -0.2599
   16DOPE   H7X 2031   0.379   3.974  14.981 -0.5008 -0.8010 -2.0106
   16DOPE   H7Y 2032   0.293   4.033  14.841 -1.4040 -0.7487  1.1789
   16DOPE   C38 2033   0.471   4.156  14.906  0.0919 -0.0492  0.2465
   16DOPE   H8X 2034   0.529   4.182  14.997  0.8112 -2.2310  0.4779
   16DOPE   H8Y 2035   0.429   4.250  14.864 -0.7914 -0.9955 -1.0684
   16DOPE   C39 2036   0.574   4.107  14.802 -0.4673 -0.1519 -0.0366
   16DOPE   H9X 2037   0.630   4.015  14.825  0.3304  0.4784  0.5379
   16DOPE  C310 2038   0.590   4.156  14.675 -0.3073  0.5742  0.1795
   16DOPE  H10X 2039   0.665   4.107  14.611 -0.2914  1.6073 -0.6172
   16DOPE  C311 2040   0.524   4.278  14.614  0.0366  0.4665 -0.0563
   16DOPE  H11X 2041   0.532   4.356  14.693 -0.3825 -1.1214  1.6375
   16DOPE  H11Y 2042   0.596   4.315  14.538 -1.6870  1.5970 -1.2069
   16DOPE  C312 2043   0.379   4.290  14.559 -0.4009 -1.0394 -0.0551
   16DOPE  H12X 2044   0.306   4.304  14.642  0.9661  2.6314  0.7451
   16DOPE  H12Y 2045   0.365   4.198  14.499 -1.4981 -0.9793  0.0853
   16DOPE  C313 2046   0.362   4.411  14.464 -0.8365 -0.0033  0.7166
   16DOPE  H13X 2047   0.375   4.499  14.531 -1.2000 -0.9230  2.0381
   16DOPE  H13Y 2048   0.448   4.414  14.394 -1.2785 -0.6229  0.1283
   16DOPE  C314 2049   0.229   4.419  14.394  0.1375 -0.1398  0.3247
   16DOPE  H14X 2050   0.149   4.399  14.468 -1.4954  2.3829 -0.6376
   16DOPE  H14Y 2051   0.230   4.334  14.322  1.5668  1.2618 -1.4136
   16DOPE  C315 2052   0.199   4.554  14.317 -0.6293  0.1881  0.0524
   16DOPE  H15X 2053   0.099   4.525  14.278 -1.3489 -1.3347  2.7954
   16DOPE  H15Y 2054   0.272   4.567  14.235 -1.6702 -1.6081 -1.2199
   16DOPE  C316 2055   0.175   4.681  14.411 -0.3930  0.9676  0.4741
   16DOPE  H16X 2056   0.192   4.645  14.515 -2.6500 -2.8399 -0.2607
   16DOPE  H16Y 2057   0.064   4.693  14.419 -0.7948 -1.4444 -0.5635
   16DOPE  C317 2058   0.266   4.803  14.386  0.1635  0.1306 -0.1481
   16DOPE  H17X 2059   0.372   4.771  14.387 -0.2069 -1.2544 -1.9117
   16DOPE  H17Y 2060   0.242   4.833  14.282  2.5755 -1.0919 -1.1329
   16DOPE  C318 2061   0.247   4.922  14.482  0.3781  0.6609 -0.1782
   16DOPE  H18X 2062   0.208   4.879  14.577  0.6573 -2.7617 -1.5050
   16DOPE  H18Y 2063   0.336   4.977  14.518 -0.8884  2.2625  0.6740
   16DOPE  H18Z 2064   0.173   4.989  14.433  1.0616  0.9885 -0.7838
   17DOPE     N 2065   2.560   6.118  16.140 -0.1383 -1.4951  0.0998
   17DOPE   HN1 2066   2.463   6.087  16.164 -1.0740  0.4637 -0.9390
   17DOPE   HN2 2067   2.625   6.037  16.146  1.6833 -0.0157  1.3165
   17DOPE   HN3 2068   2.590   6.187  16.212  0.9459  0.7097 -2.3044
   17DOPE   C12 2069   2.575   6.196  16.013 -0.0950  0.6020  0.1268
   17DOPE  H12A 2070   2.504   6.158  15.936  1.4765  0.8522 -1.4977
   17DOPE  H12B 2071   2.680   6.186  15.980  0.5485  3.2777  1.1417
   17DOPE   C11 2072   2.528   6.332  16.042 -0.3252 -0.2384 -0.7034
   17DOPE  H11A 2073   2.418   6.333  16.056 -0.1429 -0.7459  0.9334
   17DOPE  H11B 2074   2.549   6.394  15.952  0.8226 -0.2257 -0.4384
   17DOPE     P 2075   2.717   6.476  16.145  0.1877 -0.0587 -0.1664
   17DOPE   O13 2076   2.835   6.396  16.110 -0.2672  0.3542 -0.4423
   17DOPE   O14 2077   2.724   6.555  16.269  0.0391  0.1501 -0.0381
   17DOPE   O11 2078   2.685   6.574  16.033 -0.1647  0.1774  0.5960
   17DOPE   O12 2079   2.595   6.379  16.158  0.4318  0.2955 -0.6297
   17DOPE    C1 2080   2.561   6.643  16.022  0.6822  0.1553  0.0455
   17DOPE    HA 2081   2.551   6.728  16.093  4.9937  0.4949  0.4958
   17DOPE    HB 2082   2.468   6.583  16.023 -0.3067  1.6181 -0.9067
   17DOPE    C2 2083   2.559   6.708  15.880 -0.3746 -0.6353 -0.5288
   17DOPE    HS 2084   2.475   6.781  15.880  1.0262  1.0387 -0.7245
   17DOPE   O21 2085   2.566   6.615  15.776  0.1597 -0.5563 -0.2783
   17DOPE   C21 2086   2.452   6.545  15.750 -0.6375 -0.3391 -0.6841
   17DOPE   O22 2087   2.344   6.570  15.811 -0.2288 -0.0873  0.0345
   17DOPE   C22 2088   2.474   6.447  15.630  0.5028  0.4102  0.2187
   17DOPE   H2R 2089   2.552   6.372  15.656  0.1270  0.6194  2.0838
   17DOPE   H2S 2090   2.512   6.508  15.545  0.0690 -0.4225 -0.5890
   17DOPE    C3 2091   2.688   6.790  15.866  0.0640  0.1124  0.2592
   17DOPE    HX 2092   2.770   6.715  15.855  1.2625  0.9859  2.5070
   17DOPE    HY 2093   2.696   6.854  15.957 -0.2545  0.6398 -0.0813
   17DOPE   O31 2094   2.680   6.882  15.755  0.0685  0.0351  0.5777
   17DOPE   C31 2095   2.783   6.953  15.730  0.0440  0.0956  0.1346
   17DOPE   O32 2096   2.886   6.963  15.795  0.4451  0.4799 -0.0195
   17DOPE   C32 2097   2.756   7.035  15.598 -0.2579  0.3195 -0.2240
   17DOPE   H2X 2098   2.654   7.021  15.557 -0.1520  0.6005 -0.5954
   17DOPE   H2Y 2099   2.768   7.140  15.633  2.3335 -0.4941  1.6349
   17DOPE   C23 2100   2.341   6.381  15.578  0.3231 -0.2101 -0.2130
   17DOPE   H3R 2101   2.257   6.452  15.572 -1.6143 -2.1732  1.5950
   17DOPE   H3S 2102   2.317   6.301  15.652  1.1901  0.9685  1.4037
   17DOPE   C24 2103   2.363   6.326  15.438  0.4337  0.2501  0.5682
   17DOPE   H4R 2104   2.441   6.247  15.447  0.0064 -0.3029 -0.3986
   17DOPE   H4S 2105   2.408   6.403  15.372  2.4836 -1.0579  0.3381
   17DOPE   C25 2106   2.246   6.261  15.377  0.3337  0.0056  0.1430
   17DOPE   H5R 2107   2.166   6.336  15.360  0.4950  0.3766  0.9508
   17DOPE   H5S 2108   2.219   6.193  15.461  1.3145  2.0470  2.2443
   17DOPE   C26 2109   2.298   6.186  15.255  0.0022  0.1250 -0.3135
   17DOPE   H6R 2110   2.388   6.126  15.278 -0.4971 -0.7530 -0.6012
   17DOPE   H6S 2111   2.319   6.266  15.181  0.2283  2.0098  1.6629
   17DOPE   C27 2112   2.204   6.088  15.192  0.4646  0.4133  0.0896
   17DOPE   H7R 2113   2.113   6.150  15.180  0.3576 -0.1567 -2.6982
   17DOPE   H7S 2114   2.193   6.002  15.261 -1.1323  1.3211  1.0299
   17DOPE   C28 2115   2.238   6.040  15.045  0.2569  0.1885 -0.5395
   17DOPE   H8R 2116   2.268   6.127  14.982 -1.5163  1.0651 -0.2432
   17DOPE   H8S 2117   2.151   5.990  14.997 -0.6612 -0.9388  2.1275
   17DOPE   C29 2118   2.353   5.934  15.039 -0.0044 -0.0091 -0.6042
   17DOPE   H9R 2119   2.428   5.942  15.120  0.0996  0.7026 -0.7630
   17DOPE  C210 2120   2.371   5.830  14.957  0.1986  0.0674 -0.4483
   17DOPE  H10R 2121   2.470   5.781  14.959 -0.0345 -0.4227  1.4656
   17DOPE  C211 2122   2.285   5.805  14.837 -0.6716  0.0981  0.1487
   17DOPE  H11R 2123   2.185   5.851  14.853 -1.0494  0.1705 -2.0849
   17DOPE  H11S 2124   2.271   5.695  14.827 -1.1084  0.3350 -2.7440
   17DOPE  C212 2125   2.329   5.855  14.699 -0.6124  0.2671  0.0831
   17DOPE  H12R 2126   2.365   5.958  14.712  0.2626  0.0260 -0.3740
   17DOPE  H12S 2127   2.238   5.853  14.634 -1.2078 -1.9589  0.9024
   17DOPE  C213 2128   2.431   5.764  14.633  0.3967  0.5724 -0.1730
   17DOPE  H13R 2129   2.385   5.684  14.571  2.1769 -0.0003 -0.8050
   17DOPE  H13S 2130   2.496   5.711  14.705  0.2043 -1.3395 -1.3225
   17DOPE  C214 2131   2.524   5.836  14.531 -0.4248 -0.1817  0.4274
   17DOPE  H14R 2132   2.624   5.787  14.523 -0.5610 -0.2228 -1.6529
   17DOPE  H14S 2133   2.548   5.940  14.564 -0.9320 -0.2915  1.1555
   17DOPE  C215 2134   2.473   5.831  14.386  0.3119  0.3989  0.1269
   17DOPE  H15R 2135   2.381   5.890  14.370 -0.4161 -0.9541 -0.8878
   17DOPE  H15S 2136   2.446   5.724  14.372  0.0750  0.2796  1.3351
   17DOPE  C216 2137   2.591   5.881  14.290  0.0039  0.5685 -0.7765
   17DOPE  H16R 2138   2.689   5.857  14.337 -0.9307 -0.5582  0.7206
   17DOPE  H16S 2139   2.573   5.990  14.285 -0.9072  0.3842 -1.5519
   17DOPE  C217 2140   2.586   5.816  14.147 -0.7795 -0.0451 -0.1453
   17DOPE  H17R 2141   2.489   5.846  14.103 -0.9307  0.1300  0.3019
   17DOPE  H17S 2142   2.585   5.705  14.156  1.8117 -0.3354 -2.0766
   17DOPE  C218 2143   2.704   5.862  14.061 -0.2912 -0.1898  0.2110
   17DOPE  H18R 2144   2.682   5.841  13.954 -0.7894 -2.6206  0.7329
   17DOPE  H18S 2145   2.802   5.816  14.087  1.2451  1.3280 -2.4348
   17DOPE  H18T 2146   2.719   5.971  14.071 -1.4505 -0.0608  0.5784
   17DOPE   C33 2147   2.851   6.993  15.484  0.6641 -0.1944  0.4926
   17DOPE   H3X 2148   2.959   7.010  15.504  0.9260 -2.6748  1.7013
   17DOPE   H3Y 2149   2.822   7.050  15.394 -0.8656 -1.0779  0.3949
   17DOPE   C34 2150   2.838   6.843  15.448 -0.0197 -0.5557 -0.3526
   17DOPE   H4X 2151   2.899   6.832  15.356 -3.0284 -1.7851 -2.3556
   17DOPE   H4Y 2152   2.883   6.785  15.531 -0.2353 -0.1220  0.0725
   17DOPE   C35 2153   2.696   6.800  15.426 -0.3430  0.2604 -0.3175
   17DOPE   H5X 2154   2.651   6.868  15.350 -0.5620 -0.0250 -0.4444
   17DOPE   H5Y 2155   2.630   6.803  15.516  1.2070 -1.2375  0.9297
   17DOPE   C36 2156   2.690   6.663  15.355  0.1012 -0.3395 -0.1253
   17DOPE   H6X 2157   2.660   6.586  15.429 -3.1440  0.5657 -0.3700
   17DOPE   H6Y 2158   2.794   6.639  15.321  1.3121  2.4955  1.2772
   17DOPE   C37 2159   2.568   6.643  15.263  0.5885 -0.3085  0.2271
   17DOPE   H7X 2160   2.478   6.609  15.320 -0.7781  0.7743 -1.1784
   17DOPE   H7Y 2161   2.551   6.730  15.197 -1.2142 -0.0729  0.9318
   17DOPE   C38 2162   2.588   6.524  15.167 -0.0449 -0.5229  0.2993
   17DOPE   H8X 2163   2.607   6.439  15.235 -0.0394  0.4053  1.4945
   17DOPE   H8Y 2164   2.686   6.530  15.115  0.5300 -0.7779  1.3226
   17DOPE   C39 2165   2.479   6.492  15.072  0.8913  0.6224  0.3041
   17DOPE   H9X 2166   2.382   6.470  15.119  1.3407  0.0430  0.9750
   17DOPE  C310 2167   2.497   6.484  14.942 -0.0600  1.4465  0.2279
   17DOPE  H10X 2168   2.412   6.452  14.880  0.8814  0.7012 -0.7069
   17DOPE  C311 2169   2.627   6.497  14.864  0.1605  0.1425 -0.7617
   17DOPE  H11X 2170   2.642   6.601  14.829  2.7997  0.2255  0.3551
   17DOPE  H11Y 2171   2.717   6.467  14.922  1.8758  0.3499 -3.1740
   17DOPE  C312 2172   2.638   6.413  14.734  0.3123 -0.0320  0.7909
   17DOPE  H12X 2173   2.622   6.308  14.766 -0.2777 -0.2432 -0.1661
   17DOPE  H12Y 2174   2.733   6.430  14.679 -0.3980  1.3048 -0.0598
   17DOPE  C313 2175   2.531   6.432  14.628 -0.9488 -1.0232  0.7672
   17DOPE  H13X 2176   2.540   6.350  14.554  3.2692 -0.4298  0.3973
   17DOPE  H13Y 2177   2.431   6.436  14.676 -1.2633  1.4191  0.0808
   17DOPE  C314 2178   2.555   6.569  14.564  0.2210 -0.3211  0.3890
   17DOPE  H14X 2179   2.546   6.641  14.648 -1.2799 -1.1241  0.9669
   17DOPE  H14Y 2180   2.469   6.572  14.493 -0.1504 -0.7355  0.8068
   17DOPE  C315 2181   2.685   6.601  14.481  0.7640 -0.2439 -0.3678
   17DOPE  H15X 2182   2.703   6.508  14.424  0.7462 -0.9872  0.8115
   17DOPE  H15Y 2183   2.770   6.606  14.552  1.0432 -2.6307 -0.4802
   17DOPE  C316 2184   2.654   6.719  14.389  0.4016  0.1271 -0.3716
   17DOPE  H16X 2185   2.609   6.793  14.458  0.2039 -2.0088  1.9240
   17DOPE  H16Y 2186   2.582   6.687  14.310  0.4969 -1.8183  0.2794
   17DOPE  C317 2187   2.774   6.779  14.313 -0.9079 -0.1277  0.7458
   17DOPE  H17X 2188   2.806   6.702  14.239  1.2726 -0.0251  1.5122
   17DOPE  H17Y 2189   2.743   6.870  14.258 -0.0552  0.6487  1.5085
   17DOPE  C318 2190   2.896   6.807  14.399  0.0242 -0.1901  0.2621
   17DOPE  H18X 2191   2.885   6.897  14.462 -0.1715 -0.1077  0.1120
   17DOPE  H18Y 2192   2.920   6.716  14.458 -0.8431 -1.4798 -1.2861
   17DOPE  H18Z 2193   2.987   6.817  14.337  0.7988 -0.7660  1.2882
   18DOPE     N 2194   7.346   2.979  16.223 -0.0569 -0.1409  0.5685
   18DOPE   HN1 2195   7.289   3.064  16.204  0.8748  0.6229  1.1125
   18DOPE   HN2 2196   7.424   2.970  16.155 -1.6770 -0.8407 -1.3077
   18DOPE   HN3 2197   7.284   2.896  16.218 -0.1469 -0.0696  0.4898
   18DOPE   C12 2198   7.392   2.993  16.369  0.0122  0.5839 -0.2954
   18DOPE  H12A 2199   7.471   2.917  16.384 -0.6771 -0.1379 -0.2447
   18DOPE  H12B 2200   7.305   2.969  16.434  0.8429 -0.3627  0.4971
   18DOPE   C11 2201   7.454   3.137  16.399 -0.6443 -0.0509 -0.1510
   18DOPE  H11A 2202   7.483   3.127  16.506  0.2291 -2.1783 -0.5453
   18DOPE  H11B 2203   7.368   3.207  16.394 -0.9509 -0.1066  2.6556
   18DOPE     P 2204   7.597   3.321  16.278  0.2960 -0.2767  0.0594
   18DOPE   O13 2205   7.717   3.321  16.189  0.5673 -0.2585  0.2403
   18DOPE   O14 2206   7.613   3.395  16.404 -0.4400  0.1511 -0.3378
   18DOPE   O11 2207   7.467   3.365  16.198  0.7950 -0.4817  0.4380
   18DOPE   O12 2208   7.570   3.168  16.316 -0.3921  0.1849 -0.1583
   18DOPE    C1 2209   7.429   3.304  16.078 -0.3410 -0.0606  0.3706
   18DOPE    HA 2210   7.326   3.263  16.081  0.9529 -3.8841 -1.2855
   18DOPE    HB 2211   7.496   3.221  16.047  0.2972  0.5062  0.1995
   18DOPE    C2 2212   7.443   3.412  15.961  0.1155 -0.1090  0.1268
   18DOPE    HS 2213   7.553   3.425  15.952 -0.2850  5.1270 -0.3671
   18DOPE   O21 2214   7.385   3.527  16.021  0.3070 -0.6356  0.5676
   18DOPE   C21 2215   7.432   3.642  15.973  0.1260  0.0125 -0.7105
   18DOPE   O22 2216   7.530   3.658  15.900 -0.4666  0.3875 -0.6447
   18DOPE   C22 2217   7.358   3.766  16.042 -0.1036  0.1303 -0.0952
   18DOPE   H2R 2218   7.410   3.790  16.137  0.8863 -0.7733 -0.4008
   18DOPE   H2S 2219   7.250   3.742  16.057 -0.0770 -0.9410 -1.4507
   18DOPE    C3 2220   7.371   3.366  15.837  0.1804 -0.6605  0.0433
   18DOPE    HX 2221   7.267   3.349  15.873  0.6983 -1.1524  1.3956
   18DOPE    HY 2222   7.413   3.265  15.821  1.4272 -0.2310  0.4104
   18DOPE   O31 2223   7.384   3.453  15.716 -0.9194  0.5243  0.1118
   18DOPE   C31 2224   7.278   3.510  15.664  0.6783  0.0366  0.6467
   18DOPE   O32 2225   7.165   3.496  15.706 -0.0516  0.0294 -0.0508
   18DOPE   C32 2226   7.322   3.608  15.558  0.8313 -0.1471  0.6473
   18DOPE   H2X 2227   7.265   3.704  15.565  0.1494 -0.2517 -2.2310
   18DOPE   H2Y 2228   7.429   3.633  15.569  0.9003 -0.6153  1.0328
   18DOPE   C23 2229   7.362   3.894  15.950  0.1038 -0.3932 -0.7924
   18DOPE   H3R 2230   7.467   3.930  15.948  0.4235 -1.2806 -0.3162
   18DOPE   H3S 2231   7.314   3.972  16.014  0.7270 -0.5487 -0.1056
   18DOPE   C24 2232   7.295   3.864  15.815  0.1231 -0.0008  0.7814
   18DOPE   H4R 2233   7.186   3.844  15.816 -0.4192  1.9850 -2.7322
   18DOPE   H4S 2234   7.349   3.778  15.770  0.4861  1.5743 -1.9637
   18DOPE   C25 2235   7.318   3.986  15.727 -0.1318  0.7652 -0.0168
   18DOPE   H5R 2236   7.301   4.078  15.786 -1.7418  1.1103 -0.9585
   18DOPE   H5S 2237   7.234   3.987  15.654 -0.7563 -1.5056  0.5926
   18DOPE   C26 2238   7.436   3.963  15.631 -0.6290  0.3668 -0.2995
   18DOPE   H6R 2239   7.423   3.866  15.577  0.1508  0.2716 -0.3221
   18DOPE   H6S 2240   7.538   3.951  15.674 -0.2331  0.1187 -1.2822
   18DOPE   C27 2241   7.457   4.057  15.507  0.3055  0.1253  0.1001
   18DOPE   H7R 2242   7.465   4.158  15.552 -1.0781 -0.0320  0.7544
   18DOPE   H7S 2243   7.371   4.055  15.437 -0.2751  1.7175  0.7173
   18DOPE   C28 2244   7.582   4.013  15.434 -0.8323 -0.1152  0.4930
   18DOPE   H8R 2245   7.659   3.993  15.512 -1.3765  0.9011  1.3165
   18DOPE   H8S 2246   7.604   4.099  15.368 -4.7345 -1.6609 -3.2894
   18DOPE   C29 2247   7.563   3.898  15.340  0.6885 -0.2273 -0.3214
   18DOPE   H9R 2248   7.564   3.796  15.381 -1.6609 -0.6277 -1.1476
   18DOPE  C210 2249   7.527   3.908  15.210 -0.3068 -0.1513 -0.0508
   18DOPE  H10R 2250   7.532   3.819  15.144 -0.2380 -1.4374  1.6320
   18DOPE  C211 2251   7.510   4.036  15.133 -0.3392  0.3341  0.8055
   18DOPE  H11R 2252   7.528   4.012  15.026  2.0397 -1.6710  1.5538
   18DOPE  H11S 2253   7.589   4.112  15.149  2.5616 -1.5397 -2.8691
   18DOPE  C212 2254   7.374   4.103  15.136 -1.0482  0.1043 -0.4146
   18DOPE  H12R 2255   7.362   4.143  15.239  0.0222 -0.9500  0.1396
   18DOPE  H12S 2256   7.292   4.028  15.132 -0.4465 -0.8606  2.5524
   18DOPE  C213 2257   7.361   4.212  15.032 -0.0862 -0.0330 -0.2748
   18DOPE  H13R 2258   7.370   4.177  14.927  0.1118  1.0391 -0.6286
   18DOPE  H13S 2259   7.442   4.285  15.050  0.5799 -0.5553 -1.0881
   18DOPE  C214 2260   7.227   4.280  15.053  0.6085 -0.7916  0.3784
   18DOPE  H14R 2261   7.142   4.211  15.035  0.1988 -0.0927 -0.4779
   18DOPE  H14S 2262   7.217   4.362  14.979  0.3522 -1.2727 -0.1299
   18DOPE  C215 2263   7.201   4.352  15.183  0.9815 -0.6650 -0.4113
   18DOPE  H15R 2264   7.195   4.280  15.267  1.7719  1.0405  1.1623
   18DOPE  H15S 2265   7.100   4.399  15.175  0.2522 -2.1978 -0.5360
   18DOPE  C216 2266   7.302   4.452  15.226 -0.1563  0.1335 -0.5997
   18DOPE  H16R 2267   7.316   4.536  15.155  0.3157 -1.2425 -2.1972
   18DOPE  H16S 2268   7.398   4.397  15.223 -0.7638 -0.9949 -0.0166
   18DOPE  C217 2269   7.276   4.511  15.364  0.5094 -0.0489 -0.2710
   18DOPE  H17R 2270   7.264   4.417  15.423 -0.9615 -0.1527 -0.7064
   18DOPE  H17S 2271   7.175   4.557  15.369  0.7074  0.3246  0.4216
   18DOPE  C218 2272   7.378   4.602  15.431 -0.2342  0.8562 -0.0451
   18DOPE  H18R 2273   7.358   4.604  15.540 -0.0131 -2.3591  0.1414
   18DOPE  H18S 2274   7.380   4.700  15.378  0.7003 -0.1130 -1.8965
   18DOPE  H18T 2275   7.475   4.550  15.418 -1.6769 -1.8864 -0.4963
   18DOPE   C33 2276   7.301   3.537  15.418  1.1324  0.1581 -0.2379
   18DOPE   H3X 2277   7.338   3.433  15.416  0.3496 -0.1225 -0.9613
   18DOPE   H3Y 2278   7.350   3.603  15.343  0.9639  1.2473  0.5854
   18DOPE   C34 2279   7.152   3.533  15.377 -0.2792  0.0524  0.2045
   18DOPE   H4X 2280   7.098   3.456  15.436 -1.1283  0.5657  0.1040
   18DOPE   H4Y 2281   7.107   3.628  15.414  0.0773 -1.0294  3.8655
   18DOPE   C35 2282   7.135   3.497  15.229 -0.5984 -0.3699 -0.1685
   18DOPE   H5X 2283   7.035   3.452  15.210 -0.4184 -0.6953 -0.3533
   18DOPE   H5Y 2284   7.211   3.419  15.205  2.6275  2.1512  1.0427
   18DOPE   C36 2285   7.165   3.618  15.130 -0.9441 -0.1529  0.0963
   18DOPE   H6X 2286   7.260   3.670  15.155 -0.7632  0.2048 -1.3030
   18DOPE   H6Y 2287   7.081   3.691  15.132 -0.0751  0.8708  1.4316
   18DOPE   C37 2288   7.185   3.564  14.986  0.0245 -0.8210  1.1210
   18DOPE   H7X 2289   7.274   3.497  14.983  0.0744 -0.7274  0.3469
   18DOPE   H7Y 2290   7.101   3.496  14.962  0.7769 -1.0588 -1.1147
   18DOPE   C38 2291   7.186   3.679  14.885  0.1133  0.4798  0.2972
   18DOPE   H8X 2292   7.103   3.748  14.916  0.3774 -0.2827  2.9667
   18DOPE   H8Y 2293   7.158   3.646  14.783  0.5373  0.0052  0.3361
   18DOPE   C39 2294   7.314   3.751  14.862  0.1664  0.5443 -0.1088
   18DOPE   H9X 2295   7.405   3.691  14.881  0.2445  0.1232 -1.6752
   18DOPE  C310 2296   7.325   3.874  14.818  0.0163 -0.1092  0.7619
   18DOPE  H10X 2297   7.420   3.925  14.800  0.0081 -0.5982 -0.9241
   18DOPE  C311 2298   7.206   3.961  14.777  0.2102  0.0012 -0.1334
   18DOPE  H11X 2299   7.121   3.900  14.740  0.7708 -0.6427 -0.3691
   18DOPE  H11Y 2300   7.170   4.018  14.865 -0.0682 -0.2090 -0.1114
   18DOPE  C312 2301   7.237   4.065  14.670 -0.1000  0.2226  0.2580
   18DOPE  H12X 2302   7.275   4.008  14.582 -0.5368 -2.1154  1.5113
   18DOPE  H12Y 2303   7.320   4.128  14.710  0.0366  1.4606 -1.7945
   18DOPE  C313 2304   7.118   4.153  14.636 -0.2121 -0.2207 -0.2966
   18DOPE  H13X 2305   7.040   4.094  14.583  0.8213 -0.7113 -1.3174
   18DOPE  H13Y 2306   7.078   4.186  14.734  1.2734  0.0812  0.2341
   18DOPE  C314 2307   7.149   4.291  14.570  0.4666  0.5631  0.2276
   18DOPE  H14X 2308   7.228   4.336  14.634  0.2019  0.7939  0.3902
   18DOPE  H14Y 2309   7.057   4.353  14.567 -1.1590 -1.7013 -0.0892
   18DOPE  C315 2310   7.213   4.286  14.432 -0.2635  0.3115 -0.1750
   18DOPE  H15X 2311   7.179   4.197  14.375 -2.2242  0.0166  1.3146
   18DOPE  H15Y 2312   7.323   4.273  14.433 -0.0023  1.9089 -2.5492
   18DOPE  C316 2313   7.193   4.411  14.351  0.0165 -0.3566 -0.2570
   18DOPE  H16X 2314   7.274   4.476  14.390  1.1091 -1.9666  0.2339
   18DOPE  H16Y 2315   7.093   4.457  14.369  0.5754  0.6235  0.4226
   18DOPE  C317 2316   7.219   4.405  14.199  0.1619 -0.1850 -0.2168
   18DOPE  H17X 2317   7.134   4.358  14.145 -0.6892  1.9676 -0.8963
   18DOPE  H17Y 2318   7.219   4.511  14.166  0.3381  0.6589  2.3020
   18DOPE  C318 2319   7.351   4.338  14.157  0.4629  0.7343  0.1511
   18DOPE  H18X 2320   7.433   4.377  14.220 -1.5258 -1.1248  4.2820
   18DOPE  H18Y 2321   7.343   4.228  14.173 -2.3079  0.8032 -0.1907
   18DOPE  H18Z 2322   7.379   4.355  14.051  0.9156 -0.8020 -0.0056
   19DOPE     N 2323   6.678   4.833  16.131 -0.0682 -0.4174  0.3258
   19DOPE   HN1 2324   6.693   4.732  16.146 -2.7858 -0.7158  1.7295
   19DOPE   HN2 2325   6.748   4.886  16.187  1.9962  1.3022 -3.5050
   19DOPE   HN3 2326   6.583   4.857  16.168  0.4486  4.0166 -0.6056
   19DOPE   C12 2327   6.676   4.850  15.982 -0.1468  0.2013 -0.2116
   19DOPE  H12A 2328   6.750   4.923  15.945  1.4881 -1.9836 -1.4671
   19DOPE  H12B 2329   6.573   4.877  15.951  0.0718  3.3179  1.2910
   19DOPE   C11 2330   6.728   4.716  15.914 -0.3613  0.6281 -0.7429
   19DOPE  H11A 2331   6.833   4.710  15.948  0.6573 -3.9082 -3.8390
   19DOPE  H11B 2332   6.728   4.737  15.805  0.5612  0.0081 -0.8691
   19DOPE     P 2333   6.686   4.488  16.042  0.0478 -0.0481  0.0526
   19DOPE   O13 2334   6.572   4.387  16.045 -0.0132  0.2601 -0.2485
   19DOPE   O14 2335   6.725   4.549  16.171 -0.0970 -0.4092 -0.4560
   19DOPE   O11 2336   6.818   4.424  15.978  0.1576  0.1932 -0.5760
   19DOPE   O12 2337   6.644   4.607  15.940  0.5303  0.1700 -0.2047
   19DOPE    C1 2338   6.822   4.404  15.831 -0.7217  0.2745  0.4769
   19DOPE    HA 2339   6.759   4.472  15.769 -1.0900 -1.3059 -0.9566
   19DOPE    HB 2340   6.800   4.298  15.809 -1.5881  0.2698  1.2935
   19DOPE    C2 2341   6.967   4.436  15.773  0.4869 -0.6898 -0.9366
   19DOPE    HS 2342   7.045   4.379  15.828  3.4293  3.4106 -0.4609
   19DOPE   O21 2343   6.999   4.579  15.797  1.1397 -0.1258  0.3530
   19DOPE   C21 2344   7.123   4.617  15.786 -0.2594  0.3964  0.2590
   19DOPE   O22 2345   7.219   4.550  15.758 -0.1972 -0.1829 -0.5836
   19DOPE   C22 2346   7.137   4.767  15.809 -0.2596 -0.8064 -0.7685
   19DOPE   H2R 2347   7.194   4.774  15.904 -1.5571  0.6403 -0.0384
   19DOPE   H2S 2348   7.033   4.806  15.822  0.3224  1.0175 -1.3282
   19DOPE    C3 2349   6.971   4.404  15.624 -0.3530  0.2503 -0.3863
   19DOPE    HX 2350   7.076   4.427  15.597  0.0585  1.6108  2.0531
   19DOPE    HY 2351   6.921   4.477  15.557  1.0378  1.8124  0.2239
   19DOPE   O31 2352   6.933   4.272  15.591  0.2023 -0.2813  0.3556
   19DOPE   C31 2353   7.036   4.195  15.542  0.2589 -0.1989 -1.1920
   19DOPE   O32 2354   7.156   4.231  15.538 -0.3963  0.1499  0.4012
   19DOPE   C32 2355   6.989   4.052  15.522 -0.1546  0.9064 -0.3295
   19DOPE   H2X 2356   6.982   4.003  15.622  1.8293 -0.7528 -0.9540
   19DOPE   H2Y 2357   6.888   4.060  15.476 -1.1258  0.6647  1.6422
   19DOPE   C23 2358   7.205   4.823  15.684  0.1893 -0.3056 -0.2315
   19DOPE   H3R 2359   7.168   4.779  15.589 -0.1336  0.2962 -0.3900
   19DOPE   H3S 2360   7.313   4.801  15.701 -0.5475 -3.4190  1.0550
   19DOPE   C24 2361   7.200   4.976  15.683 -0.1089 -1.0668 -0.4798
   19DOPE   H4R 2362   7.226   5.010  15.786  0.7703 -1.1350 -0.6785
   19DOPE   H4S 2363   7.102   5.019  15.653  0.6778 -1.0819 -3.3264
   19DOPE   C25 2364   7.304   5.030  15.581 -0.4513  0.2488  0.1562
   19DOPE   H5R 2365   7.405   4.989  15.600  0.4718  1.6050 -1.5113
   19DOPE   H5S 2366   7.323   5.138  15.600  0.5568 -0.1157  1.3482
   19DOPE   C26 2367   7.262   5.006  15.431 -0.4240 -0.4510 -0.3765
   19DOPE   H6R 2368   7.173   5.071  15.417  0.0980  0.6894  1.3267
   19DOPE   H6S 2369   7.238   4.899  15.414 -0.6818 -0.3890 -0.4081
   19DOPE   C27 2370   7.389   5.036  15.346  0.2475  0.2325 -0.1798
   19DOPE   H7R 2371   7.467   4.963  15.380 -1.0680 -2.1569 -1.9811
   19DOPE   H7S 2372   7.418   5.140  15.372 -0.8066 -0.0267  2.3587
   19DOPE   C28 2373   7.359   5.033  15.191 -0.0633  0.6335 -0.2849
   19DOPE   H8R 2374   7.291   5.114  15.160  0.5027  1.1028 -0.3207
   19DOPE   H8S 2375   7.310   4.937  15.163  0.2279  0.7509 -1.2344
   19DOPE   C29 2376   7.492   5.049  15.121 -0.0955 -0.4864 -0.6837
   19DOPE   H9R 2377   7.542   5.143  15.146  0.5749 -1.0390  0.1073
   19DOPE  C210 2378   7.543   4.958  15.031 -0.2815 -0.1971 -0.8457
   19DOPE  H10R 2379   7.634   4.973  14.970 -0.1289 -0.2169 -0.6249
   19DOPE  C211 2380   7.490   4.819  15.020 -0.0074 -0.0506 -0.0403
   19DOPE  H11R 2381   7.388   4.821  14.975 -0.2388  2.1313  0.4592
   19DOPE  H11S 2382   7.489   4.765  15.117 -1.0641  1.3336  0.7569
   19DOPE  C212 2383   7.579   4.735  14.920 -0.3181 -0.2093  0.0441
   19DOPE  H12R 2384   7.576   4.633  14.965 -2.3589  0.7927  2.4653
   19DOPE  H12S 2385   7.678   4.778  14.894  0.4409 -1.2264  1.1533
   19DOPE  C213 2386   7.523   4.723  14.776 -0.1111 -0.4715 -0.4311
   19DOPE  H13R 2387   7.505   4.826  14.738  2.6743 -0.1551 -1.0851
   19DOPE  H13S 2388   7.433   4.659  14.763  0.1883 -0.5131 -2.8165
   19DOPE  C214 2389   7.619   4.664  14.668  0.4734  0.0221 -0.0551
   19DOPE  H14R 2390   7.703   4.736  14.669  0.4481  0.0824 -1.0763
   19DOPE  H14S 2391   7.577   4.672  14.566  0.7603  1.5762 -0.0799
   19DOPE  C215 2392   7.655   4.518  14.692 -0.5447 -0.5842 -0.4063
   19DOPE  H15R 2393   7.702   4.504  14.792  0.8012 -0.2237 -0.9584
   19DOPE  H15S 2394   7.735   4.488  14.621 -0.1734 -0.9222  0.1500
   19DOPE  C216 2395   7.537   4.424  14.685 -0.1292  0.7561 -0.0815
   19DOPE  H16R 2396   7.470   4.467  14.608  2.5325  3.4141 -1.1009
   19DOPE  H16S 2397   7.473   4.420  14.776  1.4528 -1.7299  1.0279
   19DOPE  C217 2398   7.586   4.283  14.641  0.5205  0.0761 -0.1821
   19DOPE  H17R 2399   7.657   4.289  14.556 -0.3694 -0.8300 -1.0264
   19DOPE  H17S 2400   7.512   4.220  14.586  1.0491  0.5890 -1.5068
   19DOPE  C218 2401   7.638   4.201  14.756 -0.2344  0.3310  0.5497
   19DOPE  H18R 2402   7.573   4.208  14.846 -0.8868  0.9910  0.0339
   19DOPE  H18S 2403   7.741   4.237  14.775 -1.0733  2.4107  1.4787
   19DOPE  H18T 2404   7.649   4.093  14.733  2.8240  0.3696  1.3229
   19DOPE   C33 2405   7.067   3.959  15.425 -0.2545 -0.4899 -0.1348
   19DOPE   H3X 2406   7.051   3.855  15.459  0.0135  0.2111  2.2911
   19DOPE   H3Y 2407   7.175   3.967  15.449 -0.7004  1.0914  1.6579
   19DOPE   C34 2408   7.051   3.993  15.281 -0.3168  0.6084 -0.6593
   19DOPE   H4X 2409   7.083   4.096  15.255 -2.0178  1.5172  0.5930
   19DOPE   H4Y 2410   7.120   3.920  15.235 -0.3394 -0.9825  1.6321
   19DOPE   C35 2411   6.908   3.968  15.231  0.5081  0.5119  0.2562
   19DOPE   H5X 2412   6.836   4.045  15.265  0.6457  0.8800 -0.2838
   19DOPE   H5Y 2413   6.875   3.867  15.264  0.7340 -0.1412 -1.3936
   19DOPE   C36 2414   6.920   3.967  15.078  0.2310 -1.0646  1.2267
   19DOPE   H6X 2415   7.012   3.908  15.055  0.8027  0.3209 -0.2434
   19DOPE   H6Y 2416   6.936   4.069  15.038 -3.0311 -1.0827 -0.3921
   19DOPE   C37 2417   6.800   3.904  15.011  0.4071 -0.0604  0.0037
   19DOPE   H7X 2418   6.780   3.797  15.035 -1.5875 -0.2572 -2.2142
   19DOPE   H7Y 2419   6.706   3.955  15.040 -0.7765 -1.7864 -0.6156
   19DOPE   C38 2420   6.820   3.910  14.853  0.1292  1.0742  0.2411
   19DOPE   H8X 2421   6.923   3.871  14.842 -0.3251  0.6124 -4.3828
   19DOPE   H8Y 2422   6.828   4.020  14.841 -2.4173  1.3902  0.8988
   19DOPE   C39 2423   6.710   3.846  14.773 -0.2178  0.4675  0.3631
   19DOPE   H9X 2424   6.608   3.886  14.780 -0.3527  0.3422 -0.7656
   19DOPE  C310 2425   6.728   3.742  14.685 -0.6674  0.1295 -0.1972
   19DOPE  H10X 2426   6.644   3.713  14.621 -0.8313 -0.1546  0.1468
   19DOPE  C311 2427   6.862   3.680  14.649  0.6966 -0.2486 -0.1152
   19DOPE  H11X 2428   6.919   3.676  14.744 -1.7951 -0.3624  1.4509
   19DOPE  H11Y 2429   6.833   3.581  14.607 -1.1162  0.4365 -0.5946
   19DOPE  C312 2430   6.933   3.765  14.543  0.1837  0.6317  0.1885
   19DOPE  H12X 2431   7.017   3.704  14.504 -2.1017 -1.7108 -1.3891
   19DOPE  H12Y 2432   6.966   3.864  14.581 -0.7836  0.6620  1.0093
   19DOPE  C313 2433   6.842   3.798  14.422  0.1414  0.5937  0.6610
   19DOPE  H13X 2434   6.763   3.862  14.465 -1.2970  0.1913 -1.2188
   19DOPE  H13Y 2435   6.889   3.862  14.344  2.9327 -0.6194  1.2367
   19DOPE  C314 2436   6.769   3.684  14.341  0.2624 -0.1753  0.6739
   19DOPE  H14X 2437   6.663   3.718  14.335  0.7596  1.1980 -0.9158
   19DOPE  H14Y 2438   6.788   3.582  14.381 -1.1513 -1.2919 -1.2980
   19DOPE  C315 2439   6.810   3.676  14.191  0.5408 -0.7560  0.3227
   19DOPE  H15X 2440   6.790   3.766  14.129  2.5283 -0.6750 -0.2394
   19DOPE  H15Y 2441   6.742   3.598  14.151 -1.1085  0.8917 -0.2378
   19DOPE  C316 2442   6.952   3.627  14.155 -0.0195  0.3450  0.0385
   19DOPE  H16X 2443   6.985   3.567  14.242 -2.6049  1.5559  2.0174
   19DOPE  H16Y 2444   7.015   3.716  14.139 -0.8038  0.7711 -0.8130
   19DOPE  C317 2445   6.969   3.545  14.030 -0.4635 -0.4610 -0.0321
   19DOPE  H17X 2446   7.076   3.524  14.007 -0.4039  0.8315 -1.0649
   19DOPE  H17Y 2447   6.925   3.443  14.041  0.3936 -1.0351 -1.5161
   19DOPE  C318 2448   6.909   3.615  13.905 -0.1227  0.0611  0.4556
   19DOPE  H18X 2449   6.805   3.647  13.929 -0.2836  0.2044 -0.4079
   19DOPE  H18Y 2450   6.963   3.702  13.863  0.0057 -0.4592 -0.4693
   19DOPE  H18Z 2451   6.895   3.543  13.822  0.6703  0.3073  0.1049
   20DOPE     N 2452   4.778   7.004  16.061 -0.0151  0.1365  0.0488
   20DOPE   HN1 2453   4.693   6.977  16.008 -0.6121  2.0438 -0.0150
   20DOPE   HN2 2454   4.815   6.911  16.089  1.3037  0.0388 -1.8347
   20DOPE   HN3 2455   4.744   7.053  16.146 -1.7617  0.7856 -0.9888
   20DOPE   C12 2456   4.881   7.082  15.987 -0.1266  0.1155 -0.2160
   20DOPE  H12A 2457   4.846   7.184  15.960  1.4273  1.1806  1.5371
   20DOPE  H12B 2458   4.912   7.024  15.898  2.7073  1.6579 -0.3422
   20DOPE   C11 2459   5.015   7.090  16.066 -0.4954  0.1144 -0.3548
   20DOPE  H11A 2460   5.090   7.139  16.000  0.5725 -1.7639 -0.6042
   20DOPE  H11B 2461   5.060   6.991  16.091  0.1481 -0.5012 -3.4911
   20DOPE     P 2462   5.129   7.211  16.276  0.0237 -0.1602  0.5225
   20DOPE   O13 2463   5.161   7.086  16.342 -0.0595 -0.5836 -0.2578
   20DOPE   O14 2464   5.102   7.331  16.362  0.3015 -0.1010 -0.2321
   20DOPE   O11 2465   5.235   7.240  16.161  0.0541 -0.4576 -0.0163
   20DOPE   O12 2466   5.000   7.177  16.182 -0.1962 -0.4731  0.2451
   20DOPE    C1 2467   5.286   7.374  16.130  0.0184  0.2643 -0.1765
   20DOPE    HA 2468   5.367   7.405  16.199 -0.5186 -0.3800  0.7495
   20DOPE    HB 2469   5.202   7.446  16.134 -3.2496 -3.1710 -1.0811
   20DOPE    C2 2470   5.340   7.385  15.985  0.0811  0.0623  0.2204
   20DOPE    HS 2471   5.378   7.488  15.970  0.7608 -0.4835 -2.1821
   20DOPE   O21 2472   5.241   7.346  15.883 -0.1545 -0.2812  0.1116
   20DOPE   C21 2473   5.151   7.437  15.852  0.1094  0.7413  0.3713
   20DOPE   O22 2474   5.142   7.554  15.890 -0.3649  0.0403  0.4668
   20DOPE   C22 2475   5.057   7.370  15.755  0.1743  0.4854 -0.1630
   20DOPE   H2R 2476   4.956   7.410  15.776  1.7035  2.9875  3.6259
   20DOPE   H2S 2477   5.055   7.261  15.777 -0.9838  0.1370 -1.8417
   20DOPE    C3 2478   5.454   7.289  15.972 -0.9735 -0.7143 -0.2134
   20DOPE    HX 2479   5.432   7.180  15.984 -0.0867 -0.9743 -0.8254
   20DOPE    HY 2480   5.531   7.313  16.049  0.6023  1.9121 -2.4492
   20DOPE   O31 2481   5.517   7.308  15.846  0.5745  0.2858  0.2170
   20DOPE   C31 2482   5.654   7.305  15.843 -0.3768 -0.5276 -0.2019
   20DOPE   O32 2483   5.725   7.278  15.941  0.5124 -0.1179 -0.7971
   20DOPE   C32 2484   5.711   7.373  15.717  0.3614  0.8351 -0.5275
   20DOPE   H2X 2485   5.707   7.298  15.635  3.5545  0.6920 -0.6831
   20DOPE   H2Y 2486   5.646   7.460  15.695 -1.9032 -0.6008  0.1327
   20DOPE   C23 2487   5.110   7.416  15.616  0.6835 -0.0979  0.7177
   20DOPE   H3R 2488   5.218   7.397  15.596  0.6894  0.5489  0.1102
   20DOPE   H3S 2489   5.117   7.527  15.616  0.8964 -0.1084 -0.0452
   20DOPE   C24 2490   5.026   7.370  15.498  0.2603 -0.0287 -1.1354
   20DOPE   H4R 2491   4.922   7.363  15.537 -0.0250 -0.8877 -2.0237
   20DOPE   H4S 2492   5.067   7.271  15.468  2.6110 -0.1153  1.8743
   20DOPE   C25 2493   5.031   7.467  15.377  0.0142  0.1035 -0.2751
   20DOPE   H5R 2494   5.137   7.499  15.377 -0.0746  0.4170  0.4989
   20DOPE   H5S 2495   4.963   7.554  15.391 -0.5235 -0.2524 -0.5972
   20DOPE   C26 2496   4.989   7.394  15.241 -0.1869  0.2911 -0.3391
   20DOPE   H6R 2497   4.879   7.378  15.239 -0.2121  0.5442 -1.2509
   20DOPE   H6S 2498   5.034   7.293  15.228 -1.0387 -0.0434 -0.7652
   20DOPE   C27 2499   5.026   7.483  15.119 -0.6780 -0.5294 -0.3510
   20DOPE   H7R 2500   5.136   7.489  15.104 -0.1491 -2.6639  1.9654
   20DOPE   H7S 2501   4.996   7.588  15.136  0.0521 -0.0481 -1.8678
   20DOPE   C28 2502   4.969   7.425  14.988  0.1330 -0.5160  0.8314
   20DOPE   H8R 2503   4.990   7.495  14.904  1.3351 -1.7823  0.0273
   20DOPE   H8S 2504   4.860   7.421  15.011 -0.2866  2.0434 -0.2496
   20DOPE   C29 2505   5.013   7.290  14.946  0.3330 -0.5729 -0.8257
   20DOPE   H9R 2506   5.004   7.207  15.017  0.1306 -1.8495 -2.2993
   20DOPE  C210 2507   5.079   7.256  14.835  0.2356 -0.6929 -0.3074
   20DOPE  H10R 2508   5.113   7.151  14.842 -0.5686 -0.8902  1.1513
   20DOPE  C211 2509   5.120   7.348  14.721  0.9253  0.1314 -0.1442
   20DOPE  H11R 2510   5.229   7.340  14.700  1.0709  1.4154  0.0436
   20DOPE  H11S 2511   5.107   7.456  14.744  3.1082  0.6697 -1.1451
   20DOPE  C212 2512   5.050   7.315  14.591  0.7134 -0.3241  0.5698
   20DOPE  H12R 2513   4.940   7.311  14.608  0.2117  0.9387 -1.9351
   20DOPE  H12S 2514   5.081   7.217  14.550 -1.5392 -1.0909  0.5661
   20DOPE  C213 2515   5.085   7.425  14.489 -0.5900 -0.1999 -0.7165
   20DOPE  H13R 2516   5.068   7.530  14.522  0.5902 -0.3102  0.3014
   20DOPE  H13S 2517   5.031   7.403  14.394  0.2698 -1.8682 -0.8465
   20DOPE  C214 2518   5.235   7.432  14.452  0.3306  0.1000  0.1727
   20DOPE  H14R 2519   5.280   7.336  14.422 -2.1265 -0.8208 -0.8042
   20DOPE  H14S 2520   5.295   7.475  14.535 -0.9530  1.7089  0.3264
   20DOPE  C215 2521   5.254   7.515  14.324  0.0928 -0.3213  0.0416
   20DOPE  H15R 2522   5.188   7.605  14.316  1.1912  0.4140 -1.1404
   20DOPE  H15S 2523   5.212   7.456  14.239 -3.1443  2.2787 -0.3910
   20DOPE  C216 2524   5.402   7.547  14.312 -0.7126 -0.3884  0.7771
   20DOPE  H16R 2525   5.421   7.620  14.394 -1.4952  0.3373  0.3214
   20DOPE  H16S 2526   5.418   7.604  14.218  0.5489 -1.0799  0.5549
   20DOPE  C217 2527   5.505   7.436  14.318 -0.2713  0.8959  0.2869
   20DOPE  H17R 2528   5.518   7.400  14.422  0.8148 -0.9975 -0.4562
   20DOPE  H17S 2529   5.599   7.488  14.293 -1.4670  2.8276 -0.4205
   20DOPE  C218 2530   5.489   7.312  14.230  0.0592  0.6566 -0.0614
   20DOPE  H18R 2531   5.391   7.265  14.255 -1.7994  2.0263 -3.9696
   20DOPE  H18S 2532   5.578   7.245  14.240 -1.4579 -1.3871  0.3905
   20DOPE  H18T 2533   5.493   7.335  14.122  0.0738 -0.0115 -0.2094
   20DOPE   C33 2534   5.864   7.408  15.748 -0.1485 -0.2934 -0.1850
   20DOPE   H3X 2535   5.914   7.316  15.785 -1.6872 -1.2064 -0.3028
   20DOPE   H3Y 2536   5.877   7.486  15.826  1.8831 -1.5610  0.8419
   20DOPE   C34 2537   5.938   7.454  15.620  0.0094  0.1831  0.4703
   20DOPE   H4X 2538   5.941   7.375  15.542  3.7038 -1.3389  1.9332
   20DOPE   H4Y 2539   5.874   7.539  15.587  0.2455  1.2259  2.5553
   20DOPE   C35 2540   6.086   7.507  15.641  0.5212  0.0482 -0.6847
   20DOPE   H5X 2541   6.104   7.521  15.750 -0.5086 -0.3927 -0.4529
   20DOPE   H5Y 2542   6.092   7.608  15.594  1.5307  0.2379 -0.1841
   20DOPE   C36 2543   6.182   7.396  15.584  0.0814  0.6588 -0.4948
   20DOPE   H6X 2544   6.133   7.301  15.614  0.9966 -0.0989 -1.3510
   20DOPE   H6Y 2545   6.274   7.405  15.645 -1.6000  1.3367  2.1148
   20DOPE   C37 2546   6.218   7.402  15.439  0.1798 -0.3320  0.4995
   20DOPE   H7X 2547   6.126   7.380  15.380 -0.3279 -2.2841  1.9102
   20DOPE   H7Y 2548   6.268   7.499  15.421 -0.4188  0.6583  3.7088
   20DOPE   C38 2549   6.309   7.278  15.403  0.3292 -0.2678 -0.5571
   20DOPE   H8X 2550   6.251   7.186  15.426 -1.6704  0.8815 -0.7479
   20DOPE   H8Y 2551   6.390   7.282  15.479 -0.3324  0.6272  0.1202
   20DOPE   C39 2552   6.374   7.281  15.268 -0.1228 -0.4140  1.0231
   20DOPE   H9X 2553   6.304   7.287  15.183  2.5141 -0.1472 -1.3074
   20DOPE  C310 2554   6.503   7.302  15.233  0.2866  0.2096  0.4208
   20DOPE  H10X 2555   6.533   7.284  15.129  0.2327  1.8336  0.0993
   20DOPE  C311 2556   6.618   7.303  15.327  0.2627 -0.2053  0.4651
   20DOPE  H11X 2557   6.601   7.362  15.419  0.9465  1.3870 -0.3966
   20DOPE  H11Y 2558   6.632   7.201  15.371  0.5325  0.7164  2.6546
   20DOPE  C312 2559   6.734   7.365  15.257 -0.0821  0.7684  0.1630
   20DOPE  H12X 2560   6.759   7.326  15.156  1.1649  0.4402  0.5697
   20DOPE  H12Y 2561   6.824   7.341  15.318 -0.1806 -0.8211 -0.2542
   20DOPE  C313 2562   6.729   7.513  15.245  0.3107 -0.1129 -0.2570
   20DOPE  H13X 2563   6.659   7.534  15.161  0.4787 -1.3670 -0.7343
   20DOPE  H13Y 2564   6.687   7.565  15.333  1.2759  0.6624 -0.2350
   20DOPE  C314 2565   6.868   7.569  15.225  0.0357 -0.6014  0.2673
   20DOPE  H14X 2566   6.849   7.668  15.177  1.9562 -0.5658 -0.4827
   20DOPE  H14Y 2567   6.923   7.506  15.152  0.8036  0.3882 -0.0295
   20DOPE  C315 2568   6.952   7.580  15.352  1.0158 -0.1500 -0.8012
   20DOPE  H15X 2569   6.975   7.476  15.384  1.6325 -0.2093 -1.3950
   20DOPE  H15Y 2570   6.893   7.625  15.434 -0.6236 -0.0256 -1.9904
   20DOPE  C316 2571   7.088   7.654  15.327  0.3463  0.4220  0.3758
   20DOPE  H16X 2572   7.067   7.747  15.269  0.8691  0.4495  0.2288
   20DOPE  H16Y 2573   7.167   7.595  15.277  0.1244  0.7660 -0.4116
   20DOPE  C317 2574   7.151   7.700  15.467  0.2904  0.6542  0.9747
   20DOPE  H17X 2575   7.083   7.779  15.505 -0.8331  0.9287 -1.4256
   20DOPE  H17Y 2576   7.146   7.629  15.553  1.0885 -1.1962 -0.4343
   20DOPE  C318 2577   7.299   7.746  15.458  0.1648 -0.7584 -0.3742
   20DOPE  H18X 2578   7.319   7.808  15.547 -0.6358  0.7283 -1.1943
   20DOPE  H18Y 2579   7.370   7.662  15.444  0.4699 -0.1834 -2.5876
   20DOPE  H18Z 2580   7.306   7.824  15.379  0.1130  1.5882  1.8303
   21DOPE     N 2581   2.357   1.082  16.188 -0.0703  0.1145  0.5073
   21DOPE   HN1 2582   2.276   1.050  16.244 -0.4056 -0.7404 -0.4298
   21DOPE   HN2 2583   2.440   1.025  16.215 -0.8210 -1.1314  0.2940
   21DOPE   HN3 2584   2.384   1.177  16.220  0.8837 -0.4625  1.4594
   21DOPE   C12 2585   2.342   1.090  16.041  0.0318  0.1866 -0.1777
   21DOPE  H12A 2586   2.420   1.159  16.003 -1.7501  1.0469 -2.5235
   21DOPE  H12B 2587   2.247   1.135  16.006  1.4222  1.7838 -2.0992
   21DOPE   C11 2588   2.377   0.949  15.986  0.4469 -0.4321  0.8575
   21DOPE  H11A 2589   2.356   0.938  15.878  2.1987 -1.7602  0.5959
   21DOPE  H11B 2590   2.311   0.873  16.033 -1.6368 -1.0726 -2.7989
   21DOPE     P 2591   2.592   0.797  15.977 -0.1855 -0.1711 -0.1312
   21DOPE   O13 2592   2.656   0.772  16.113 -0.3582 -0.6359  0.0254
   21DOPE   O14 2593   2.685   0.794  15.867 -0.0793  0.3235  0.3260
   21DOPE   O11 2594   2.480   0.690  15.962  0.1030 -0.4720  0.2439
   21DOPE   O12 2595   2.517   0.936  16.002  0.1465  0.1738 -0.3577
   21DOPE    C1 2596   2.409   0.670  15.837 -0.2092  0.1238 -0.3013
   21DOPE    HA 2597   2.441   0.737  15.754  0.3222 -0.0028 -0.2056
   21DOPE    HB 2598   2.300   0.680  15.855  0.0688  1.5876  0.8350
   21DOPE    C2 2599   2.447   0.530  15.781 -0.5140 -0.5493 -0.1557
   21DOPE    HS 2600   2.438   0.464  15.870  2.3299  1.5925  1.9177
   21DOPE   O21 2601   2.580   0.530  15.731 -0.1321 -0.4305  0.3980
   21DOPE   C21 2602   2.679   0.479  15.803 -0.2067 -0.6842  0.3680
   21DOPE   O22 2603   2.675   0.425  15.913  0.6052  0.2103 -0.1553
   21DOPE   C22 2604   2.804   0.490  15.713 -0.0485 -0.7391  0.4657
   21DOPE   H2R 2605   2.842   0.594  15.725 -0.5698 -0.4659 -0.1901
   21DOPE   H2S 2606   2.778   0.475  15.606  0.8485  0.7327  0.0103
   21DOPE    C3 2607   2.337   0.481  15.678  0.0547 -0.5190 -0.8978
   21DOPE    HX 2608   2.339   0.543  15.586  0.3199 -0.7266 -1.0351
   21DOPE    HY 2609   2.237   0.503  15.720 -0.4562  0.3330 -2.4702
   21DOPE   O31 2610   2.347   0.333  15.658 -0.1441 -1.0309  0.4933
   21DOPE   C31 2611   2.400   0.285  15.550  0.7841  0.5498 -0.4345
   21DOPE   O32 2612   2.449   0.358  15.461 -0.2310 -0.5031  0.6910
   21DOPE   C32 2613   2.379   0.139  15.543 -0.2690  0.9180 -0.1588
   21DOPE   H2X 2614   2.400   0.095  15.643 -2.2545 -0.3275 -0.2442
   21DOPE   H2Y 2615   2.273   0.118  15.518 -0.4618  0.2183  1.1887
   21DOPE   C23 2616   2.916   0.386  15.744  0.6215  0.2365  0.6548
   21DOPE   H3R 2617   2.938   0.389  15.853 -0.5957  1.1505  0.8932
   21DOPE   H3S 2618   2.999   0.444  15.698 -1.7407  1.0783 -2.9512
   21DOPE   C24 2619   2.888   0.250  15.687  0.3539 -0.2233 -0.7130
   21DOPE   H4R 2620   2.873   0.262  15.578 -1.2907 -2.2191 -0.7716
   21DOPE   H4S 2621   2.792   0.214  15.730  0.2378  1.2151  0.3429
   21DOPE   C25 2622   2.998   0.144  15.702  0.3166 -0.5014  0.1584
   21DOPE   H5R 2623   3.047   0.146  15.802  0.6933  1.5114 -0.0254
   21DOPE   H5S 2624   3.065   0.174  15.619 -1.2156  1.0510 -0.5782
   21DOPE   C26 2625   2.948   0.003  15.665  0.2726  0.4426  0.2234
   21DOPE   H6R 2626   2.863  -0.027  15.729  1.6945  0.3597  2.1732
   21DOPE   H6S 2627   3.025  -0.071  15.697 -0.3705 -0.1782  0.3496
   21DOPE   C27 2628   2.924  -0.033  15.513  1.1487  0.2646 -0.1084
   21DOPE   H7R 2629   3.014  -0.004  15.456  1.1078 -0.6041 -0.6410
   21DOPE   H7S 2630   2.833   0.020  15.476  1.7786  2.8051  1.7342
   21DOPE   C28 2631   2.898  -0.190  15.492  0.2942  0.1258  0.3134
   21DOPE   H8R 2632   2.990  -0.246  15.520  0.2253 -0.8875 -1.3451
   21DOPE   H8S 2633   2.894  -0.193  15.381 -2.4803 -1.4567  0.3831
   21DOPE   C29 2634   2.781  -0.236  15.574 -0.1639  0.7412  0.5583
   21DOPE   H9R 2635   2.816  -0.235  15.678 -0.6908  0.1740  0.7474
   21DOPE  C210 2636   2.665  -0.288  15.533  0.3693 -0.8472 -0.4808
   21DOPE  H10R 2637   2.595  -0.331  15.605 -0.1598  0.2702 -0.3057
   21DOPE  C211 2638   2.604  -0.295  15.395 -0.1581  0.2701  0.1503
   21DOPE  H11R 2639   2.667  -0.239  15.323  1.0626 -1.8783 -0.5509
   21DOPE  H11S 2640   2.502  -0.251  15.396  0.6637  2.5120  3.4112
   21DOPE  C212 2641   2.600  -0.435  15.338  0.3496  0.8863  0.2424
   21DOPE  H12R 2642   2.551  -0.502  15.412  1.0662 -0.7403 -0.6757
   21DOPE  H12S 2643   2.707  -0.468  15.334  0.1199  0.2031 -1.3290
   21DOPE  C213 2644   2.549  -0.447  15.193 -0.3063  0.0589  0.0950
   21DOPE  H13R 2645   2.606  -0.380  15.126 -0.2385  0.6420  0.7266
   21DOPE  H13S 2646   2.445  -0.408  15.190 -0.4094 -0.2841 -1.7902
   21DOPE  C214 2647   2.555  -0.595  15.147  1.1732 -0.4133 -0.3524
   21DOPE  H14R 2648   2.467  -0.638  15.200  0.8270 -0.0861 -0.6588
   21DOPE  H14S 2649   2.653  -0.638  15.176  0.9481  0.2151  1.5103
   21DOPE  C215 2650   2.518  -0.627  15.002  0.3637 -0.4067 -0.0548
   21DOPE  H15R 2651   2.595  -0.579  14.938  0.1499  0.7626  0.5341
   21DOPE  H15S 2652   2.418  -0.590  14.971  0.6842 -0.6179 -1.4053
   21DOPE  C216 2653   2.506  -0.776  14.981  0.9661 -0.0845  0.3506
   21DOPE  H16R 2654   2.433  -0.818  15.052 -0.9681  1.8958 -0.3514
   21DOPE  H16S 2655   2.607  -0.816  15.005  1.1428  0.3513  0.3491
   21DOPE  C217 2656   2.467  -0.807  14.836  0.4438  0.5138 -0.3911
   21DOPE  H17R 2657   2.371  -0.760  14.808  0.2786  0.3668 -0.0770
   21DOPE  H17S 2658   2.448  -0.916  14.820 -0.6610  0.7622 -0.7918
   21DOPE  C218 2659   2.570  -0.777  14.724 -0.5708  0.4876 -0.8968
   21DOPE  H18R 2660   2.532  -0.810  14.625 -0.1077 -1.9196 -0.3381
   21DOPE  H18S 2661   2.664  -0.833  14.743 -1.8631 -0.8893  2.0993
   21DOPE  H18T 2662   2.594  -0.669  14.709 -2.3772  0.8761 -1.2152
   21DOPE   C33 2663   2.459   0.063  15.436  0.6187 -0.0714  0.0787
   21DOPE   H3X 2664   2.442  -0.042  15.465 -0.3812  0.2030  0.5356
   21DOPE   H3Y 2665   2.570   0.075  15.436  0.6919 -0.3138 -2.2351
   21DOPE   C34 2666   2.407   0.100  15.299 -0.4548  0.4769 -0.2879
   21DOPE   H4X 2667   2.295   0.100  15.301 -0.4496  0.6196  0.8487
   21DOPE   H4Y 2668   2.443   0.202  15.273  0.7527  0.2173  0.3178
   21DOPE   C35 2669   2.448  -0.006  15.188  0.2298  0.6189 -0.1883
   21DOPE   H5X 2670   2.441  -0.105  15.238  1.6638  0.5297 -0.1226
   21DOPE   H5Y 2671   2.555   0.004  15.159 -0.0712  1.7355 -0.9641
   21DOPE   C36 2672   2.378  -0.001  15.056 -0.8914  0.3276  0.4370
   21DOPE   H6X 2673   2.403   0.092  15.001  0.9307 -0.9802 -1.0704
   21DOPE   H6Y 2674   2.268   0.001  15.066 -1.0904  0.2518 -1.4924
   21DOPE   C37 2675   2.421  -0.121  14.957  0.1572 -0.0722  0.6456
   21DOPE   H7X 2676   2.531  -0.123  14.942  0.0313 -2.1836 -0.4097
   21DOPE   H7Y 2677   2.393  -0.222  14.995 -0.4496  0.3965  1.4847
   21DOPE   C38 2678   2.347  -0.113  14.821 -0.1313 -0.2914 -0.2130
   21DOPE   H8X 2679   2.411  -0.175  14.755  1.3658  1.9307 -0.9906
   21DOPE   H8Y 2680   2.353  -0.011  14.778  3.3906 -0.5367 -0.6158
   21DOPE   C39 2681   2.206  -0.164  14.829  0.5849  0.1359  0.0751
   21DOPE   H9X 2682   2.149  -0.153  14.923 -0.4207  0.8788 -0.5887
   21DOPE  C310 2683   2.134  -0.228  14.736 -0.4424 -0.8153 -0.0231
   21DOPE  H10X 2684   2.033  -0.269  14.753 -0.9912 -0.7786 -2.6352
   21DOPE  C311 2685   2.195  -0.254  14.597 -0.2345  0.4774 -0.2103
   21DOPE  H11X 2686   2.122  -0.212  14.525 -0.5162 -0.1225 -0.2733
   21DOPE  H11Y 2687   2.288  -0.195  14.581 -1.7156  2.7500 -0.9085
   21DOPE  C312 2688   2.233  -0.409  14.567 -0.4081 -0.4889  0.4165
   21DOPE  H12X 2689   2.308  -0.438  14.644  0.0073 -1.1845 -0.2247
   21DOPE  H12Y 2690   2.279  -0.416  14.466  0.1493  1.4932  0.4985
   21DOPE  C313 2691   2.112  -0.507  14.567 -0.3692  0.5783  0.5849
   21DOPE  H13X 2692   2.074  -0.506  14.672 -1.1692  0.8630  0.3021
   21DOPE  H13Y 2693   2.042  -0.457  14.497  1.9015  1.5002 -1.1292
   21DOPE  C314 2694   2.137  -0.658  14.535  0.1114 -0.8718  0.3652
   21DOPE  H14X 2695   2.230  -0.680  14.590  0.0529 -0.4765  0.6245
   21DOPE  H14Y 2696   2.159  -0.654  14.426  1.1388  1.4885  0.5954
   21DOPE  C315 2697   2.016  -0.738  14.567 -0.1251 -0.1459 -0.1691
   21DOPE  H15X 2698   1.928  -0.698  14.514  0.5943  2.2885  0.3599
   21DOPE  H15Y 2699   1.990  -0.722  14.674  1.1277  1.0744 -0.0216
   21DOPE  C316 2700   2.042  -0.884  14.545 -0.1475 -0.0853 -0.0709
   21DOPE  H16X 2701   2.116  -0.908  14.625 -0.8061 -0.0619  0.5600
   21DOPE  H16Y 2702   2.072  -0.907  14.441 -1.1635 -0.7066 -0.2455
   21DOPE  C317 2703   1.916  -0.968  14.577 -0.5589  0.2961  0.5959
   21DOPE  H17X 2704   1.954  -1.073  14.576 -2.2917 -0.3682 -1.0709
   21DOPE  H17Y 2705   1.880  -0.945  14.680 -0.1417 -0.5427  0.9418
   21DOPE  C318 2706   1.807  -0.956  14.468 -0.6734 -0.2617 -0.2059
   21DOPE  H18X 2707   1.780  -0.852  14.442  0.4923 -0.4715 -2.4751
   21DOPE  H18Y 2708   1.841  -1.005  14.375  1.5323 -0.4094  0.6150
   21DOPE  H18Z 2709   1.711  -1.011  14.478 -1.5402  0.9690 -1.3992
   22DOPE     N 2710   7.510   4.531  15.916  0.6733 -0.4916 -0.1930
   22DOPE   HN1 2711   7.488   4.462  15.842  1.6524 -2.6057  1.3819
   22DOPE   HN2 2712   7.586   4.484  15.969  0.3877 -0.8512 -0.0985
   22DOPE   HN3 2713   7.430   4.545  15.981  0.2309 -0.0099 -0.8372
   22DOPE   C12 2714   7.551   4.661  15.846 -0.0643 -0.4478  0.2936
   22DOPE  H12A 2715   7.488   4.668  15.756  0.1704 -2.9725 -0.1265
   22DOPE  H12B 2716   7.657   4.660  15.813  0.1795  0.4212  0.9793
   22DOPE   C11 2717   7.530   4.786  15.936  0.1985  0.0967  0.8555
   22DOPE  H11A 2718   7.421   4.800  15.951 -0.2725 -1.7611 -0.3859
   22DOPE  H11B 2719   7.579   4.874  15.889 -0.7452  0.3038  0.2215
   22DOPE     P 2720   7.601   4.889  16.162 -0.3459 -0.0171 -0.2603
   22DOPE   O13 2721   7.562   4.838  16.299 -0.2614 -0.2671 -0.0086
   22DOPE   O14 2722   7.515   5.001  16.116 -0.2928  0.0294 -0.0193
   22DOPE   O11 2723   7.758   4.930  16.170 -0.1966  0.6012  0.1325
   22DOPE   O12 2724   7.597   4.764  16.059 -0.3097  0.2531 -0.2819
   22DOPE    C1 2725   7.847   4.870  16.081 -0.2715 -0.4066  0.1257
   22DOPE    HA 2726   7.806   4.843  15.982  0.2590 -0.6612 -0.0231
   22DOPE    HB 2727   7.891   4.778  16.125 -1.2946 -0.3144  1.4399
   22DOPE    C2 2728   7.979   4.962  16.055  0.4327 -0.4120  0.8189
   22DOPE    HS 2729   8.021   4.976  16.157  1.1091  2.3381  0.2594
   22DOPE   O21 2730   7.934   5.081  15.988 -0.3495 -0.2796 -0.3084
   22DOPE   C21 2731   8.035   5.171  15.986  0.9225  0.4549 -0.2808
   22DOPE   O22 2732   8.147   5.161  16.031 -0.0064  0.3708 -0.0922
   22DOPE   C22 2733   7.987   5.293  15.908 -0.0811 -0.3115  0.2945
   22DOPE   H2R 2734   8.040   5.375  15.961  0.2345 -0.7630  0.6846
   22DOPE   H2S 2735   7.878   5.310  15.916 -0.1918  0.1714 -1.6873
   22DOPE    C3 2736   8.085   4.889  15.966  0.5712  0.6298  0.1145
   22DOPE    HX 2737   8.113   4.802  16.030  2.2268  1.2632  0.3106
   22DOPE    HY 2738   8.181   4.946  15.958  2.0235 -1.5699  0.9553
   22DOPE   O31 2739   8.038   4.858  15.835 -0.5480 -0.0579  0.4318
   22DOPE   C31 2740   8.052   4.736  15.789  0.7789  0.2835 -0.2470
   22DOPE   O32 2741   8.124   4.647  15.841  0.0569 -0.6690 -0.8537
   22DOPE   C32 2742   7.947   4.707  15.679 -0.1092 -0.3776  0.0457
   22DOPE   H2X 2743   7.971   4.607  15.637  2.1382  0.5151 -0.9891
   22DOPE   H2Y 2744   7.846   4.719  15.723 -0.2196  0.1933 -0.3523
   22DOPE   C23 2745   8.019   5.295  15.758 -0.3105  0.1171  0.6352
   22DOPE   H3R 2746   7.964   5.385  15.723 -0.4566 -0.5845 -1.0360
   22DOPE   H3S 2747   7.985   5.210  15.695 -3.1028 -0.0255  2.2073
   22DOPE   C24 2748   8.170   5.321  15.736 -0.4281  0.1707 -0.2041
   22DOPE   H4R 2749   8.238   5.254  15.792  0.4890  2.2559  1.3096
   22DOPE   H4S 2750   8.193   5.426  15.762 -0.5291  1.1980 -3.6656
   22DOPE   C25 2751   8.197   5.313  15.581 -0.3562  0.1736 -0.1917
   22DOPE   H5R 2752   8.172   5.209  15.551  0.7901 -0.3704  0.6317
   22DOPE   H5S 2753   8.308   5.321  15.581 -0.2011 -1.5952 -0.0021
   22DOPE   C26 2754   8.133   5.426  15.499  0.2988  0.2189 -0.1443
   22DOPE   H6R 2755   8.126   5.525  15.549 -1.0071 -0.5289  1.2362
   22DOPE   H6S 2756   8.031   5.381  15.493  0.2769  0.3976 -1.6978
   22DOPE   C27 2757   8.182   5.453  15.362  0.6333 -0.4298 -0.3021
   22DOPE   H7R 2758   8.289   5.482  15.358  0.3220  1.0308  1.0577
   22DOPE   H7S 2759   8.129   5.544  15.329  1.8472  1.1431  1.8508
   22DOPE   C28 2760   8.154   5.336  15.268 -0.1674 -0.2827  0.3387
   22DOPE   H8R 2761   8.189   5.246  15.324  0.3011  1.6350  3.3559
   22DOPE   H8S 2762   8.208   5.353  15.173 -0.8886 -0.2434 -0.0718
   22DOPE   C29 2763   8.007   5.322  15.243 -0.3957  0.0816  0.0583
   22DOPE   H9R 2764   7.941   5.359  15.323 -1.0386  0.1176 -0.4823
   22DOPE  C210 2765   7.957   5.258  15.139  0.3463  0.0313  0.8231
   22DOPE  H10R 2766   7.848   5.248  15.126  0.4922 -1.4220  0.6155
   22DOPE  C211 2767   8.040   5.199  15.034 -0.0331 -0.1141 -1.1663
   22DOPE  H11R 2768   8.031   5.088  15.028 -1.0500  0.0048 -2.1204
   22DOPE  H11S 2769   8.150   5.204  15.051 -0.2118 -1.7710  0.9744
   22DOPE  C212 2770   8.009   5.283  14.903 -0.3527  0.1703 -0.3918
   22DOPE  H12R 2771   8.089   5.263  14.828  0.0246  1.5998 -0.4031
   22DOPE  H12S 2772   8.038   5.387  14.926 -1.6536  0.2070  1.2486
   22DOPE  C213 2773   7.867   5.283  14.854  0.0022 -0.3340  0.5078
   22DOPE  H13R 2774   7.809   5.322  14.940  0.2451 -1.8916  1.4240
   22DOPE  H13S 2775   7.833   5.179  14.834 -3.1001  0.1776  2.4932
   22DOPE  C214 2776   7.864   5.376  14.727  0.0917 -0.6874 -0.4152
   22DOPE  H14R 2777   7.928   5.346  14.641 -0.3429  1.4001 -1.5300
   22DOPE  H14S 2778   7.907   5.472  14.761  1.6987 -0.9349 -1.6224
   22DOPE  C215 2779   7.715   5.412  14.695  0.0620 -0.6200 -0.1535
   22DOPE  H15R 2780   7.708   5.471  14.601 -1.0969 -0.0167  0.2833
   22DOPE  H15S 2781   7.675   5.472  14.780  0.8518 -1.8594  1.1340
   22DOPE  C216 2782   7.639   5.281  14.677 -0.6015  0.4166 -0.2082
   22DOPE  H16R 2783   7.622   5.238  14.778 -1.7838 -2.2289 -1.4428
   22DOPE  H16S 2784   7.712   5.218  14.623  0.7112  0.8816  0.9787
   22DOPE  C217 2785   7.508   5.299  14.596 -0.4187 -0.0928  0.4062
   22DOPE  H17R 2786   7.516   5.358  14.502 -1.9938  0.5714  0.6443
   22DOPE  H17S 2787   7.422   5.349  14.645 -1.4599  0.8531 -2.1990
   22DOPE  C218 2788   7.454   5.159  14.564 -0.0036  0.3499  0.6164
   22DOPE  H18R 2789   7.444   5.107  14.661 -0.2606  1.2251  1.0719
   22DOPE  H18S 2790   7.518   5.101  14.494  0.5721  3.0689 -1.2865
   22DOPE  H18T 2791   7.356   5.163  14.512  0.5260 -4.1759 -1.1665
   22DOPE   C33 2792   7.955   4.789  15.548 -0.0805 -0.8220  0.9242
   22DOPE   H3X 2793   8.033   4.763  15.474  0.1629  0.2915  0.7708
   22DOPE   H3Y 2794   7.990   4.893  15.565  1.3577 -0.8915 -1.1946
   22DOPE   C34 2795   7.814   4.802  15.485 -0.1391  0.4716  0.3697
   22DOPE   H4X 2796   7.782   4.698  15.462  0.1070  0.8542 -1.9168
   22DOPE   H4Y 2797   7.744   4.833  15.566 -1.1510 -1.6598  0.3954
   22DOPE   C35 2798   7.809   4.903  15.381  0.3835 -0.2443  0.2635
   22DOPE   H5X 2799   7.884   4.985  15.387 -0.1198  0.3490 -1.1320
   22DOPE   H5Y 2800   7.713   4.957  15.387  0.1930 -0.5050 -0.3131
   22DOPE   C36 2801   7.805   4.841  15.237 -0.0988  0.9215  0.1584
   22DOPE   H6X 2802   7.795   4.923  15.163 -2.0798  0.7372  0.1757
   22DOPE   H6Y 2803   7.702   4.799  15.241  0.8448 -1.7512 -1.5555
   22DOPE   C37 2804   7.910   4.727  15.208  0.2120  0.6662  0.5272
   22DOPE   H7X 2805   8.010   4.776  15.209 -0.9880  3.2640 -0.1160
   22DOPE   H7Y 2806   7.910   4.649  15.288 -0.7253 -0.5107 -0.5787
   22DOPE   C38 2807   7.876   4.670  15.071  0.5552  0.2451 -0.2944
   22DOPE   H8X 2808   7.844   4.747  14.998  2.1883  0.2486 -1.0344
   22DOPE   H8Y 2809   7.789   4.602  15.082  0.3426  0.2621 -1.6597
   22DOPE   C39 2810   7.991   4.582  15.023  0.2159 -0.1123 -0.3751
   22DOPE   H9X 2811   8.036   4.506  15.089  1.2414 -0.5317 -1.5226
   22DOPE  C310 2812   8.053   4.605  14.906  0.2870  0.9281  0.1484
   22DOPE  H10X 2813   8.137   4.536  14.884 -0.4241  0.5784 -1.5730
   22DOPE  C311 2814   8.033   4.709  14.798  0.2860 -0.2996 -0.0775
   22DOPE  H11X 2815   8.002   4.665  14.701 -1.5353  0.0860  0.2988
   22DOPE  H11Y 2816   7.948   4.774  14.826  0.9235 -0.7970  3.5791
   22DOPE  C312 2817   8.151   4.813  14.771  0.2274 -0.2673  0.1200
   22DOPE  H12X 2818   8.187   4.859  14.866 -0.3998  0.6387 -0.0675
   22DOPE  H12Y 2819   8.117   4.902  14.714 -0.0033 -0.2572  0.2731
   22DOPE  C313 2820   8.269   4.746  14.694  0.0484 -0.9271 -0.6276
   22DOPE  H13X 2821   8.306   4.653  14.742 -1.0862 -1.1371 -0.1262
   22DOPE  H13Y 2822   8.217   4.724  14.597  0.3011 -0.8841 -0.7733
   22DOPE  C314 2823   8.391   4.835  14.673 -0.5721  0.0838  0.1981
   22DOPE  H14X 2824   8.445   4.845  14.770 -1.3505 -1.5835  0.8385
   22DOPE  H14Y 2825   8.362   4.931  14.624 -0.5780 -0.8466 -1.7021
   22DOPE  C315 2826   8.478   4.768  14.575 -0.2499 -0.3122  0.2415
   22DOPE  H15X 2827   8.430   4.752  14.476 -0.7331 -1.4832  0.6529
   22DOPE  H15Y 2828   8.488   4.660  14.597  2.0632 -0.6812 -2.1330
   22DOPE  C316 2829   8.610   4.842  14.549 -0.5522 -0.0374 -0.2793
   22DOPE  H16X 2830   8.650   4.885  14.643  0.4982  1.7752 -1.4891
   22DOPE  H16Y 2831   8.601   4.939  14.497  0.7034  2.1250  3.2148
   22DOPE  C317 2832   8.713   4.749  14.479  0.5496 -0.1458 -0.2414
   22DOPE  H17X 2833   8.810   4.803  14.477  1.7010 -2.1103 -1.3953
   22DOPE  H17Y 2834   8.724   4.651  14.531 -0.0849 -1.4110 -2.3453
   22DOPE  C318 2835   8.683   4.727  14.330  0.4950  0.3676 -0.2959
   22DOPE  H18X 2836   8.758   4.662  14.281  0.5328  0.2479 -0.0785
   22DOPE  H18Y 2837   8.586   4.674  14.324  0.6628  0.1959 -2.3010
   22DOPE  H18Z 2838   8.671   4.820  14.270  0.8186  0.8596  0.3968
   23DOPE     N 2839   4.123   0.689  16.277 -0.3668 -0.1678 -0.5329
   23DOPE   HN1 2840   4.125   0.585  16.280  1.5619 -0.1459  0.3130
   23DOPE   HN2 2841   4.025   0.724  16.268 -0.0925  0.3900 -1.4476
   23DOPE   HN3 2842   4.192   0.715  16.205 -1.0889 -0.4109 -1.3267
   23DOPE   C12 2843   4.188   0.740  16.407  0.1491 -0.7490  0.0211
   23DOPE  H12A 2844   4.133   0.691  16.491 -0.9220  1.2602  0.5481
   23DOPE  H12B 2845   4.178   0.850  16.398 -0.8331 -0.7933  0.4044
   23DOPE   C11 2846   4.332   0.705  16.394  0.3806  0.3734 -0.4985
   23DOPE  H11A 2847   4.344   0.596  16.376  1.4025  0.3167  0.4054
   23DOPE  H11B 2848   4.381   0.716  16.494 -2.0302  2.3778  0.5770
   23DOPE     P 2849   4.509   0.882  16.324  0.4254 -0.2761  0.0908
   23DOPE   O13 2850   4.645   0.841  16.303 -0.2580 -0.1179  0.6252
   23DOPE   O14 2851   4.462   0.929  16.454  0.4588  0.2069  0.3905
   23DOPE   O11 2852   4.479   1.002  16.227 -0.0538 -0.7653  0.1561
   23DOPE   O12 2853   4.408   0.769  16.282 -0.2612  0.2889 -0.1195
   23DOPE    C1 2854   4.362   1.012  16.149 -0.5267 -0.0039  0.5058
   23DOPE    HA 2855   4.326   1.116  16.139 -2.6289 -0.7884 -0.7924
   23DOPE    HB 2856   4.267   0.964  16.181 -0.9408 -0.0545 -0.7468
   23DOPE    C2 2857   4.377   0.972  16.001 -0.1934 -0.4518  0.0645
   23DOPE    HS 2858   4.282   0.990  15.945  0.3172  1.4927 -0.2484
   23DOPE   O21 2859   4.429   0.838  15.985 -0.0699 -0.2489  0.9300
   23DOPE   C21 2860   4.340   0.741  16.006 -0.3879 -0.2313  0.4616
   23DOPE   O22 2861   4.228   0.759  16.046  0.7830 -0.3653  0.1888
   23DOPE   C22 2862   4.407   0.601  15.997 -0.2135 -0.5640  0.4010
   23DOPE   H2R 2863   4.410   0.567  16.103  2.4327 -2.6661 -0.2377
   23DOPE   H2S 2864   4.512   0.612  15.961 -0.3000  1.2125  0.5603
   23DOPE    C3 2865   4.481   1.059  15.918 -0.1374  0.6240  0.8410
   23DOPE    HX 2866   4.574   1.054  15.980 -0.1375  0.2744  0.8095
   23DOPE    HY 2867   4.449   1.165  15.927  1.1205  1.2123 -1.0309
   23DOPE   O31 2868   4.493   1.021  15.780 -0.0064 -0.2529  0.5009
   23DOPE   C31 2869   4.603   0.956  15.742 -0.4129  0.1366 -0.4424
   23DOPE   O32 2870   4.683   0.908  15.815  0.1281  0.7051 -0.3890
   23DOPE   C32 2871   4.607   0.921  15.598  0.0841  0.3124 -0.1979
   23DOPE   H2X 2872   4.521   0.977  15.555 -0.7606 -0.3294  0.6231
   23DOPE   H2Y 2873   4.706   0.952  15.559 -0.1491  1.1455 -0.1417
   23DOPE   C23 2874   4.331   0.499  15.908 -0.1628 -0.2617  0.1147
   23DOPE   H3R 2875   4.222   0.509  15.925 -0.3755 -3.0717  0.9653
   23DOPE   H3S 2876   4.366   0.396  15.930 -0.4859 -0.6772 -1.2327
   23DOPE   C24 2877   4.344   0.498  15.754 -0.1579 -0.3044  0.2973
   23DOPE   H4R 2878   4.447   0.515  15.717  0.0033 -3.1362 -0.8501
   23DOPE   H4S 2879   4.267   0.571  15.721 -0.4523  0.0780  1.7515
   23DOPE   C25 2880   4.308   0.358  15.688  0.1429  0.0600  0.1766
   23DOPE   H5R 2881   4.207   0.327  15.724 -0.0784 -0.4020 -0.8214
   23DOPE   H5S 2882   4.374   0.275  15.721  0.1894 -0.6154 -1.5504
   23DOPE   C26 2883   4.293   0.358  15.535  1.0827  0.3305  0.3850
   23DOPE   H6R 2884   4.393   0.378  15.489  0.6803  1.7147  0.0803
   23DOPE   H6S 2885   4.228   0.444  15.508  1.6707  0.5116 -0.5132
   23DOPE   C27 2886   4.224   0.238  15.463  0.6421 -0.5048 -0.5928
   23DOPE   H7R 2887   4.118   0.251  15.492  0.2785 -0.1266 -2.0251
   23DOPE   H7S 2888   4.256   0.137  15.495  0.6889 -0.2743  0.0954
   23DOPE   C28 2889   4.235   0.258  15.311 -0.7879 -0.3143 -0.6999
   23DOPE   H8R 2890   4.343   0.262  15.286 -0.3517  0.8588  1.1699
   23DOPE   H8S 2891   4.188   0.356  15.289  0.2843  0.1735 -0.9165
   23DOPE   C29 2892   4.178   0.136  15.239  0.3922  0.2704 -0.4177
   23DOPE   H9R 2893   4.175   0.050  15.308 -1.2256 -1.7391 -2.8138
   23DOPE  C210 2894   4.156   0.124  15.106 -0.2611 -0.4758 -0.6374
   23DOPE  H10R 2895   4.115   0.027  15.073  0.0613 -1.6146  2.0592
   23DOPE  C211 2896   4.167   0.235  15.005  0.3293  0.1331 -0.3101
   23DOPE  H11R 2897   4.186   0.333  15.054 -2.5530  0.4582  0.3410
   23DOPE  H11S 2898   4.066   0.254  14.962  0.9724  0.8531 -1.5656
   23DOPE  C212 2899   4.259   0.197  14.902 -0.4633  0.5668  1.0156
   23DOPE  H12R 2900   4.231   0.095  14.868  1.9176 -0.0089  0.5949
   23DOPE  H12S 2901   4.363   0.195  14.941 -0.4944 -1.3840  1.1339
   23DOPE  C213 2902   4.267   0.291  14.776  0.1108  0.3335  0.1181
   23DOPE  H13R 2903   4.304   0.384  14.824  0.2827 -0.0151  0.6600
   23DOPE  H13S 2904   4.170   0.305  14.724  0.1994 -2.7125 -1.0369
   23DOPE  C214 2905   4.357   0.228  14.666 -0.2402  0.4606 -0.1160
   23DOPE  H14R 2906   4.356   0.117  14.661  0.5011  0.3643  1.3515
   23DOPE  H14S 2907   4.464   0.249  14.688 -0.7828  1.6093  1.6461
   23DOPE  C215 2908   4.322   0.293  14.532 -0.0365 -0.3461  0.9957
   23DOPE  H15R 2909   4.332   0.403  14.529 -0.5941 -0.3016 -1.8561
   23DOPE  H15S 2910   4.218   0.271  14.502 -0.1516  2.1178 -0.6644
   23DOPE  C216 2911   4.403   0.238  14.414  0.2758 -0.3776 -0.4204
   23DOPE  H16R 2912   4.405   0.129  14.394 -1.7105 -0.6864  0.8517
   23DOPE  H16S 2913   4.505   0.274  14.441 -0.4659  0.5219  1.3706
   23DOPE  C217 2914   4.353   0.304  14.288 -0.0729 -0.4797  0.2011
   23DOPE  H17R 2915   4.428   0.297  14.206  0.1965  1.2991  0.2559
   23DOPE  H17S 2916   4.325   0.411  14.298  0.2013 -0.4865  1.1631
   23DOPE  C218 2917   4.235   0.231  14.226 -0.0555  0.9953 -0.1837
   23DOPE  H18R 2918   4.137   0.267  14.262 -1.0563 -1.1614 -0.6308
   23DOPE  H18S 2919   4.246   0.122  14.244  1.6817  1.2606  0.5545
   23DOPE  H18T 2920   4.241   0.236  14.115 -0.2735 -0.1409 -0.2543
   23DOPE   C33 2921   4.582   0.772  15.567 -1.1721 -0.2900  0.5506
   23DOPE   H3X 2922   4.497   0.719  15.616  1.0353 -2.2256  2.5213
   23DOPE   H3Y 2923   4.676   0.721  15.595 -0.1774 -0.0222 -2.0588
   23DOPE   C34 2924   4.574   0.752  15.415  0.9659 -0.3597 -0.2750
   23DOPE   H4X 2925   4.476   0.777  15.369  1.7140  0.3329 -1.5562
   23DOPE   H4Y 2926   4.649   0.819  15.366 -0.3194  1.4946  0.1587
   23DOPE   C35 2927   4.604   0.610  15.386 -0.3718  0.0226 -1.2578
   23DOPE   H5X 2928   4.553   0.540  15.455  0.5919  1.1484  0.6825
   23DOPE   H5Y 2929   4.711   0.602  15.414 -0.4649  2.1167 -0.0972
   23DOPE   C36 2930   4.602   0.590  15.235  0.0071  0.3487  0.5649
   23DOPE   H6X 2931   4.651   0.678  15.188  0.4921 -0.4914 -0.5575
   23DOPE   H6Y 2932   4.497   0.591  15.200  0.2750  0.7604 -0.2843
   23DOPE   C37 2933   4.660   0.454  15.188  0.1429 -0.5681 -0.1128
   23DOPE   H7X 2934   4.767   0.439  15.211  0.7074  0.3625 -1.9476
   23DOPE   H7Y 2935   4.595   0.377  15.235 -1.3526  0.0646 -1.0421
   23DOPE   C38 2936   4.635   0.430  15.039  0.5495 -0.8789 -0.2651
   23DOPE   H8X 2937   4.528   0.453  15.019  0.1119 -3.5184 -1.3502
   23DOPE   H8Y 2938   4.638   0.322  15.015 -1.5709 -0.2879 -4.0303
   23DOPE   C39 2939   4.732   0.515  14.955  0.0467  0.5456  0.4075
   23DOPE   H9X 2940   4.725   0.623  14.972  0.7085  0.5262  0.8784
   23DOPE  C310 2941   4.818   0.469  14.859 -0.0959 -0.3468 -0.5440
   23DOPE  H10X 2942   4.879   0.549  14.813 -1.2680  1.5660  1.0632
   23DOPE  C311 2943   4.831   0.325  14.823  0.7090 -0.1988 -0.6034
   23DOPE  H11X 2944   4.886   0.264  14.898  1.0057  0.4325 -0.3026
   23DOPE  H11Y 2945   4.728   0.282  14.820 -0.3356  2.0712  0.3802
   23DOPE  C312 2946   4.884   0.306  14.681 -0.5181  0.0893 -0.2595
   23DOPE  H12X 2947   4.873   0.196  14.672  0.2660 -0.0628  0.4946
   23DOPE  H12Y 2948   4.990   0.340  14.674 -0.0653 -1.1218  0.4327
   23DOPE  C313 2949   4.808   0.379  14.570 -1.0359 -0.4083 -1.4154
   23DOPE  H13X 2950   4.700   0.384  14.591 -0.7126 -1.2877  0.6917
   23DOPE  H13Y 2951   4.847   0.483  14.564 -0.5489 -0.3358  1.5154
   23DOPE  C314 2952   4.816   0.311  14.430 -0.3974 -0.5473  0.0914
   23DOPE  H14X 2953   4.752   0.221  14.446  0.0958 -1.3345 -2.0452
   23DOPE  H14Y 2954   4.915   0.284  14.388  0.3473  2.8262 -0.6170
   23DOPE  C315 2955   4.738   0.385  14.317  0.0496 -0.0755  0.4739
   23DOPE  H15X 2956   4.643   0.415  14.366  0.7062  0.8739  1.1853
   23DOPE  H15Y 2957   4.724   0.315  14.231 -0.4554 -0.6289  0.9980
   23DOPE  C316 2958   4.800   0.521  14.274  0.0152  0.1094 -0.1308
   23DOPE  H16X 2959   4.894   0.499  14.219 -0.3468 -0.9351 -0.3471
   23DOPE  H16Y 2960   4.817   0.570  14.373 -2.1213 -0.0635  0.3636
   23DOPE  C317 2961   4.710   0.603  14.182  0.2028  0.0006  0.4371
   23DOPE  H17X 2962   4.634   0.631  14.259 -0.7302 -0.8956 -0.1365
   23DOPE  H17Y 2963   4.747   0.693  14.128 -1.4703  0.9247  0.7420
   23DOPE  C318 2964   4.626   0.524  14.085  0.1463 -0.5827 -0.0533
   23DOPE  H18X 2965   4.554   0.454  14.133 -1.3055  0.4385 -0.6620
   23DOPE  H18Y 2966   4.574   0.592  14.014  1.5652 -1.8450 -2.4409
   23DOPE  H18Z 2967   4.701   0.481  14.015  0.9616  1.0563 -0.2288
   24DOPE     N 2968   5.718   7.066  16.169  0.2589 -0.2342  0.0170
   24DOPE   HN1 2969   5.737   6.980  16.224 -0.7726  0.3626  1.3855
   24DOPE   HN2 2970   5.616   7.080  16.183  0.2590  2.6241 -1.9868
   24DOPE   HN3 2971   5.737   7.051  16.068  0.4797  0.4572 -0.0524
   24DOPE   C12 2972   5.792   7.185  16.221 -0.5511 -0.1981  0.4187
   24DOPE  H12A 2973   5.791   7.179  16.332 -1.4053  0.7812  0.4812
   24DOPE  H12B 2974   5.734   7.273  16.186  1.5477  1.5188  1.0395
   24DOPE   C11 2975   5.939   7.190  16.173 -0.3945 -0.0649 -0.8229
   24DOPE  H11A 2976   5.965   7.296  16.194  0.8674 -0.6640  0.8541
   24DOPE  H11B 2977   5.935   7.174  16.063 -2.6228 -0.1471 -0.7752
   24DOPE     P 2978   6.151   7.048  16.215 -0.1118  0.2238 -0.1243
   24DOPE   O13 2979   6.178   6.923  16.293 -0.4449 -0.4997 -0.2438
   24DOPE   O14 2980   6.243   7.162  16.226  0.2942  0.1939  0.1761
   24DOPE   O11 2981   6.145   7.014  16.065  0.0151 -0.6494  0.4951
   24DOPE   O12 2982   6.009   7.094  16.244 -0.2765  0.8579  0.3487
   24DOPE    C1 2983   6.062   6.916  16.014  0.5603 -0.4534  0.5604
   24DOPE    HA 2984   5.955   6.927  16.043 -0.4091 -2.0112 -2.0990
   24DOPE    HB 2985   6.086   6.814  16.051  0.5193 -0.8751 -0.5368
   24DOPE    C2 2986   6.053   6.906  15.856 -0.2189  0.2451  0.3260
   24DOPE    HS 2987   5.969   6.836  15.839  0.7512 -1.3954  1.9077
   24DOPE   O21 2988   6.185   6.851  15.815  0.4046  0.1761  0.0585
   24DOPE   C21 2989   6.182   6.807  15.692  0.1160  0.4994 -0.6707
   24DOPE   O22 2990   6.083   6.766  15.639  0.1665  0.7013 -0.4458
   24DOPE   C22 2991   6.321   6.790  15.635  0.2442  0.0027  0.1462
   24DOPE   H2R 2992   6.359   6.688  15.657 -2.4395 -0.6265  2.5927
   24DOPE   H2S 2993   6.384   6.861  15.693  0.4731 -1.6879  2.0886
   24DOPE    C3 2994   6.034   7.050  15.798 -0.2905  0.1420  0.0869
   24DOPE    HX 2995   6.124   7.104  15.834  0.5008 -1.8836  1.3194
   24DOPE    HY 2996   5.942   7.094  15.842  1.0823  0.4601  2.8644
   24DOPE   O31 2997   6.037   7.056  15.658 -0.5771  0.5052  0.3121
   24DOPE   C31 2998   5.919   7.029  15.597  0.2560  0.1901 -0.6710
   24DOPE   O32 2999   5.813   6.996  15.650  0.7750  0.2551  0.0991
   24DOPE   C32 3000   5.943   7.064  15.457 -0.0943 -0.1617  1.2516
   24DOPE   H2X 3001   6.015   7.150  15.454 -0.7644  0.3861  0.6396
   24DOPE   H2Y 3002   5.981   6.972  15.407  0.6516  1.6619 -1.8396
   24DOPE   C23 3003   6.317   6.821  15.485  0.4453  0.3342 -0.0983
   24DOPE   H3R 3004   6.287   6.928  15.481  3.7640  1.3848  0.1564
   24DOPE   H3S 3005   6.232   6.769  15.435  0.8583  1.4678 -2.0773
   24DOPE   C24 3006   6.443   6.795  15.407 -0.0857  0.3400  0.3095
   24DOPE   H4R 3007   6.458   6.685  15.396 -1.9403  0.0693  0.2012
   24DOPE   H4S 3008   6.534   6.829  15.460  1.7978 -2.4753 -0.8215
   24DOPE   C25 3009   6.457   6.865  15.263 -0.3784  0.0537 -0.8150
   24DOPE   H5R 3010   6.539   6.810  15.213 -0.4825 -2.0805  1.2015
   24DOPE   H5S 3011   6.483   6.973  15.276  0.5775 -0.4332  1.8684
   24DOPE   C26 3012   6.321   6.856  15.179 -0.4219  0.2902 -0.6670
   24DOPE   H6R 3013   6.339   6.911  15.084 -0.0342  0.2962 -0.5941
   24DOPE   H6S 3014   6.235   6.906  15.227 -0.1062 -0.3163  0.5789
   24DOPE   C27 3015   6.280   6.712  15.147  0.0893  0.4823 -0.2378
   24DOPE   H7R 3016   6.258   6.654  15.240 -0.7837  0.1740 -0.6278
   24DOPE   H7S 3017   6.366   6.665  15.095 -0.8986  0.9749 -2.4423
   24DOPE   C28 3018   6.157   6.700  15.052 -0.1282 -0.2108 -0.4899
   24DOPE   H8R 3019   6.150   6.597  15.010 -3.4907  0.6608 -2.4260
   24DOPE   H8S 3020   6.185   6.772  14.971 -2.5788  0.2768 -0.9696
   24DOPE   C29 3021   6.029   6.737  15.112  0.3798 -0.0339  0.6559
   24DOPE   H9R 3022   6.024   6.723  15.221  1.3542  0.7065  0.8080
   24DOPE  C210 3023   5.918   6.764  15.046 -0.1009  0.1130  0.1644
   24DOPE  H10R 3024   5.826   6.788  15.100 -0.8825 -1.3060 -0.4817
   24DOPE  C211 3025   5.911   6.778  14.897 -0.4521  0.1398 -0.5297
   24DOPE  H11R 3026   6.015   6.773  14.857  0.7430  1.2203  2.1819
   24DOPE  H11S 3027   5.864   6.877  14.879  2.2944  1.5885 -0.2810
   24DOPE  C212 3028   5.823   6.685  14.818  0.1840 -0.0079  0.1578
   24DOPE  H12R 3029   5.844   6.578  14.838  1.1692  0.2218  0.3693
   24DOPE  H12S 3030   5.828   6.708  14.710  2.6181 -1.5532 -0.1308
   24DOPE  C213 3031   5.674   6.695  14.873 -0.1508 -0.2681 -0.4356
   24DOPE  H13R 3032   5.621   6.791  14.857 -0.5624 -0.4863 -0.3884
   24DOPE  H13S 3033   5.676   6.691  14.984  0.7005 -1.3103 -0.4709
   24DOPE  C214 3034   5.576   6.590  14.825  0.4114 -0.2314  0.4093
   24DOPE  H14R 3035   5.480   6.604  14.880 -0.1216  1.4764 -0.8895
   24DOPE  H14S 3036   5.621   6.491  14.849 -1.1790 -1.7510 -2.3300
   24DOPE  C215 3037   5.561   6.589  14.675  0.0081 -0.0224 -0.2782
   24DOPE  H15R 3038   5.638   6.538  14.613  0.0036  1.2901 -1.4320
   24DOPE  H15S 3039   5.549   6.696  14.646  1.6582  0.6856  1.4393
   24DOPE  C216 3040   5.436   6.502  14.643  1.3785  0.2327 -0.4668
   24DOPE  H16R 3041   5.410   6.502  14.535 -0.1620 -2.2122 -0.1930
   24DOPE  H16S 3042   5.343   6.545  14.685  0.2037 -2.5150 -0.0483
   24DOPE  C217 3043   5.460   6.359  14.697 -0.0935 -0.2678  0.0703
   24DOPE  H17R 3044   5.476   6.366  14.807 -0.7832  1.3551  0.0926
   24DOPE  H17S 3045   5.541   6.301  14.648 -0.7822 -0.0968 -1.3185
   24DOPE  C218 3046   5.321   6.289  14.694 -0.7215  0.1122  0.0455
   24DOPE  H18R 3047   5.273   6.279  14.594  1.3445 -1.1966 -0.8908
   24DOPE  H18S 3048   5.259   6.343  14.768 -0.1288 -0.4769  0.9878
   24DOPE  H18T 3049   5.329   6.185  14.734 -2.0485  0.1724  0.5144
   24DOPE   C33 3050   5.816   7.099  15.377  0.3548 -0.9406  0.1789
   24DOPE   H3X 3051   5.796   7.207  15.394  0.6233 -0.9256  0.4249
   24DOPE   H3Y 3052   5.737   7.023  15.396 -0.0060 -0.0315  2.6878
   24DOPE   C34 3053   5.841   7.097  15.224  0.1504  0.2508 -0.1477
   24DOPE   H4X 3054   5.856   6.989  15.203  0.2150 -0.7053  3.9866
   24DOPE   H4Y 3055   5.746   7.123  15.173 -0.2279 -2.6470 -1.0639
   24DOPE   C35 3056   5.951   7.185  15.169  0.7691  0.4508 -1.2605
   24DOPE   H5X 3057   6.048   7.162  15.217  1.2461  1.2111 -1.8220
   24DOPE   H5Y 3058   5.923   7.292  15.181 -1.4180  0.0856 -2.4703
   24DOPE   C36 3059   5.986   7.149  15.022 -0.0925  0.3295 -0.1159
   24DOPE   H6X 3060   5.894   7.150  14.960 -0.8284 -4.3450  0.5265
   24DOPE   H6Y 3061   6.005   7.040  15.027 -2.8503 -0.2185 -0.0037
   24DOPE   C37 3062   6.112   7.220  14.963  0.0676  0.0802  0.3425
   24DOPE   H7X 3063   6.208   7.198  15.014 -0.1633 -0.3470  0.5998
   24DOPE   H7Y 3064   6.134   7.181  14.862  0.9895  0.0444  0.5537
   24DOPE   C38 3065   6.088   7.373  14.956 -0.3303  0.3708 -0.0149
   24DOPE   H8X 3066   6.097   7.413  15.059 -2.9376  0.6763  0.1588
   24DOPE   H8Y 3067   5.986   7.396  14.919 -0.7977 -1.4618  0.0573
   24DOPE   C39 3068   6.196   7.435  14.863  0.3907  0.1033 -0.5356
   24DOPE   H9X 3069   6.301   7.439  14.894 -0.1977 -2.0218  2.1596
   24DOPE  C310 3070   6.174   7.518  14.756 -0.0923 -0.0295 -0.0892
   24DOPE  H10X 3071   6.260   7.561  14.702 -0.2962 -0.2837 -0.6228
   24DOPE  C311 3072   6.041   7.567  14.710  0.5836 -0.1804  0.3109
   24DOPE  H11X 3073   5.963   7.592  14.785  1.9349  1.2263  1.3006
   24DOPE  H11Y 3074   6.070   7.668  14.674  1.0650 -0.0111  1.1526
   24DOPE  C312 3075   5.981   7.482  14.596 -0.1284  0.1756 -0.7089
   24DOPE  H12X 3076   5.876   7.510  14.575 -0.8602 -1.1982  0.9022
   24DOPE  H12Y 3077   5.978   7.375  14.623 -4.7045  0.0097 -1.1370
   24DOPE  C313 3078   6.051   7.502  14.464 -0.1199  0.6097 -0.2095
   24DOPE  H13X 3079   6.060   7.612  14.448  0.2897  0.3965 -1.6210
   24DOPE  H13Y 3080   6.158   7.473  14.476 -0.7673 -1.3715  1.1165
   24DOPE  C314 3081   5.994   7.439  14.338  0.7977  0.1157 -0.3035
   24DOPE  H14X 3082   6.045   7.479  14.247  1.8720  0.3113  0.3628
   24DOPE  H14Y 3083   5.885   7.451  14.324  0.3000 -3.5993 -0.4216
   24DOPE  C315 3084   6.020   7.285  14.338 -0.3619 -0.3514 -0.3200
   24DOPE  H15X 3085   5.968   7.247  14.428 -3.2275  0.8797 -1.3519
   24DOPE  H15Y 3086   6.129   7.289  14.360 -0.9885  1.0167  3.3797
   24DOPE  C316 3087   5.983   7.202  14.217 -0.2329  0.2702 -0.0423
   24DOPE  H16X 3088   6.036   7.247  14.130  0.2007 -1.7996 -0.9086
   24DOPE  H16Y 3089   5.872   7.195  14.210 -0.4115 -0.1656  2.4277
   24DOPE  C317 3090   6.054   7.061  14.215 -0.0877  0.2267 -0.3471
   24DOPE  H17X 3091   6.163   7.078  14.209  0.2127 -1.1097  0.7271
   24DOPE  H17Y 3092   6.037   7.005  14.310  0.9050  0.5962  0.0552
   24DOPE  C318 3093   6.002   6.966  14.103 -0.2456 -0.3339  0.3208
   24DOPE  H18X 3094   6.040   6.864  14.123 -1.3992 -0.9345 -0.4828
   24DOPE  H18Y 3095   5.892   6.975  14.112 -0.3637 -1.7234  0.3931
   24DOPE  H18Z 3096   6.040   6.998  14.003 -2.0403 -0.0444 -0.3017
   25DOPE     N 3097   7.410   5.755  16.113 -0.4762 -0.2471  0.4840
   25DOPE   HN1 3098   7.479   5.677  16.112 -0.3063 -0.1059  1.0831
   25DOPE   HN2 3099   7.325   5.729  16.167 -0.9661 -1.7785 -0.9423
   25DOPE   HN3 3100   7.381   5.787  16.018  3.4155  1.5203 -0.3409
   25DOPE   C12 3101   7.470   5.866  16.192 -0.1335 -0.2853 -0.0725
   25DOPE  H12A 3102   7.387   5.927  16.233  2.2740  2.9575  0.3798
   25DOPE  H12B 3103   7.518   5.939  16.123 -1.2684  0.3848 -0.1759
   25DOPE   C11 3104   7.550   5.802  16.313 -1.2489  0.1827  0.4478
   25DOPE  H11A 3105   7.483   5.744  16.380 -0.8214  2.4111  2.9881
   25DOPE  H11B 3106   7.584   5.888  16.375 -0.8155  0.2920  0.0705
   25DOPE     P 3107   7.786   5.808  16.204 -0.0655  0.2824  0.6414
   25DOPE   O13 3108   7.909   5.767  16.276 -0.0189  0.6385 -0.0496
   25DOPE   O14 3109   7.766   5.958  16.203 -0.3232 -0.1304 -0.7221
   25DOPE   O11 3110   7.799   5.755  16.057  0.3984  0.3052  0.5613
   25DOPE   O12 3111   7.667   5.726  16.265 -0.6809 -0.5597 -0.0877
   25DOPE    C1 3112   7.754   5.634  15.993  0.1164  0.7402 -0.5223
   25DOPE    HA 3113   7.653   5.604  16.028  0.6060  0.0653  0.3660
   25DOPE    HB 3114   7.817   5.544  16.010 -2.5188 -1.3637 -1.2941
   25DOPE    C2 3115   7.754   5.658  15.843 -0.6241  0.6024  0.1312
   25DOPE    HS 3116   7.671   5.729  15.822 -2.4382 -1.2307  0.7439
   25DOPE   O21 3117   7.728   5.535  15.775 -0.3867 -0.3590  0.1554
   25DOPE   C21 3118   7.599   5.493  15.773  0.2636 -0.5029 -0.1485
   25DOPE   O22 3119   7.506   5.564  15.810 -0.1140 -0.0380  0.0993
   25DOPE   C22 3120   7.588   5.351  15.712 -0.4340 -0.6762 -0.4114
   25DOPE   H2R 3121   7.478   5.338  15.724 -0.7888  1.0483 -1.5559
   25DOPE   H2S 3122   7.648   5.284  15.778  0.8039 -0.4404 -1.2819
   25DOPE    C3 3123   7.891   5.714  15.781  0.2419  0.7396 -0.4780
   25DOPE    HX 3124   7.960   5.628  15.797  0.0808  0.8705  1.0196
   25DOPE    HY 3125   7.938   5.800  15.833 -0.0022  1.4970 -1.4825
   25DOPE   O31 3126   7.885   5.735  15.643 -0.1048  0.0268 -0.0019
   25DOPE   C31 3127   7.834   5.860  15.608  0.4053 -0.8608 -0.3041
   25DOPE   O32 3128   7.813   5.949  15.692 -0.0470  0.8509 -0.4121
   25DOPE   C32 3129   7.811   5.869  15.462 -0.0883  0.3825 -0.3827
   25DOPE   H2X 3130   7.711   5.910  15.437 -0.7427 -1.4416 -0.8951
   25DOPE   H2Y 3131   7.890   5.938  15.423 -0.8962  1.5485 -0.0074
   25DOPE   C23 3132   7.622   5.346  15.563  0.0654 -0.1946 -0.0946
   25DOPE   H3R 3133   7.644   5.242  15.533  1.5399 -0.1110  0.6307
   25DOPE   H3S 3134   7.709   5.409  15.536 -0.0456 -0.4214 -1.0065
   25DOPE   C24 3135   7.498   5.391  15.477 -0.1565  0.1607  0.5108
   25DOPE   H4R 3136   7.453   5.486  15.515 -2.9689 -1.6698  2.1869
   25DOPE   H4S 3137   7.415   5.317  15.481  2.6091 -3.2055  0.3456
   25DOPE   C25 3138   7.543   5.423  15.337 -0.0551  0.0939  0.0213
   25DOPE   H5R 3139   7.583   5.328  15.296  0.7296 -0.3197  1.6740
   25DOPE   H5S 3140   7.623   5.500  15.339  0.9786 -0.9648  0.7051
   25DOPE   C26 3141   7.424   5.474  15.258 -0.1983  0.5026 -0.2571
   25DOPE   H6R 3142   7.379   5.566  15.301 -0.0164  1.2945 -1.7026
   25DOPE   H6S 3143   7.341   5.400  15.266 -0.9315  1.4284  1.1897
   25DOPE   C27 3144   7.469   5.514  15.113  0.3617  0.1500 -0.4692
   25DOPE   H7R 3145   7.546   5.443  15.078  0.6814  0.6100 -0.7112
   25DOPE   H7S 3146   7.517   5.614  15.106  0.1910  0.1595 -1.8653
   25DOPE   C28 3147   7.355   5.517  15.015  0.2371 -0.0284 -0.2497
   25DOPE   H8R 3148   7.377   5.583  14.928  0.7071 -2.3778 -1.9979
   25DOPE   H8S 3149   7.264   5.567  15.057  0.9566  1.2365 -0.1370
   25DOPE   C29 3150   7.314   5.385  14.963  0.6672  0.4580  0.0720
   25DOPE   H9R 3151   7.377   5.300  14.995 -0.9300 -0.9845 -0.5036
   25DOPE  C210 3152   7.228   5.367  14.857  0.8112 -0.4607 -0.0758
   25DOPE  H10R 3153   7.212   5.265  14.820  2.8598 -1.4563  1.5135
   25DOPE  C211 3154   7.149   5.475  14.790 -0.1535  0.6921 -0.0627
   25DOPE  H11R 3155   7.205   5.571  14.801  1.1699 -0.2214  1.6653
   25DOPE  H11S 3156   7.047   5.492  14.832 -0.6878  1.2760 -1.5237
   25DOPE  C212 3157   7.136   5.447  14.643 -0.0123 -0.0490  0.6461
   25DOPE  H12R 3158   7.083   5.350  14.629  0.5125 -0.1243 -1.0191
   25DOPE  H12S 3159   7.235   5.444  14.594 -1.8438 -0.3965 -3.4757
   25DOPE  C213 3160   7.072   5.565  14.559  0.5230  0.6403  0.6011
   25DOPE  H13R 3161   6.968   5.582  14.592  0.9632  0.7029  2.0485
   25DOPE  H13S 3162   7.070   5.534  14.452 -3.7886 -0.0237  0.7091
   25DOPE  C214 3163   7.139   5.705  14.572  0.0398  0.2935  0.0661
   25DOPE  H14R 3164   7.131   5.743  14.676 -3.7749 -3.0371  1.2413
   25DOPE  H14S 3165   7.077   5.774  14.511 -0.7843 -0.4425  0.0522
   25DOPE  C215 3166   7.284   5.702  14.524  0.2714  0.9570 -0.3386
   25DOPE  H15R 3167   7.280   5.708  14.413 -4.0246  2.8680 -0.2748
   25DOPE  H15S 3168   7.341   5.610  14.548  0.4969  1.3455  0.6592
   25DOPE  C216 3169   7.374   5.820  14.570 -0.1389 -0.2670  0.2852
   25DOPE  H16R 3170   7.392   5.815  14.679  0.6644 -1.8110  0.1099
   25DOPE  H16S 3171   7.308   5.908  14.554  0.4734 -0.1153 -1.7784
   25DOPE  C217 3172   7.513   5.835  14.499 -0.2545  0.0552  0.3574
   25DOPE  H17R 3173   7.556   5.937  14.504 -0.0006 -0.0968  2.0568
   25DOPE  H17S 3174   7.500   5.816  14.391 -1.3371 -0.3550  0.5467
   25DOPE  C218 3175   7.612   5.733  14.542 -0.5093  0.2199 -0.1558
   25DOPE  H18R 3176   7.699   5.742  14.472  0.2441 -0.6811  0.6309
   25DOPE  H18S 3177   7.572   5.631  14.558  0.6712  0.0446  2.1644
   25DOPE  H18T 3178   7.659   5.745  14.642  0.6225  1.2728 -0.7746
   25DOPE   C33 3179   7.833   5.735  15.391  0.5381  0.1855  0.3685
   25DOPE   H3X 3180   7.756   5.660  15.419 -0.3062  0.3961 -1.2499
   25DOPE   H3Y 3181   7.935   5.692  15.405 -0.1529 -3.0421 -2.9684
   25DOPE   C34 3182   7.827   5.762  15.237  0.2413 -0.7606  0.5028
   25DOPE   H4X 3183   7.735   5.814  15.204  0.7321  0.5848  1.1677
   25DOPE   H4Y 3184   7.908   5.835  15.216  0.4621 -0.0246  3.4858
   25DOPE   C35 3185   7.857   5.643  15.145  0.0710  0.2589 -0.0597
   25DOPE   H5X 3186   7.789   5.563  15.180  0.5785 -0.3297 -0.3830
   25DOPE   H5Y 3187   7.965   5.618  15.159 -0.0331  0.0253  0.3290
   25DOPE   C36 3188   7.837   5.676  14.997  0.1184 -0.0248  0.5120
   25DOPE   H6X 3189   7.728   5.674  14.972  0.4426 -1.3486 -0.9741
   25DOPE   H6Y 3190   7.870   5.577  14.957  0.5607  0.0390  0.7197
   25DOPE   C37 3191   7.914   5.795  14.938 -0.1665  0.1676 -0.1417
   25DOPE   H7X 3192   7.874   5.879  14.999  1.5203  0.5591  0.4911
   25DOPE   H7Y 3193   8.022   5.781  14.959 -0.4645  0.1014  1.5105
   25DOPE   C38 3194   7.886   5.835  14.789  0.9957  0.6666 -0.1132
   25DOPE   H8X 3195   7.938   5.932  14.769  0.5691  1.1586  1.0835
   25DOPE   H8Y 3196   7.778   5.860  14.780  0.9693 -0.0880 -2.6875
   25DOPE   C39 3197   7.924   5.744  14.680 -0.3173 -0.2363 -0.0812
   25DOPE   H9X 3198   7.842   5.676  14.653 -1.2420  0.4757  0.8597
   25DOPE  C310 3199   8.045   5.732  14.629 -0.6038 -0.4572 -0.8237
   25DOPE  H10X 3200   8.066   5.666  14.544 -1.3194 -1.4923 -0.2251
   25DOPE  C311 3201   8.175   5.789  14.685 -0.4786  0.0701 -0.0622
   25DOPE  H11X 3202   8.193   5.896  14.658  1.2860 -0.0806  0.4300
   25DOPE  H11Y 3203   8.177   5.789  14.796 -0.0148 -0.9342 -0.0643
   25DOPE  C312 3204   8.293   5.694  14.644 -0.2237  0.4858  0.3483
   25DOPE  H12X 3205   8.379   5.737  14.700 -0.3259  1.8354 -0.4881
   25DOPE  H12Y 3206   8.314   5.687  14.535  3.2515 -1.6418  0.9990
   25DOPE  C313 3207   8.260   5.553  14.696 -0.2738 -0.5285 -0.3481
   25DOPE  H13X 3208   8.217   5.566  14.797 -1.2804  0.0235 -0.8349
   25DOPE  H13Y 3209   8.189   5.482  14.648 -0.7238 -0.9760  0.9243
   25DOPE  C314 3210   8.400   5.484  14.726  0.2851  0.0414 -0.0721
   25DOPE  H14X 3211   8.380   5.388  14.778 -0.1762  0.2022  0.0464
   25DOPE  H14Y 3212   8.462   5.547  14.793 -2.3804  1.3962  1.2407
   25DOPE  C315 3213   8.476   5.446  14.594 -0.3040 -0.4674 -0.9944
   25DOPE  H15X 3214   8.576   5.407  14.620 -0.8092 -0.9994  0.2402
   25DOPE  H15Y 3215   8.501   5.546  14.551  1.9935 -0.2526  0.6412
   25DOPE  C316 3216   8.392   5.358  14.499  0.2761 -1.2663  0.6065
   25DOPE  H16X 3217   8.437   5.340  14.399 -2.3717 -2.8405 -0.4282
   25DOPE  H16Y 3218   8.295   5.405  14.471  0.9725 -0.3906 -0.4456
   25DOPE  C317 3219   8.354   5.212  14.549  0.3566 -0.3125 -0.4130
   25DOPE  H17X 3220   8.439   5.145  14.572 -0.2433 -0.8755  0.2187
   25DOPE  H17Y 3221   8.286   5.231  14.636 -0.2573  0.2733 -1.0075
   25DOPE  C318 3222   8.268   5.133  14.448  0.0823  0.3924  0.0918
   25DOPE  H18X 3223   8.166   5.176  14.448 -0.2209 -0.2230  1.8875
   25DOPE  H18Y 3224   8.318   5.141  14.349  0.6319  1.3962  0.4401
   25DOPE  H18Z 3225   8.257   5.027  14.482 -3.3374  0.3197 -0.8940
   26DOPE     N 3226   0.629   6.487  16.294  0.6445  0.3475  0.2398
   26DOPE   HN1 3227   0.618   6.586  16.266  0.1917 -0.1242 -1.3619
   26DOPE   HN2 3228   0.719   6.452  16.256  0.8448  0.6352  0.4370
   26DOPE   HN3 3229   0.557   6.424  16.255 -0.1997  1.3352  0.1857
   26DOPE   C12 3230   0.641   6.492  16.440 -0.7094 -0.6779 -0.5080
   26DOPE  H12A 3231   0.680   6.590  16.476 -0.9694 -1.7555  3.0785
   26DOPE  H12B 3232   0.723   6.425  16.471 -1.7112 -0.9199  1.8052
   26DOPE   C11 3233   0.519   6.436  16.507  0.0211  0.4595  0.2680
   26DOPE  H11A 3234   0.434   6.473  16.446 -2.7901 -2.3307  2.2187
   26DOPE  H11B 3235   0.509   6.470  16.612 -0.2402  2.7024 -0.4340
   26DOPE     P 3236   0.448   6.199  16.406  0.0986  0.3603 -0.2726
   26DOPE   O13 3237   0.307   6.215  16.436 -0.3116  0.5844  0.3756
   26DOPE   O14 3238   0.502   6.064  16.414  0.9591  0.3365 -0.0913
   26DOPE   O11 3239   0.480   6.261  16.269  0.5043  0.0758 -0.2355
   26DOPE   O12 3240   0.525   6.292  16.505  0.2397  0.3091 -0.6040
   26DOPE    C1 3241   0.411   6.228  16.146 -0.2032  0.4532  0.1969
   26DOPE    HA 3242   0.449   6.290  16.063  1.0658 -0.0869  0.3561
   26DOPE    HB 3243   0.300   6.239  16.153 -0.3897 -0.8103 -0.4998
   26DOPE    C2 3244   0.439   6.076  16.108 -0.4161 -0.0177  0.2629
   26DOPE    HS 3245   0.427   6.010  16.197  1.5711  0.8646  1.2463
   26DOPE   O21 3246   0.574   6.080  16.057  0.2272 -0.0099 -0.0200
   26DOPE   C21 3247   0.630   5.959  16.033 -0.1446  0.3145  0.2794
   26DOPE   O22 3248   0.593   5.853  16.084 -0.1572 -0.1543  0.1840
   26DOPE   C22 3249   0.748   5.978  15.940 -0.6888  0.5525  0.1231
   26DOPE   H2R 3250   0.840   5.960  15.998 -2.0273  0.7518  2.4369
   26DOPE   H2S 3251   0.741   6.086  15.915 -2.0788  0.7804  1.3435
   26DOPE    C3 3252   0.341   6.007  16.003  0.2075 -0.0702 -0.7059
   26DOPE    HX 3253   0.234   6.013  16.030  0.0759  0.8133 -1.4158
   26DOPE    HY 3254   0.360   5.897  16.005 -1.4183 -0.3715  0.8576
   26DOPE   O31 3255   0.367   6.064  15.875  0.1277 -0.1191  0.0778
   26DOPE   C31 3256   0.298   6.173  15.831 -0.7148 -0.0635  0.8424
   26DOPE   O32 3257   0.219   6.237  15.898 -0.0005 -0.0089  0.4638
   26DOPE   C32 3258   0.337   6.212  15.693 -0.5128  0.2505 -0.2507
   26DOPE   H2X 3259   0.418   6.147  15.655  0.1824  0.8519  0.1724
   26DOPE   H2Y 3260   0.251   6.205  15.622 -0.3840  1.9572 -0.6216
   26DOPE   C23 3261   0.749   5.884  15.816  0.0977  0.4964 -0.1823
   26DOPE   H3R 3262   0.723   5.779  15.843 -1.5165  1.4123  2.1406
   26DOPE   H3S 3263   0.852   5.870  15.779 -0.3853  0.3600 -1.5338
   26DOPE   C24 3264   0.649   5.925  15.707 -0.0859 -0.4723  0.1598
   26DOPE   H4R 3265   0.702   5.987  15.631  0.6561  0.8344  1.6935
   26DOPE   H4S 3266   0.571   5.990  15.754 -0.2826 -0.1708 -0.5539
   26DOPE   C25 3267   0.572   5.809  15.636 -0.6809 -0.0875 -0.2069
   26DOPE   H5R 3268   0.507   5.760  15.711 -2.5000 -1.5382 -2.5873
   26DOPE   H5S 3269   0.652   5.738  15.605 -1.9636 -1.3124 -0.7667
   26DOPE   C26 3270   0.486   5.839  15.512  0.0525  0.2040  0.1753
   26DOPE   H6R 3271   0.415   5.922  15.535 -1.6432 -1.1672  0.1518
   26DOPE   H6S 3272   0.439   5.740  15.491 -1.9054  0.7995  1.4008
   26DOPE   C27 3273   0.572   5.869  15.388  0.3794 -0.1484  0.1936
   26DOPE   H7R 3274   0.646   5.787  15.376  0.9301  0.6792 -2.9609
   26DOPE   H7S 3275   0.633   5.961  15.399 -0.2560  0.2200  0.6836
   26DOPE   C28 3276   0.474   5.872  15.268  0.3471 -0.7165 -0.5770
   26DOPE   H8R 3277   0.398   5.948  15.294  2.0213  1.1027 -0.7578
   26DOPE   H8S 3278   0.430   5.770  15.264 -0.7391 -0.2729 -0.1625
   26DOPE   C29 3279   0.536   5.899  15.132  0.8833 -0.2463 -0.2183
   26DOPE   H9R 3280   0.605   5.824  15.091  0.8112 -0.3929 -0.0705
   26DOPE  C210 3281   0.509   6.009  15.058  0.0828 -0.1341 -0.0061
   26DOPE  H10R 3282   0.576   6.021  14.971  2.3593 -0.5993  1.5959
   26DOPE  C211 3283   0.410   6.121  15.069 -0.5928 -0.1768  0.1490
   26DOPE  H11R 3284   0.303   6.095  15.083 -1.3479  2.1627 -0.9164
   26DOPE  H11S 3285   0.404   6.179  14.974 -0.7761 -0.6180 -0.1142
   26DOPE  C212 3286   0.441   6.216  15.183  0.1330  0.5359  0.5159
   26DOPE  H12R 3287   0.430   6.160  15.278 -0.4533 -1.4614 -0.6683
   26DOPE  H12S 3288   0.371   6.303  15.177  1.1257  1.3793  0.7713
   26DOPE  C213 3289   0.588   6.264  15.182 -0.7127 -1.1524  0.4812
   26DOPE  H13R 3290   0.583   6.331  15.094  1.3715 -1.3317  0.1721
   26DOPE  H13S 3291   0.668   6.192  15.153  1.5660  0.3708  2.5405
   26DOPE  C214 3292   0.626   6.341  15.313 -0.8341  0.5617  0.2042
   26DOPE  H14R 3293   0.641   6.268  15.396 -2.7218 -1.1201 -0.8428
   26DOPE  H14S 3294   0.538   6.399  15.347 -1.6556 -0.8542  0.5620
   26DOPE  C215 3295   0.736   6.445  15.292 -0.0669  0.5287  0.5555
   26DOPE  H15R 3296   0.728   6.504  15.197  2.3149 -0.5424 -0.3939
   26DOPE  H15S 3297   0.831   6.389  15.278 -0.0121  1.2396 -2.9185
   26DOPE  C216 3298   0.743   6.538  15.408  0.2332 -0.4503 -0.3900
   26DOPE  H16R 3299   0.750   6.481  15.503 -2.1517  1.6961  1.2015
   26DOPE  H16S 3300   0.642   6.580  15.422 -0.2527 -1.6460 -0.2099
   26DOPE  C217 3301   0.839   6.659  15.374  0.3185  0.3012 -0.1663
   26DOPE  H17R 3302   0.933   6.618  15.331 -1.5716 -1.4430 -3.0115
   26DOPE  H17S 3303   0.852   6.706  15.473 -2.1954  2.4816 -0.7407
   26DOPE  C218 3304   0.782   6.772  15.280 -0.4783 -0.0252 -0.1986
   26DOPE  H18R 3305   0.790   6.740  15.174 -1.6971 -2.6476  0.4088
   26DOPE  H18S 3306   0.846   6.863  15.287 -1.2081  0.4274  0.7881
   26DOPE  H18T 3307   0.675   6.796  15.295 -0.4647 -0.4936  0.7884
   26DOPE   C33 3308   0.388   6.360  15.682 -0.8190  0.7777  0.5570
   26DOPE   H3X 3309   0.331   6.431  15.745 -0.6749 -0.0346  1.6260
   26DOPE   H3Y 3310   0.362   6.396  15.580  2.1941 -2.5913 -1.6302
   26DOPE   C34 3311   0.542   6.366  15.685  0.7301  0.1596 -0.3601
   26DOPE   H4X 3312   0.579   6.287  15.617 -0.6337 -0.3013 -0.6046
   26DOPE   H4Y 3313   0.565   6.465  15.642  2.1706 -0.0856 -0.2107
   26DOPE   C35 3314   0.603   6.350  15.826  0.4297  0.2909  0.6611
   26DOPE   H5X 3315   0.559   6.259  15.872 -1.8308  0.5383 -0.8400
   26DOPE   H5Y 3316   0.574   6.442  15.881 -1.1788  0.9611 -1.2010
   26DOPE   C36 3317   0.754   6.350  15.818 -0.0352 -0.2952  0.0276
   26DOPE   H6X 3318   0.785   6.416  15.734 -0.3823  0.3128  0.3675
   26DOPE   H6Y 3319   0.783   6.248  15.785  1.7900  0.2707 -0.2077
   26DOPE   C37 3320   0.839   6.391  15.940  0.1072 -0.3375  0.1613
   26DOPE   H7X 3321   0.795   6.484  15.981  0.0978 -0.5888  0.7273
   26DOPE   H7Y 3322   0.838   6.310  16.015 -1.5499 -1.2529 -0.7845
   26DOPE   C38 3323   0.993   6.401  15.905  0.2042  0.5691 -0.6504
   26DOPE   H8X 3324   1.034   6.303  15.875  4.6450  2.7319 -2.5750
   26DOPE   H8Y 3325   1.056   6.432  15.991  0.1546 -1.9064  0.3597
   26DOPE   C39 3326   1.017   6.493  15.783 -0.3911 -0.2338 -0.2814
   26DOPE   H9X 3327   0.985   6.598  15.789 -0.1520 -0.0391 -1.8711
   26DOPE  C310 3328   1.051   6.460  15.658 -0.6359  0.6479  0.6441
   26DOPE  H10X 3329   1.037   6.532  15.576 -0.6806  1.1164  1.0590
   26DOPE  C311 3330   1.086   6.318  15.616 -0.4363 -0.1899 -0.0520
   26DOPE  H11X 3331   1.141   6.274  15.702  2.4391 -1.8787 -2.5382
   26DOPE  H11Y 3332   0.986   6.271  15.602 -0.5013  0.1530 -0.7432
   26DOPE  C312 3333   1.182   6.298  15.497  0.4787  0.1322 -0.6044
   26DOPE  H12X 3334   1.216   6.193  15.482  2.2767  0.4253  0.9434
   26DOPE  H12Y 3335   1.275   6.347  15.534  0.5624 -1.2891  1.1928
   26DOPE  C313 3336   1.134   6.362  15.368 -0.2335 -0.0204  0.1046
   26DOPE  H13X 3337   1.033   6.326  15.337 -0.6543  1.4568 -0.3377
   26DOPE  H13Y 3338   1.125   6.472  15.381 -2.1338 -0.1862  0.5731
   26DOPE  C314 3339   1.227   6.329  15.254  0.1360  0.4259 -0.0348
   26DOPE  H14X 3340   1.222   6.220  15.238 -0.4819  0.3932  0.3324
   26DOPE  H14Y 3341   1.331   6.349  15.288 -1.2200  3.4937  2.9515
   26DOPE  C315 3342   1.209   6.422  15.129 -0.4471  0.4156 -0.9359
   26DOPE  H15X 3343   1.188   6.523  15.170  1.9998  1.1113 -1.2485
   26DOPE  H15Y 3344   1.121   6.387  15.071 -2.2518 -1.6798  2.6958
   26DOPE  C316 3345   1.330   6.432  15.031  0.3026 -0.3494 -0.0484
   26DOPE  H16X 3346   1.427   6.460  15.079  0.6767  0.4229 -1.2214
   26DOPE  H16Y 3347   1.309   6.512  14.957 -0.1369  2.0988  2.5477
   26DOPE  C317 3348   1.366   6.295  14.964  0.6947 -0.3830  0.1335
   26DOPE  H17X 3349   1.409   6.227  15.040  0.7097 -0.0463  0.4269
   26DOPE  H17Y 3350   1.270   6.253  14.925  0.2797 -0.1469  0.8976
   26DOPE  C318 3351   1.474   6.313  14.852 -0.0177 -0.3870  0.7166
   26DOPE  H18X 3352   1.474   6.215  14.800 -2.8262 -0.6452  1.0768
   26DOPE  H18Y 3353   1.440   6.389  14.778  0.1923  1.6151  2.5638
   26DOPE  H18Z 3354   1.570   6.339  14.901 -0.5599  3.1402  0.1745
   27DOPE     N 3355   5.540   0.937  16.307  0.2933 -0.9396 -0.4159
   27DOPE   HN1 3356   5.526   0.901  16.403 -0.9827 -0.0350 -0.2349
   27DOPE   HN2 3357   5.638   0.914  16.282 -0.1350 -0.1705 -3.2662
   27DOPE   HN3 3358   5.522   1.039  16.301 -1.0508 -1.1399 -0.1070
   27DOPE   C12 3359   5.447   0.872  16.206  0.2581  0.1721 -0.5786
   27DOPE  H12A 3360   5.473   0.907  16.104  0.7464 -1.8611 -1.2026
   27DOPE  H12B 3361   5.341   0.895  16.230  0.3692 -2.9292  4.2525
   27DOPE   C11 3362   5.457   0.717  16.214  0.1162 -0.1581  0.1808
   27DOPE  H11A 3363   5.560   0.680  16.196 -0.3355 -0.4859 -1.8888
   27DOPE  H11B 3364   5.391   0.685  16.131 -0.8481  2.6367 -0.2421
   27DOPE     P 3365   5.445   0.527  16.392  0.0789  0.2304 -0.0960
   27DOPE   O13 3366   5.338   0.463  16.478 -0.6516  0.4944  0.0955
   27DOPE   O14 3367   5.580   0.539  16.444 -0.4586 -0.0140 -0.4179
   27DOPE   O11 3368   5.460   0.444  16.258 -0.0522 -0.1118 -0.1540
   27DOPE   O12 3369   5.394   0.660  16.330 -0.0054 -0.1240 -0.6277
   27DOPE    C1 3370   5.349   0.385  16.196 -0.3887  0.4157 -0.5480
   27DOPE    HA 3371   5.263   0.455  16.199  0.4277  1.5205 -1.7237
   27DOPE    HB 3372   5.327   0.288  16.245 -1.7352  0.2369 -1.4444
   27DOPE    C2 3373   5.367   0.368  16.045  0.6267 -0.0153  0.0528
   27DOPE    HS 3374   5.457   0.305  16.030  0.1595 -1.4798  2.6422
   27DOPE   O21 3375   5.380   0.497  15.979 -0.7624  0.0530 -1.2970
   27DOPE   C21 3376   5.448   0.508  15.869  0.2225 -0.0122 -0.4422
   27DOPE   O22 3377   5.529   0.430  15.823  0.0928  0.4769  0.6635
   27DOPE   C22 3378   5.388   0.632  15.800 -0.9319  0.9381 -0.2848
   27DOPE   H2R 3379   5.379   0.721  15.867 -4.1726  0.0024  0.7007
   27DOPE   H2S 3380   5.285   0.594  15.782 -0.1783 -2.1096  1.1921
   27DOPE    C3 3381   5.245   0.292  15.974 -0.2559 -0.8376 -0.4779
   27DOPE    HX 3382   5.166   0.367  15.958 -2.8487 -3.0488  1.1164
   27DOPE    HY 3383   5.194   0.219  16.041 -1.0649  0.2703  0.1321
   27DOPE   O31 3384   5.273   0.236  15.844  0.3333  0.0030  0.1666
   27DOPE   C31 3385   5.373   0.148  15.838  0.3175  0.4846 -0.1264
   27DOPE   O32 3386   5.421   0.093  15.934  0.1517  0.6685  0.1689
   27DOPE   C32 3387   5.406   0.125  15.688 -0.7361 -0.9088 -0.0030
   27DOPE   H2X 3388   5.348   0.192  15.621  1.2607 -0.7049 -1.6320
   27DOPE   H2Y 3389   5.505   0.171  15.665 -2.4320  1.4429 -3.5631
   27DOPE   C23 3390   5.446   0.643  15.657 -0.1525 -0.1545 -0.9275
   27DOPE   H3R 3391   5.366   0.683  15.591 -0.9057 -0.6833 -0.3614
   27DOPE   H3S 3392   5.474   0.547  15.611 -0.7114 -0.5566 -0.4519
   27DOPE   C24 3393   5.567   0.729  15.645  0.3024  0.8496  0.5683
   27DOPE   H4R 3394   5.659   0.670  15.667  0.3514  0.3356 -0.8900
   27DOPE   H4S 3395   5.554   0.818  15.710  0.7911  1.9560 -0.8050
   27DOPE   C25 3396   5.598   0.793  15.502 -0.7388  0.6537  0.2421
   27DOPE   H5R 3397   5.672   0.874  15.514 -2.3540  2.3543 -0.7806
   27DOPE   H5S 3398   5.505   0.834  15.459 -1.3855  0.6603  1.5848
   27DOPE   C26 3399   5.666   0.689  15.412  0.1515  0.5160  1.1162
   27DOPE   H6R 3400   5.603   0.598  15.405  0.6381  0.2027  0.6524
   27DOPE   H6S 3401   5.761   0.662  15.463  0.9569 -1.1047 -1.0787
   27DOPE   C27 3402   5.682   0.733  15.271 -0.3445  0.0569 -0.1035
   27DOPE   H7R 3403   5.741   0.826  15.274 -0.5898  0.2732 -1.3835
   27DOPE   H7S 3404   5.585   0.739  15.216  0.1267  1.3967 -0.8188
   27DOPE   C28 3405   5.766   0.634  15.182  0.2963  0.4287  0.4903
   27DOPE   H8R 3406   5.869   0.613  15.218  0.5982 -0.3051 -0.7600
   27DOPE   H8S 3407   5.789   0.699  15.095 -0.0468 -2.5617 -1.9814
   27DOPE   C29 3408   5.689   0.505  15.141 -0.4684 -0.7637  0.0126
   27DOPE   H9R 3409   5.677   0.433  15.224  0.0267  1.7820  2.4593
   27DOPE  C210 3410   5.625   0.484  15.023 -0.1400  0.4342  0.6419
   27DOPE  H10R 3411   5.562   0.393  15.019  0.6447 -0.1306  0.8447
   27DOPE  C211 3412   5.619   0.566  14.896 -0.7775 -0.7557 -0.1494
   27DOPE  H11R 3413   5.716   0.617  14.881 -1.8620  0.8747 -2.1806
   27DOPE  H11S 3414   5.536   0.640  14.902  0.2895  0.3302  1.9007
   27DOPE  C212 3415   5.586   0.493  14.765 -0.4327 -0.1924  0.3809
   27DOPE  H12R 3416   5.561   0.563  14.681  0.5382 -1.5861 -1.1219
   27DOPE  H12S 3417   5.496   0.429  14.774 -1.6528  1.6789  2.4247
   27DOPE  C213 3418   5.701   0.404  14.714  0.8365 -0.2263 -0.3834
   27DOPE  H13R 3419   5.716   0.330  14.795 -0.3559  0.4404  0.4791
   27DOPE  H13S 3420   5.795   0.462  14.707  1.9372 -1.8614  0.2570
   27DOPE  C214 3421   5.663   0.345  14.578  1.2676  0.2765  0.1766
   27DOPE  H14R 3422   5.655   0.424  14.501 -2.2139 -0.7555 -0.6703
   27DOPE  H14S 3423   5.561   0.303  14.588  0.9339  0.5556 -1.6852
   27DOPE  C215 3424   5.771   0.251  14.534  0.2685 -0.1695  0.1909
   27DOPE  H15R 3425   5.728   0.174  14.467 -1.6712  0.1918  0.9505
   27DOPE  H15S 3426   5.807   0.193  14.622 -0.6307  0.5672  1.0734
   27DOPE  C216 3427   5.891   0.324  14.462 -0.1356  0.6018 -0.0077
   27DOPE  H16R 3428   5.938   0.395  14.533 -4.5949  3.8928  0.1068
   27DOPE  H16S 3429   5.861   0.377  14.369 -1.3655 -0.0135  0.0161
   27DOPE  C217 3430   6.000   0.236  14.413 -0.6433  0.5322 -0.5400
   27DOPE  H17R 3431   6.018   0.156  14.488 -0.0067 -0.3028 -1.5532
   27DOPE  H17S 3432   6.090   0.299  14.401  0.6061 -0.8885  0.9502
   27DOPE  C218 3433   5.973   0.168  14.277  0.8890  0.3825  0.2435
   27DOPE  H18R 3434   5.947   0.243  14.199 -0.7696 -0.0207  0.3652
   27DOPE  H18S 3435   5.884   0.103  14.291  2.0183 -1.0399  1.1146
   27DOPE  H18T 3436   6.064   0.110  14.252  0.9270  0.4491  0.2266
   27DOPE   C33 3437   5.401  -0.019  15.638 -0.0057 -0.2316 -0.2226
   27DOPE   H3X 3438   5.305  -0.070  15.661  0.0222  0.2138  0.9590
   27DOPE   H3Y 3439   5.486  -0.068  15.690  0.4983 -0.6893 -1.4349
   27DOPE   C34 3440   5.422  -0.046  15.482 -0.0142 -0.1272 -0.6695
   27DOPE   H4X 3441   5.464  -0.148  15.467 -0.0448 -0.3198  0.4785
   27DOPE   H4Y 3442   5.322  -0.052  15.435  0.1305 -2.4434 -0.7853
   27DOPE   C35 3443   5.510   0.054  15.412 -0.9522 -0.2531  0.1390
   27DOPE   H5X 3444   5.596   0.077  15.480 -0.3982 -1.2409 -0.2087
   27DOPE   H5Y 3445   5.463   0.155  15.404 -2.1483 -0.6344  1.8792
   27DOPE   C36 3446   5.559   0.011  15.272 -0.0680 -0.7087 -0.1841
   27DOPE   H6X 3447   5.586   0.108  15.225  2.2346  0.5533  3.2877
   27DOPE   H6Y 3448   5.479  -0.050  15.225 -0.3778 -1.6870  1.5289
   27DOPE   C37 3449   5.687  -0.065  15.266 -0.3598  0.0576  0.3832
   27DOPE   H7X 3450   5.762  -0.000  15.317  0.4881 -0.2817 -0.3951
   27DOPE   H7Y 3451   5.681  -0.166  15.313  2.0002 -1.1216 -1.6497
   27DOPE   C38 3452   5.738  -0.114  15.127 -0.5404  0.0133  0.0106
   27DOPE   H8X 3453   5.659  -0.186  15.094 -1.0259 -0.4193  2.0155
   27DOPE   H8Y 3454   5.834  -0.166  15.141 -0.1385  1.0652  1.3857
   27DOPE   C39 3455   5.759   0.000  15.038 -0.0528 -1.4608  0.7923
   27DOPE   H9X 3456   5.855   0.043  15.068 -0.2801  0.9578 -1.5515
   27DOPE  C310 3457   5.684   0.046  14.933  0.0561  0.3532  0.2532
   27DOPE  H10X 3458   5.722   0.134  14.878 -0.7289  0.1981 -0.5560
   27DOPE  C311 3459   5.556  -0.008  14.871 -0.2370  0.7785  0.2027
   27DOPE  H11X 3460   5.565  -0.015  14.760  1.4596 -1.6296  0.4298
   27DOPE  H11Y 3461   5.529  -0.110  14.906 -0.9085  0.8201 -0.1654
   27DOPE  C312 3462   5.431   0.081  14.891 -0.4750  0.5681  0.1989
   27DOPE  H12X 3463   5.452   0.183  14.852  2.5867 -0.9284 -2.5271
   27DOPE  H12Y 3464   5.411   0.082  15.000 -0.6467  0.4771  0.1684
   27DOPE  C313 3465   5.299   0.036  14.824 -0.1748  0.0334  0.6934
   27DOPE  H13X 3466   5.289  -0.074  14.837 -2.8251  0.0271 -0.6034
   27DOPE  H13Y 3467   5.209   0.087  14.865 -0.6874  0.6540 -1.0994
   27DOPE  C314 3468   5.303   0.047  14.671  0.3300  0.3261 -0.6028
   27DOPE  H14X 3469   5.231  -0.023  14.622  0.5244 -1.4961  1.5722
   27DOPE  H14Y 3470   5.403   0.023  14.628  0.7854  0.0122  0.5991
   27DOPE  C315 3471   5.263   0.195  14.622  0.0767  0.5347 -0.5170
   27DOPE  H15X 3472   5.326   0.280  14.657  1.2215 -0.7378  0.6263
   27DOPE  H15Y 3473   5.161   0.220  14.658 -1.1935  2.1464 -4.6033
   27DOPE  C316 3474   5.255   0.203  14.468 -0.2333  0.2556 -0.2262
   27DOPE  H16X 3475   5.193   0.114  14.443 -0.1544 -0.2845  1.3656
   27DOPE  H16Y 3476   5.361   0.183  14.441  0.4566 -0.0463  2.4697
   27DOPE  C317 3477   5.218   0.335  14.411  0.2032 -0.6001 -0.0583
   27DOPE  H17X 3478   5.126   0.367  14.464  0.1781 -1.7615  0.6101
   27DOPE  H17Y 3479   5.306   0.403  14.424  0.2568 -0.4117 -1.2115
   27DOPE  C318 3480   5.198   0.324  14.261 -0.3175 -0.0684  0.0765
   27DOPE  H18X 3481   5.170   0.424  14.222  1.4046  0.6911  0.7212
   27DOPE  H18Y 3482   5.278   0.281  14.197 -0.8719 -1.9777  0.6033
   27DOPE  H18Z 3483   5.104   0.271  14.233 -0.1810 -0.1418 -0.2492
   28DOPE     N 3484   6.931   7.015  16.481  0.0052 -0.1013 -0.1125
   28DOPE   HN1 3485   6.853   7.025  16.549  0.4822  0.7083  0.3343
   28DOPE   HN2 3486   7.025   6.995  16.522  0.3170  1.4539 -0.0120
   28DOPE   HN3 3487   6.940   7.109  16.438  1.1488 -0.4898 -0.7780
   28DOPE   C12 3488   6.912   6.912  16.382 -0.4142  0.7583  0.1274
   28DOPE  H12A 3489   6.802   6.908  16.363 -0.4498  1.6113  0.1290
   28DOPE  H12B 3490   6.953   6.818  16.425  0.3052  1.6136  1.3465
   28DOPE   C11 3491   6.985   6.928  16.248  0.6593  0.1927 -0.1072
   28DOPE  H11A 3492   6.924   7.005  16.197  1.8931  2.9935  2.3277
   28DOPE  H11B 3493   6.981   6.843  16.177  1.0765 -1.3838  1.6704
   28DOPE     P 3494   7.238   6.880  16.244  0.4244 -0.2567 -0.0170
   28DOPE   O13 3495   7.190   6.741  16.272  0.3241 -0.4656  0.5924
   28DOPE   O14 3496   7.352   6.928  16.326  0.0345 -0.3947  0.2088
   28DOPE   O11 3497   7.272   6.898  16.089 -0.0900  0.0033 -0.2065
   28DOPE   O12 3498   7.113   6.981  16.267 -0.3271 -0.3479  0.0845
   28DOPE    C1 3499   7.219   6.800  16.002  0.4860 -0.3740 -0.1683
   28DOPE    HA 3500   7.213   6.848  15.902 -0.6306  0.4890  0.2894
   28DOPE    HB 3501   7.115   6.765  16.018  0.2419 -0.5114 -1.8859
   28DOPE    C2 3502   7.316   6.685  15.982 -0.8281  0.6727  0.5940
   28DOPE    HS 3503   7.353   6.645  16.079  1.3548 -1.4211 -0.9966
   28DOPE   O21 3504   7.430   6.724  15.903  0.2575 -0.2143 -0.0859
   28DOPE   C21 3505   7.541   6.652  15.918 -0.0622  0.4327  0.3085
   28DOPE   O22 3506   7.553   6.554  15.994  0.1293  0.8268  0.2160
   28DOPE   C22 3507   7.653   6.695  15.817  0.3182 -1.0126 -0.5234
   28DOPE   H2R 3508   7.673   6.798  15.854  0.6260 -1.4117  0.4626
   28DOPE   H2S 3509   7.596   6.700  15.722  0.0452  1.2262 -0.2936
   28DOPE    C3 3510   7.246   6.559  15.912  0.1572 -0.2727  0.0059
   28DOPE    HX 3511   7.153   6.528  15.964 -1.0279  1.8101 -0.7504
   28DOPE    HY 3512   7.317   6.474  15.918  1.8983  1.1203 -0.0010
   28DOPE   O31 3513   7.194   6.597  15.778  0.0033  0.0005  0.0007
   28DOPE   C31 3514   7.185   6.494  15.702  0.5510 -0.4797  0.0664
   28DOPE   O32 3515   7.192   6.380  15.743  0.3191  0.0482 -0.0026
   28DOPE   C32 3516   7.132   6.551  15.565 -0.0192 -0.9693 -0.3635
   28DOPE   H2X 3517   7.053   6.624  15.591  1.1347  0.8493 -1.7296
   28DOPE   H2Y 3518   7.213   6.614  15.523 -1.5781 -0.0367 -2.1528
   28DOPE   C23 3519   7.782   6.612  15.802 -0.2852  0.6871 -0.2094
   28DOPE   H3R 3520   7.755   6.509  15.769 -0.9888  1.6801 -3.0556
   28DOPE   H3S 3521   7.818   6.600  15.906 -0.7651 -0.9444 -0.1974
   28DOPE   C24 3522   7.877   6.676  15.698  0.6021 -0.3793 -0.4699
   28DOPE   H4R 3523   7.982   6.642  15.710  0.6225 -0.4178 -0.7426
   28DOPE   H4S 3524   7.866   6.784  15.725  0.2455 -0.6677  0.5678
   28DOPE   C25 3525   7.828   6.645  15.556  0.2841 -0.2705 -0.6205
   28DOPE   H5R 3526   7.725   6.686  15.559  0.7286  0.8618  2.1859
   28DOPE   H5S 3527   7.820   6.535  15.540  4.4730 -0.3172 -4.3408
   28DOPE   C26 3528   7.919   6.706  15.452 -0.0793 -0.3652  0.0558
   28DOPE   H6R 3529   8.008   6.757  15.493  0.7999 -0.4925 -1.6160
   28DOPE   H6S 3530   7.850   6.777  15.401 -0.7177 -0.0132  1.3847
   28DOPE   C27 3531   7.971   6.599  15.356 -0.6492  0.7132  0.7192
   28DOPE   H7R 3532   7.880   6.563  15.304 -0.1857 -0.3568  0.6216
   28DOPE   H7S 3533   8.018   6.514  15.410 -0.9746 -0.7095 -1.1307
   28DOPE   C28 3534   8.068   6.646  15.247 -0.6058 -0.3767  0.4016
   28DOPE   H8R 3535   8.170   6.640  15.291 -1.0556 -0.4607  1.4636
   28DOPE   H8S 3536   8.057   6.755  15.232  3.0976 -0.2966 -3.5581
   28DOPE   C29 3537   8.066   6.583  15.111 -0.2141 -0.4139 -0.1652
   28DOPE   H9R 3538   8.164   6.552  15.073 -0.5018  0.2101 -1.4928
   28DOPE  C210 3539   7.962   6.580  15.025  0.0365  0.3504 -0.8685
   28DOPE  H10R 3540   7.977   6.524  14.931  2.2015  0.4378 -0.6096
   28DOPE  C211 3541   7.825   6.634  15.043  0.0493  0.6242  0.1233
   28DOPE  H11R 3542   7.822   6.704  15.129  2.0307 -0.3910  1.0893
   28DOPE  H11S 3543   7.762   6.547  15.071 -0.4503  0.4886 -1.3471
   28DOPE  C212 3544   7.778   6.715  14.923 -0.2976 -0.0461 -0.4521
   28DOPE  H12R 3545   7.837   6.809  14.921 -0.6021  0.1777  0.5610
   28DOPE  H12S 3546   7.673   6.746  14.940 -0.0024  1.1168 -0.6471
   28DOPE  C213 3547   7.777   6.646  14.786 -0.1539  0.1888  0.2472
   28DOPE  H13R 3548   7.721   6.550  14.790 -0.2997  0.2745  0.2744
   28DOPE  H13S 3549   7.884   6.621  14.771  0.3167  1.0393  1.9139
   28DOPE  C214 3550   7.741   6.729  14.657 -0.5260  0.8998 -0.3825
   28DOPE  H14R 3551   7.795   6.825  14.644 -0.6673  0.8576 -1.3839
   28DOPE  H14S 3552   7.635   6.762  14.660  0.2085  3.5032 -0.6812
   28DOPE  C215 3553   7.758   6.649  14.533 -0.4873 -0.0151  0.1787
   28DOPE  H15R 3554   7.682   6.569  14.533 -2.0539  1.3992  1.5380
   28DOPE  H15S 3555   7.860   6.604  14.528 -0.8138 -0.8530  1.0416
   28DOPE  C216 3556   7.748   6.732  14.408  0.1785 -0.0306  0.0474
   28DOPE  H16R 3557   7.817   6.819  14.417  0.5482 -0.2538 -0.5564
   28DOPE  H16S 3558   7.641   6.763  14.407  0.6367  1.6556  0.2534
   28DOPE  C217 3559   7.783   6.662  14.277 -0.1968  0.3082  0.3865
   28DOPE  H17R 3560   7.887   6.624  14.271 -0.5567 -0.5915 -0.2864
   28DOPE  H17S 3561   7.768   6.734  14.194 -0.6795 -2.4726 -2.0956
   28DOPE  C218 3562   7.694   6.541  14.257  0.2116  0.3605  0.0538
   28DOPE  H18R 3563   7.721   6.503  14.156  1.0660 -0.2562  0.4968
   28DOPE  H18S 3564   7.587   6.570  14.260  0.5127  1.5772 -0.4016
   28DOPE  H18T 3565   7.716   6.462  14.332 -1.0394  0.0877  0.1572
   28DOPE   C33 3566   7.076   6.449  15.466  0.0435  0.3098 -0.3121
   28DOPE   H3X 3567   6.989   6.489  15.411  1.0190  0.7269 -1.6176
   28DOPE   H3Y 3568   7.038   6.358  15.518 -0.0485  0.2494 -0.4853
   28DOPE   C34 3569   7.188   6.420  15.361  0.1598  0.4513 -0.9908
   28DOPE   H4X 3570   7.134   6.361  15.284 -0.1199 -2.8552  1.5105
   28DOPE   H4Y 3571   7.217   6.521  15.325  3.1444  1.3724  3.2856
   28DOPE   C35 3572   7.310   6.354  15.417  0.2956  0.3674  0.0630
   28DOPE   H5X 3573   7.287   6.251  15.453  3.3231 -0.6868 -0.7912
   28DOPE   H5Y 3574   7.343   6.400  15.512 -2.7133 -0.0424  1.4495
   28DOPE   C36 3575   7.424   6.332  15.327 -0.0792 -0.0546 -0.1736
   28DOPE   H6X 3576   7.444   6.427  15.274 -0.4280  1.7775  2.7511
   28DOPE   H6Y 3577   7.398   6.251  15.255  1.9910  1.1479 -2.4285
   28DOPE   C37 3578   7.550   6.276  15.407  0.3909  0.2350  0.1389
   28DOPE   H7X 3579   7.605   6.348  15.472 -1.2353  1.0112  0.6949
   28DOPE   H7Y 3580   7.508   6.201  15.476 -3.1084  1.5709 -0.3459
   28DOPE   C38 3581   7.641   6.195  15.313 -0.1473 -0.3425  0.3766
   28DOPE   H8X 3582   7.589   6.105  15.274 -0.9357 -0.2083  1.0853
   28DOPE   H8Y 3583   7.726   6.156  15.373 -0.1309 -1.4412 -0.3232
   28DOPE   C39 3584   7.692   6.287  15.201 -0.0792  0.2501 -0.2182
   28DOPE   H9X 3585   7.738   6.382  15.233  2.3368 -0.3622 -1.6654
   28DOPE  C310 3586   7.696   6.262  15.065  0.2784 -0.5991 -0.1547
   28DOPE  H10X 3587   7.763   6.324  15.003 -0.4630  1.2348  0.8030
   28DOPE  C311 3588   7.639   6.136  14.995  0.1909 -0.1125 -0.6689
   28DOPE  H11X 3589   7.707   6.078  14.930 -1.4283 -1.4452 -1.2348
   28DOPE  H11Y 3590   7.592   6.065  15.067 -2.2941 -0.5658 -2.6257
   28DOPE  C312 3591   7.518   6.154  14.903 -0.0431 -0.0880 -0.2084
   28DOPE  H12X 3592   7.447   6.207  14.970 -0.4023 -1.7367  0.7806
   28DOPE  H12Y 3593   7.483   6.052  14.874  1.8385 -0.9323  0.3350
   28DOPE  C313 3594   7.546   6.223  14.773  0.1483 -0.2424  0.1228
   28DOPE  H13X 3595   7.453   6.247  14.717  1.7446  0.2833 -2.4379
   28DOPE  H13Y 3596   7.590   6.325  14.779  1.7915 -0.7337 -2.2240
   28DOPE  C314 3597   7.650   6.153  14.684 -0.3162 -0.0934 -0.2275
   28DOPE  H14X 3598   7.639   6.044  14.663  1.5147 -0.4227  0.3713
   28DOPE  H14Y 3599   7.744   6.161  14.742  0.8722 -0.6533 -2.0234
   28DOPE  C315 3600   7.666   6.216  14.547  0.1651 -0.5425  0.2933
   28DOPE  H15X 3601   7.661   6.326  14.564  1.0073 -0.7465  2.0788
   28DOPE  H15Y 3602   7.571   6.182  14.499 -1.4897  0.3059  2.7911
   28DOPE  C316 3603   7.791   6.163  14.472 -0.9354  0.1647  0.5693
   28DOPE  H16X 3604   7.803   6.219  14.377  1.0061 -0.8609  0.1630
   28DOPE  H16Y 3605   7.786   6.058  14.438  0.5666  0.3433 -0.2730
   28DOPE  C317 3606   7.931   6.184  14.538 -0.2888  0.0008 -0.0463
   28DOPE  H17X 3607   7.932   6.138  14.639 -0.7837 -0.2965 -0.1742
   28DOPE  H17Y 3608   8.008   6.144  14.468  0.0102 -1.4667  1.0889
   28DOPE  C318 3609   7.962   6.337  14.560  0.4449 -0.3856 -0.3741
   28DOPE  H18X 3610   7.948   6.387  14.462 -0.7614 -0.7507 -0.4018
   28DOPE  H18Y 3611   7.896   6.375  14.641  0.4792 -0.5716 -0.2576
   28DOPE  H18Z 3612   8.071   6.349  14.580 -0.0386  1.0868  1.7350
   29DOPE     N 3613   0.254   0.615  16.293  0.6151  0.4763  0.0214
   29DOPE   HN1 3614   0.151   0.603  16.297  0.4052  1.5683 -1.1674
   29DOPE   HN2 3615   0.298   0.616  16.387  1.9649  1.3672 -0.5793
   29DOPE   HN3 3616   0.262   0.711  16.253 -0.9861  0.1752 -1.1247
   29DOPE   C12 3617   0.322   0.518  16.207  0.7014  0.7259 -0.8468
   29DOPE  H12A 3618   0.428   0.519  16.239  0.4037 -0.0123  0.1948
   29DOPE  H12B 3619   0.326   0.548  16.100  1.8111  0.2409 -0.9537
   29DOPE   C11 3620   0.258   0.376  16.243 -0.6875 -0.2636  0.5568
   29DOPE  H11A 3621   0.307   0.298  16.180  0.9284  0.0841  1.3422
   29DOPE  H11B 3622   0.152   0.359  16.213 -0.6276  1.7387 -1.0063
   29DOPE     P 3623   0.404   0.275  16.432  0.1813 -0.0839 -0.0641
   29DOPE   O13 3624   0.380   0.202  16.557  0.0585  0.4736  0.1296
   29DOPE   O14 3625   0.509   0.380  16.432  0.1682 -0.5507 -0.4380
   29DOPE   O11 3626   0.440   0.175  16.311 -0.2734 -0.0061  0.1040
   29DOPE   O12 3627   0.276   0.339  16.385 -0.0091  0.2305 -0.3100
   29DOPE    C1 3628   0.362   0.051  16.290 -0.1992 -0.5639 -0.6487
   29DOPE    HA 3629   0.256   0.083  16.298  0.1523  0.3956  0.3426
   29DOPE    HB 3630   0.381  -0.021  16.372 -0.1921  2.4201  2.1506
   29DOPE    C2 3631   0.369  -0.024  16.150  0.3853  0.6326  0.3164
   29DOPE    HS 3632   0.467  -0.076  16.152 -1.2426 -2.6585  0.0066
   29DOPE   O21 3633   0.354   0.066  16.038  0.1762 -0.2363 -0.0617
   29DOPE   C21 3634   0.456   0.092  15.960  0.5399 -0.5231 -0.5488
   29DOPE   O22 3635   0.569   0.067  15.979  0.0044  0.2938  0.1194
   29DOPE   C22 3636   0.404   0.183  15.844 -0.6704  0.4305  0.3471
   29DOPE   H2R 3637   0.319   0.136  15.788 -1.1780  1.0131  0.6160
   29DOPE   H2S 3638   0.495   0.194  15.781 -1.2433  0.4284 -0.5050
   29DOPE    C3 3639   0.259  -0.136  16.132 -0.2070  0.0358 -0.5307
   29DOPE    HX 3640   0.156  -0.095  16.146 -0.9847 -1.9119 -0.1672
   29DOPE    HY 3641   0.278  -0.208  16.215 -2.3405  1.6687  1.5563
   29DOPE   O31 3642   0.251  -0.203  16.005 -0.0436 -0.4276  0.6355
   29DOPE   C31 3643   0.151  -0.295  16.004  0.4338 -0.5039  0.3840
   29DOPE   O32 3644   0.072  -0.314  16.094 -0.2276  0.2296 -0.3721
   29DOPE   C32 3645   0.171  -0.378  15.889  0.5040  0.6037  0.1679
   29DOPE   H2X 3646   0.187  -0.311  15.802 -0.1804 -0.6357 -0.9477
   29DOPE   H2Y 3647   0.257  -0.444  15.917 -0.5593 -0.5138  0.8979
   29DOPE   C23 3648   0.343   0.321  15.886 -0.8651  0.2306  0.6271
   29DOPE   H3R 3649   0.407   0.362  15.967 -1.2380 -2.2627  2.3010
   29DOPE   H3S 3650   0.237   0.326  15.918 -1.2467  1.6109 -0.7520
   29DOPE   C24 3651   0.345   0.416  15.768  0.9716 -0.6585  0.1390
   29DOPE   H4R 3652   0.448   0.430  15.731  1.2792  0.6708  1.4337
   29DOPE   H4S 3653   0.316   0.518  15.802  1.8558 -0.5007  0.4268
   29DOPE   C25 3654   0.252   0.364  15.655  0.9936 -0.1602  0.1427
   29DOPE   H5R 3655   0.160   0.346  15.715 -0.7161  0.1077 -2.2175
   29DOPE   H5S 3656   0.295   0.269  15.618 -1.3488 -1.8545  1.4693
   29DOPE   C26 3657   0.213   0.451  15.525  0.1848  0.1099 -0.0654
   29DOPE   H6R 3658   0.305   0.472  15.467 -1.1111 -0.2853 -2.3855
   29DOPE   H6S 3659   0.165   0.542  15.567  0.5325 -0.2561  1.1762
   29DOPE   C27 3660   0.108   0.388  15.429  0.3433  0.6103 -0.3184
   29DOPE   H7R 3661   0.098   0.450  15.338  1.0376  1.8100  0.4012
   29DOPE   H7S 3662   0.010   0.387  15.481  1.6122  1.5774  2.2599
   29DOPE   C28 3663   0.137   0.247  15.382 -0.1592  0.6675  0.6050
   29DOPE   H8R 3664   0.138   0.187  15.475 -2.0800  1.2843  1.0888
   29DOPE   H8S 3665   0.239   0.243  15.339 -1.3366 -2.1705 -2.3450
   29DOPE   C29 3666   0.028   0.180  15.300  0.3268 -0.0484  0.1254
   29DOPE   H9R 3667  -0.052   0.131  15.358  0.7168 -0.3663  0.4008
   29DOPE  C210 3668   0.004   0.216  15.173  0.1244  0.4141  0.2428
   29DOPE  H10R 3669  -0.070   0.150  15.125 -0.3641  0.4676  0.9088
   29DOPE  C211 3670   0.073   0.317  15.091 -0.0247 -0.4862  0.0410
   29DOPE  H11R 3671   0.136   0.262  15.018  1.4649 -0.8276  1.5106
   29DOPE  H11S 3672   0.156   0.376  15.136  0.9568  0.4808 -2.7682
   29DOPE  C212 3673  -0.023   0.403  15.002 -0.4254  0.3187  0.4165
   29DOPE  H12R 3674  -0.098   0.456  15.065 -0.0340  0.5936  0.6610
   29DOPE  H12S 3675  -0.082   0.344  14.928  0.7500  0.8730 -1.0167
   29DOPE  C213 3676   0.057   0.511  14.926 -0.1646 -0.2542 -0.1389
   29DOPE  H13R 3677   0.136   0.462  14.864 -1.7453  0.2688 -2.7380
   29DOPE  H13S 3678   0.109   0.570  15.004 -0.2407  0.4016 -0.5769
   29DOPE  C214 3679  -0.037   0.610  14.849 -0.3536  0.5254 -0.2577
   29DOPE  H14R 3680  -0.113   0.648  14.920 -0.2052  0.9789 -0.3426
   29DOPE  H14S 3681  -0.091   0.558  14.767  0.4781  0.3024 -0.6744
   29DOPE  C215 3682   0.032   0.728  14.780  0.6236 -0.1124 -0.3326
   29DOPE  H15R 3683   0.107   0.692  14.706  1.3651  3.2028 -1.4001
   29DOPE  H15S 3684   0.088   0.785  14.857 -0.2924 -1.0060  1.0282
   29DOPE  C216 3685  -0.070   0.818  14.711 -0.1838  0.0938 -0.0298
   29DOPE  H16R 3686  -0.170   0.803  14.756  0.2863 -0.1956  0.9512
   29DOPE  H16S 3687  -0.080   0.776  14.609 -1.5805 -0.6138  0.3815
   29DOPE  C217 3688  -0.041   0.965  14.727 -0.0311 -0.1719  0.1920
   29DOPE  H17R 3689   0.063   0.988  14.694  0.7015 -1.0277  1.7774
   29DOPE  H17S 3690  -0.047   0.999  14.832 -4.1824 -0.9638  0.3912
   29DOPE  C218 3691  -0.139   1.062  14.659  0.5508  0.0882 -0.5832
   29DOPE  H18R 3692  -0.239   1.082  14.702  0.4010  0.2620 -1.0054
   29DOPE  H18S 3693  -0.147   1.023  14.555  1.5151 -0.6124 -0.4115
   29DOPE  H18T 3694  -0.099   1.165  14.645  0.4106  0.1622 -0.4375
   29DOPE   C33 3695   0.048  -0.473  15.853  0.4841 -0.0878  0.1466
   29DOPE   H3X 3696  -0.042  -0.410  15.839  0.9950  0.3853 -1.1131
   29DOPE   H3Y 3697   0.031  -0.530  15.947 -1.9072 -0.4447 -0.4278
   29DOPE   C34 3698   0.065  -0.562  15.728 -0.6351  0.2102  0.5521
   29DOPE   H4X 3699   0.130  -0.523  15.646  0.9945 -1.6622  0.8622
   29DOPE   H4Y 3700   0.123  -0.649  15.765 -1.3558  0.0924  1.4470
   29DOPE   C35 3701  -0.079  -0.602  15.675  0.2096  0.0951 -0.0113
   29DOPE   H5X 3702  -0.141  -0.511  15.661  1.3243  0.7004 -1.2319
   29DOPE   H5Y 3703  -0.127  -0.662  15.755 -1.6927  1.9702  0.3501
   29DOPE   C36 3704  -0.066  -0.676  15.542  0.0897 -0.3911  0.2695
   29DOPE   H6X 3705   0.003  -0.762  15.558  1.5747  0.9763  1.5645
   29DOPE   H6Y 3706  -0.025  -0.613  15.461 -1.5255  1.1613  0.6005
   29DOPE   C37 3707  -0.208  -0.735  15.517  0.2989 -0.1605 -0.3238
   29DOPE   H7X 3708  -0.260  -0.783  15.603 -0.5026 -1.1855 -1.3528
   29DOPE   H7Y 3709  -0.276  -0.655  15.480 -1.6421 -1.6127 -0.0379
   29DOPE   C38 3710  -0.216  -0.850  15.404  0.8204  0.3652  0.3166
   29DOPE   H8X 3711  -0.315  -0.900  15.414  1.4670 -1.8173 -2.8904
   29DOPE   H8Y 3712  -0.136  -0.925  15.421 -0.8749 -1.3806  0.8914
   29DOPE   C39 3713  -0.209  -0.789  15.267  0.3480 -0.3531 -0.8443
   29DOPE   H9X 3714  -0.178  -0.683  15.263  0.0641 -0.2745 -1.0478
   29DOPE  C310 3715  -0.262  -0.841  15.153 -0.2410  0.3555  0.0150
   29DOPE  H10X 3716  -0.259  -0.801  15.051  1.5508 -1.2561 -0.6198
   29DOPE  C311 3717  -0.321  -0.972  15.150 -0.2512  0.6893  0.2333
   29DOPE  H11X 3718  -0.252  -1.038  15.092 -0.3709 -0.2348  1.1152
   29DOPE  H11Y 3719  -0.330  -1.021  15.249  1.5923  0.0988  0.1462
   29DOPE  C312 3720  -0.457  -0.977  15.070  0.0912 -0.8500 -0.7513
   29DOPE  H12X 3721  -0.528  -0.907  15.119  1.5567 -0.2174  0.5404
   29DOPE  H12Y 3722  -0.504  -1.077  15.079 -2.4940  0.3328 -0.2861
   29DOPE  C313 3723  -0.459  -0.937  14.923 -0.0001  0.4983  0.7566
   29DOPE  H13X 3724  -0.566  -0.940  14.896  0.1392  0.8028  0.1376
   29DOPE  H13Y 3725  -0.429  -0.831  14.909 -0.0900  0.3220 -1.1055
   29DOPE  C314 3726  -0.377  -1.026  14.819 -0.1941 -0.1815 -0.4572
   29DOPE  H14X 3727  -0.398  -1.132  14.843  0.0350  0.2429  1.9200
   29DOPE  H14Y 3728  -0.269  -1.014  14.841 -0.6029  0.4012  1.4589
   29DOPE  C315 3729  -0.416  -0.982  14.677 -0.4510 -0.4322 -0.9021
   29DOPE  H15X 3730  -0.381  -0.882  14.644 -0.8588 -0.7802 -2.4436
   29DOPE  H15Y 3731  -0.524  -0.971  14.655 -0.5215  1.6737  0.2566
   29DOPE  C316 3732  -0.361  -1.080  14.576 -0.3750  0.8011  0.2321
   29DOPE  H16X 3733  -0.282  -1.136  14.630  0.1747  0.3905 -0.9598
   29DOPE  H16Y 3734  -0.316  -1.024  14.491  0.4545 -0.7431 -0.3769
   29DOPE  C317 3735  -0.459  -1.177  14.521 -0.7310  0.3091  0.5737
   29DOPE  H17X 3736  -0.523  -1.225  14.598 -0.9576  0.5733  0.5513
   29DOPE  H17Y 3737  -0.522  -1.131  14.442  1.2907  0.9100 -0.7702
   29DOPE  C318 3738  -0.371  -1.281  14.438  0.3754  0.3574 -0.4097
   29DOPE  H18X 3739  -0.290  -1.315  14.506  0.4883  0.0613 -0.6866
   29DOPE  H18Y 3740  -0.432  -1.372  14.421  0.2473  0.5494 -0.9993
   29DOPE  H18Z 3741  -0.343  -1.242  14.338 -1.4350  0.0326 -1.0838
   30DOPE     N 3742   1.360   6.845  16.453  0.9276 -0.0827 -0.6558
   30DOPE   HN1 3743   1.280   6.908  16.473  0.5154 -0.9450  0.5137
   30DOPE   HN2 3744   1.427   6.856  16.531 -1.6268 -1.1036  1.8661
   30DOPE   HN3 3745   1.395   6.878  16.361 -1.7100  0.4633 -1.5495
   30DOPE   C12 3746   1.308   6.701  16.449  0.3807 -0.1984  0.3187
   30DOPE  H12A 3747   1.264   6.680  16.548 -2.1966  1.0018 -0.4715
   30DOPE  H12B 3748   1.388   6.629  16.425  0.8572  0.7270 -1.0000
   30DOPE   C11 3749   1.184   6.688  16.355 -0.3072 -0.1467 -0.0731
   30DOPE  H11A 3750   1.150   6.583  16.340 -0.1428 -0.3416  0.8165
   30DOPE  H11B 3751   1.217   6.730  16.258 -0.0130  1.3921  0.6610
   30DOPE     P 3752   0.979   6.729  16.509  0.1635 -0.4528 -0.1650
   30DOPE   O13 3753   1.030   6.771  16.642  0.3767 -0.1367 -0.2290
   30DOPE   O14 3754   0.960   6.585  16.489 -0.1430  0.0520 -0.3872
   30DOPE   O11 3755   0.844   6.803  16.470 -0.5825 -0.3343 -0.2893
   30DOPE   O12 3756   1.082   6.775  16.410 -0.5646 -0.4845 -0.0612
   30DOPE    C1 3757   0.852   6.942  16.449  0.3278  0.2816 -0.3360
   30DOPE    HA 3758   0.954   6.975  16.419  0.4882 -0.2397 -0.3632
   30DOPE    HB 3759   0.822   7.003  16.538 -0.2457  4.5227 -3.1244
   30DOPE    C2 3760   0.758   6.989  16.339 -0.4153 -0.2673 -0.0498
   30DOPE    HS 3761   0.656   6.948  16.354 -0.8160  0.7172 -0.0121
   30DOPE   O21 3762   0.808   6.940  16.214 -0.2793 -0.3163 -0.1116
   30DOPE   C21 3763   0.776   6.816  16.181 -0.0544  0.6518 -0.9668
   30DOPE   O22 3764   0.696   6.745  16.233  0.5904  0.6633 -0.4237
   30DOPE   C22 3765   0.851   6.786  16.052  0.5245 -0.6735  0.5531
   30DOPE   H2R 3766   0.921   6.703  16.072  0.3590 -0.5872  1.5756
   30DOPE   H2S 3767   0.911   6.875  16.023 -0.0472 -0.5456 -0.2909
   30DOPE    C3 3768   0.745   7.140  16.338 -0.0900  0.8310  0.0007
   30DOPE    HX 3769   0.843   7.192  16.338  1.2505 -1.5264  0.0167
   30DOPE    HY 3770   0.689   7.171  16.429 -3.1514 -0.9357 -1.1259
   30DOPE   O31 3771   0.658   7.177  16.231  0.2838  0.2763  0.4731
   30DOPE   C31 3772   0.717   7.239  16.133  0.7777 -0.5726 -0.3426
   30DOPE   O32 3773   0.838   7.257  16.111  0.0172  0.2007  0.4447
   30DOPE   C32 3774   0.601   7.295  16.041 -0.1373  0.5182 -0.0146
   30DOPE   H2X 3775   0.549   7.203  16.005  0.4886 -0.0810  0.5782
   30DOPE   H2Y 3776   0.527   7.340  16.110  0.7493 -1.2630  2.2628
   30DOPE   C23 3777   0.751   6.755  15.931 -0.3561  0.5066  0.5860
   30DOPE   H3R 3778   0.671   6.686  15.966 -0.7058  0.6701  0.1157
   30DOPE   H3S 3779   0.802   6.710  15.843 -0.0554  2.7102 -0.4368
   30DOPE   C24 3780   0.683   6.879  15.870 -0.3838 -0.4595  0.1384
   30DOPE   H4R 3781   0.751   6.960  15.834 -1.3544  0.8821  1.1860
   30DOPE   H4S 3782   0.618   6.926  15.947 -2.1105  0.1019 -1.5838
   30DOPE   C25 3783   0.584   6.831  15.759  0.5381 -0.5891 -0.5042
   30DOPE   H5R 3784   0.518   6.751  15.798 -0.7488  1.6872  2.3720
   30DOPE   H5S 3785   0.639   6.794  15.670 -0.2193 -0.6086 -0.9665
   30DOPE   C26 3786   0.490   6.954  15.727 -0.2769 -0.1405 -0.6047
   30DOPE   H6R 3787   0.475   7.019  15.815 -0.5230 -1.3756  0.2886
   30DOPE   H6S 3788   0.390   6.910  15.706 -1.3483  1.5653  0.6205
   30DOPE   C27 3789   0.530   7.025  15.593  0.2857 -0.0771 -0.1658
   30DOPE   H7R 3790   0.554   6.957  15.509 -1.2259  0.5340 -1.1472
   30DOPE   H7S 3791   0.626   7.077  15.613 -0.2743  0.5111  1.0889
   30DOPE   C28 3792   0.414   7.119  15.544 -0.1170 -0.0480 -0.0456
   30DOPE   H8R 3793   0.399   7.184  15.633 -1.8486 -2.0925  1.2750
   30DOPE   H8S 3794   0.323   7.061  15.514  0.9037 -0.2911 -2.9549
   30DOPE   C29 3795   0.452   7.210  15.427  0.1186  0.0577 -0.3074
   30DOPE   H9R 3796   0.495   7.306  15.457 -2.0882  1.2168 -0.6280
   30DOPE  C210 3797   0.412   7.207  15.304 -0.0767  0.5646 -0.2911
   30DOPE  H10R 3798   0.451   7.280  15.232  1.1008  0.7953  0.5551
   30DOPE  C211 3799   0.336   7.094  15.237  0.9586 -0.8974  0.8244
   30DOPE  H11R 3800   0.327   7.000  15.296  0.4926 -0.8216  0.8738
   30DOPE  H11S 3801   0.390   7.071  15.143 -2.4218  0.7737 -1.7258
   30DOPE  C212 3802   0.185   7.134  15.192  0.4185  0.4264 -0.5072
   30DOPE  H12R 3803   0.189   7.230  15.136 -0.2398  1.7959  1.6269
   30DOPE  H12S 3804   0.123   7.143  15.284 -0.3752 -3.0208 -0.5910
   30DOPE  C213 3805   0.127   7.023  15.104  0.6438  0.3638 -0.2113
   30DOPE  H13R 3806   0.099   6.958  15.190  0.5364  3.1937  2.0588
   30DOPE  H13S 3807   0.208   6.976  15.045  1.4014  0.2954  0.8487
   30DOPE  C214 3808   0.016   7.063  15.006 -0.5708 -0.0735  0.2387
   30DOPE  H14R 3809  -0.071   7.121  15.043 -0.7858  0.5560 -1.1613
   30DOPE  H14S 3810  -0.026   6.969  14.964 -0.3100 -0.1339  0.1081
   30DOPE  C215 3811   0.077   7.141  14.884  0.5840  0.9282 -0.2570
   30DOPE  H15R 3812   0.133   7.083  14.809  0.4691 -1.1530  1.1820
   30DOPE  H15S 3813   0.144   7.224  14.916  3.3714 -1.2409 -0.0914
   30DOPE  C216 3814  -0.042   7.207  14.811 -0.1593  0.3872  0.3815
   30DOPE  H16R 3815   0.014   7.254  14.727  1.4485  0.0265  1.2125
   30DOPE  H16S 3816  -0.088   7.291  14.865  0.2684  0.4937  0.5860
   30DOPE  C217 3817  -0.148   7.108  14.761  0.3072 -0.0498  0.9841
   30DOPE  H17R 3818  -0.175   7.063  14.859 -2.1127 -0.8788  0.0035
   30DOPE  H17S 3819  -0.119   7.016  14.706 -1.2079  0.6956 -1.1900
   30DOPE  C218 3820  -0.282   7.146  14.699 -0.3921  0.5993  0.3783
   30DOPE  H18R 3821  -0.268   7.175  14.592 -0.8577 -0.6815 -0.0512
   30DOPE  H18S 3822  -0.321   7.232  14.758 -0.1853 -0.6893  2.4812
   30DOPE  H18T 3823  -0.347   7.057  14.711 -0.5242  0.9558  2.7311
   30DOPE   C33 3824   0.654   7.373  15.925 -0.1414 -0.4062  0.1498
   30DOPE   H3X 3825   0.733   7.324  15.864 -1.3805  1.3275 -3.0654
   30DOPE   H3Y 3826   0.692   7.469  15.967 -0.8520  0.1542 -0.4630
   30DOPE   C34 3827   0.536   7.405  15.827 -0.1094 -0.2110 -0.2958
   30DOPE   H4X 3828   0.502   7.304  15.795  1.9445 -0.2247 -2.8842
   30DOPE   H4Y 3829   0.454   7.467  15.868 -0.3765  0.7006 -2.1107
   30DOPE   C35 3830   0.598   7.466  15.700 -0.1531 -0.6824  0.1235
   30DOPE   H5X 3831   0.644   7.380  15.647  1.4009  1.0920 -1.5367
   30DOPE   H5Y 3832   0.682   7.537  15.712 -0.2775 -0.3876 -0.6943
   30DOPE   C36 3833   0.489   7.539  15.610  0.0466  0.1393  0.2856
   30DOPE   H6X 3834   0.428   7.618  15.659  2.5505  1.1797  1.9508
   30DOPE   H6Y 3835   0.430   7.453  15.572 -0.8459 -0.0328  1.9854
   30DOPE   C37 3836   0.553   7.601  15.488 -0.6193 -0.3029  0.7254
   30DOPE   H7X 3837   0.615   7.688  15.518  1.2490 -0.7457 -1.6123
   30DOPE   H7Y 3838   0.623   7.530  15.441 -2.0984 -1.1484 -0.2712
   30DOPE   C38 3839   0.448   7.663  15.389 -1.0546 -0.3456  0.1651
   30DOPE   H8X 3840   0.402   7.760  15.418 -1.5084 -0.5634  0.1846
   30DOPE   H8Y 3841   0.362   7.593  15.388 -0.9930 -0.4253  0.4943
   30DOPE   C39 3842   0.494   7.671  15.239  0.2633 -0.5797 -0.4819
   30DOPE   H9X 3843   0.580   7.738  15.223  0.7893 -0.9509  0.6876
   30DOPE  C310 3844   0.429   7.615  15.134  0.2017 -0.0260  0.2505
   30DOPE  H10X 3845   0.477   7.636  15.037 -0.4930 -1.1783 -0.3577
   30DOPE  C311 3846   0.309   7.536  15.134  0.5035  0.7080  0.2248
   30DOPE  H11X 3847   0.342   7.443  15.083 -0.7029  0.6239 -0.4394
   30DOPE  H11Y 3848   0.271   7.504  15.233 -2.4066  1.4692 -0.5520
   30DOPE  C312 3849   0.186   7.602  15.064 -0.0251 -0.2039 -0.2321
   30DOPE  H12X 3850   0.170   7.710  15.081 -0.8131  0.0559 -2.2910
   30DOPE  H12Y 3851   0.100   7.555  15.116 -0.4817 -0.2156 -0.9774
   30DOPE  C313 3852   0.164   7.564  14.919 -0.3733 -0.1071 -0.5427
   30DOPE  H13X 3853   0.182   7.455  14.913  0.8715  0.0153  0.5864
   30DOPE  H13Y 3854   0.059   7.573  14.884 -0.2193 -2.6496 -1.9752
   30DOPE  C314 3855   0.259   7.620  14.810  0.4243  0.5155 -0.1452
   30DOPE  H14X 3856   0.360   7.620  14.857 -0.0847 -2.8163  1.3116
   30DOPE  H14Y 3857   0.237   7.728  14.798  2.6600  1.4518  2.9906
   30DOPE  C315 3858   0.267   7.546  14.674  0.0354 -0.5206  0.1867
   30DOPE  H15X 3859   0.277   7.436  14.687  0.1180 -0.6060 -0.5159
   30DOPE  H15Y 3860   0.359   7.583  14.622  1.4504  0.9004  3.4508
   30DOPE  C316 3861   0.140   7.552  14.592 -0.0420 -0.2737 -0.3802
   30DOPE  H16X 3862   0.129   7.656  14.553  0.2059 -0.2960 -0.5097
   30DOPE  H16Y 3863   0.055   7.543  14.663  1.9112 -1.5250  1.9052
   30DOPE  C317 3864   0.142   7.471  14.463 -0.1416 -0.1633  0.2617
   30DOPE  H17X 3865   0.245   7.472  14.421 -0.3577  0.0761 -0.2719
   30DOPE  H17Y 3866   0.111   7.369  14.496 -0.3851  0.7873  3.2535
   30DOPE  C318 3867   0.043   7.517  14.359 -0.3177 -0.3216 -0.1536
   30DOPE  H18X 3868  -0.062   7.527  14.394 -1.2437 -1.3271 -2.4419
   30DOPE  H18Y 3869   0.068   7.616  14.315 -2.3801  1.0691  1.6286
   30DOPE  H18Z 3870   0.039   7.444  14.275  0.4047  0.5267 -0.9613
   31DOPE     N 3871   2.329   2.577  11.912  0.6136 -0.7099 -0.2107
   31DOPE   HN1 3872   2.291   2.665  11.872  2.2115 -0.1969 -0.7143
   31DOPE   HN2 3873   2.403   2.544  11.847  0.5709 -0.5952 -0.3164
   31DOPE   HN3 3874   2.253   2.507  11.921  0.2155 -0.4032 -1.0863
   31DOPE   C12 3875   2.374   2.605  12.053  0.6337 -0.2828 -0.7590
   31DOPE  H12A 3876   2.446   2.689  12.055 -0.1541  0.4296 -1.4817
   31DOPE  H12B 3877   2.409   2.507  12.093  0.1983 -0.2834 -0.3692
   31DOPE   C11 3878   2.253   2.650  12.149 -0.1778  0.0930 -0.1479
   31DOPE  H11A 3879   2.294   2.658  12.252  1.1230  0.3680 -0.6645
   31DOPE  H11B 3880   2.175   2.572  12.137  1.4792 -1.4547 -1.4005
   31DOPE     P 3881   2.062   2.818  12.165  0.0374 -0.2424  0.3589
   31DOPE   O13 3882   1.976   2.700  12.199 -0.5981  0.5860 -0.0942
   31DOPE   O14 3883   2.007   2.906  12.058 -0.5148 -0.1214  0.2586
   31DOPE   O11 3884   2.103   2.908  12.294  0.0675  0.4910  0.3972
   31DOPE   O12 3885   2.200   2.775  12.108 -0.2276  0.4796 -0.4462
   31DOPE    C1 3886   2.218   2.982  12.291 -0.0247  0.5898  0.3296
   31DOPE    HA 3887   2.258   2.988  12.187  1.2830 -2.1473  0.5975
   31DOPE    HB 3888   2.297   2.929  12.347 -0.0228  2.3588  2.1318
   31DOPE    C2 3889   2.199   3.124  12.360 -0.4793 -0.4263  0.1846
   31DOPE    HS 3890   2.290   3.186  12.343 -0.8524  0.3243  0.8874
   31DOPE   O21 3891   2.177   3.100  12.499  0.1780  0.3775 -0.3426
   31DOPE   C21 3892   2.288   3.096  12.573  0.6353 -0.3357  0.6181
   31DOPE   O22 3893   2.396   3.107  12.528  0.0383 -0.3702 -0.1015
   31DOPE   C22 3894   2.243   3.087  12.722 -0.2770 -0.8057  0.1569
   31DOPE   H2R 3895   2.154   3.020  12.725  0.5131 -1.8546  2.3061
   31DOPE   H2S 3896   2.217   3.190  12.754  1.4624  0.6795 -2.7258
   31DOPE    C3 3897   2.080   3.207  12.299 -0.5439  0.0449  0.2994
   31DOPE    HX 3898   1.986   3.151  12.313  0.3701 -1.3881  0.9236
   31DOPE    HY 3899   2.096   3.222  12.190 -0.0504  1.9665  0.5965
   31DOPE   O31 3900   2.085   3.347  12.348  0.5253  0.5068 -0.1960
   31DOPE   C31 3901   2.024   3.378  12.456 -0.6968 -0.6508 -0.3009
   31DOPE   O32 3902   1.958   3.303  12.528  0.1645  0.5508 -0.4851
   31DOPE   C32 3903   2.058   3.525  12.499  0.2192 -0.2861 -0.5066
   31DOPE   H2X 3904   1.978   3.593  12.463  0.0025 -0.5278 -0.4889
   31DOPE   H2Y 3905   2.062   3.537  12.609 -1.0711  1.2759 -0.5846
   31DOPE   C23 3906   2.348   3.012  12.804  0.3233 -0.3336 -0.4630
   31DOPE   H3R 3907   2.441   3.069  12.826 -0.8165  1.5831 -0.4228
   31DOPE   H3S 3908   2.360   2.905  12.777 -0.5129 -0.8629  1.1235
   31DOPE   C24 3909   2.293   2.987  12.946 -0.0291 -0.0105  0.5257
   31DOPE   H4R 3910   2.205   2.919  12.949  0.3059 -0.4333  0.8326
   31DOPE   H4S 3911   2.255   3.083  12.987  0.9782  1.4221 -1.7561
   31DOPE   C25 3912   2.400   2.931  13.041 -0.9144 -0.2987  0.1772
   31DOPE   H5R 3913   2.494   2.991  13.033  0.4047 -2.2584  0.2385
   31DOPE   H5S 3914   2.425   2.830  13.003 -0.2229 -0.3275  0.6757
   31DOPE   C26 3915   2.355   2.940  13.189  0.1545  0.1777  0.2765
   31DOPE   H6R 3916   2.260   2.884  13.204 -1.0134  1.4576 -1.8421
   31DOPE   H6S 3917   2.339   3.043  13.225  0.4743  0.1481  0.5041
   31DOPE   C27 3918   2.465   2.888  13.279 -0.1710 -0.2183 -0.5366
   31DOPE   H7R 3919   2.548   2.960  13.290 -0.2182  0.2596 -2.8407
   31DOPE   H7S 3920   2.511   2.810  13.215  0.0285  1.7698 -2.9614
   31DOPE   C28 3921   2.422   2.843  13.421  0.5223  0.6517 -0.1511
   31DOPE   H8R 3922   2.323   2.792  13.426  0.4009  0.7281 -1.4143
   31DOPE   H8S 3923   2.418   2.938  13.478 -2.9150 -0.3394  1.5217
   31DOPE   C29 3924   2.533   2.757  13.471 -0.2822  0.6090 -0.9063
   31DOPE   H9R 3925   2.588   2.696  13.398  0.7416  0.5131 -0.0824
   31DOPE  C210 3926   2.581   2.748  13.598 -0.2427 -0.6054 -0.1532
   31DOPE  H10R 3927   2.677   2.695  13.612  0.6487  0.9112 -0.3239
   31DOPE  C211 3928   2.537   2.818  13.722 -0.2703 -0.3287  0.1296
   31DOPE  H11R 3929   2.434   2.858  13.712 -0.0050  0.5081  0.5693
   31DOPE  H11S 3930   2.605   2.903  13.743 -0.2238 -0.1643 -0.6663
   31DOPE  C212 3931   2.556   2.734  13.850 -0.4383 -0.0914  0.2266
   31DOPE  H12R 3932   2.529   2.786  13.944  2.5216  2.0171  0.0368
   31DOPE  H12S 3933   2.664   2.720  13.868 -0.3956 -0.0681 -0.0080
   31DOPE  C213 3934   2.488   2.594  13.847  0.1826 -0.1966 -0.1094
   31DOPE  H13R 3935   2.538   2.544  13.761  0.2793 -1.5013  0.6831
   31DOPE  H13S 3936   2.381   2.615  13.830  0.7968  2.3819 -1.4770
   31DOPE  C214 3937   2.508   2.512  13.974  0.0214 -0.1951  0.7872
   31DOPE  H14R 3938   2.465   2.412  13.955 -0.7974  0.0515  1.2875
   31DOPE  H14S 3939   2.461   2.552  14.067  3.1325 -1.9605  3.3352
   31DOPE  C215 3940   2.658   2.509  14.020  0.1715  0.8501  0.3303
   31DOPE  H15R 3941   2.694   2.613  14.039 -0.2043  0.8543  1.0680
   31DOPE  H15S 3942   2.722   2.467  13.940  1.2544 -1.1645  2.1629
   31DOPE  C216 3943   2.682   2.440  14.158  0.4103  0.0689  0.1583
   31DOPE  H16R 3944   2.612   2.489  14.229 -0.3279 -1.6046  0.6467
   31DOPE  H16S 3945   2.789   2.461  14.182  0.4423  4.2306 -2.5352
   31DOPE  C217 3946   2.656   2.289  14.153 -0.3513 -0.2236 -0.5592
   31DOPE  H17R 3947   2.735   2.234  14.099 -0.8700 -1.0201 -0.5216
   31DOPE  H17S 3948   2.560   2.268  14.102 -1.5726  0.0603  1.4875
   31DOPE  C218 3949   2.637   2.230  14.294 -0.2961  0.6898 -0.4154
   31DOPE  H18R 3950   2.733   2.228  14.350  0.1406 -1.2897 -1.1623
   31DOPE  H18S 3951   2.616   2.121  14.281  4.1135 -0.6705  1.7429
   31DOPE  H18T 3952   2.559   2.278  14.358 -0.7335  0.9956 -1.1712
   31DOPE   C33 3953   2.199   3.589  12.464  0.1507 -0.6869  0.0483
   31DOPE   H3X 3954   2.209   3.689  12.512  1.3281 -0.3893 -0.7733
   31DOPE   H3Y 3955   2.211   3.601  12.354  0.8228  0.7821  0.2610
   31DOPE   C34 3956   2.316   3.502  12.506  0.5286 -0.0913  0.2612
   31DOPE   H4X 3957   2.305   3.396  12.475 -0.6973  0.3445 -0.9084
   31DOPE   H4Y 3958   2.408   3.544  12.461 -1.1088  1.4213 -1.9110
   31DOPE   C35 3959   2.335   3.481  12.659 -0.5261 -0.2085  0.0568
   31DOPE   H5X 3960   2.264   3.407  12.701  1.1998 -1.3594  1.1038
   31DOPE   H5Y 3961   2.326   3.575  12.717 -1.2115 -1.2074  1.6552
   31DOPE   C36 3962   2.480   3.434  12.697 -0.0933 -0.1462  0.2699
   31DOPE   H6X 3963   2.559   3.511  12.684 -1.5730  1.1981 -1.2131
   31DOPE   H6Y 3964   2.501   3.347  12.631 -0.8220 -0.8437  0.9472
   31DOPE   C37 3965   2.492   3.374  12.834  0.4747  0.8810  0.2281
   31DOPE   H7X 3966   2.481   3.439  12.924 -0.6535  0.2429  0.5752
   31DOPE   H7Y 3967   2.406   3.303  12.843 -0.3515  2.0628  2.3531
   31DOPE   C38 3968   2.622   3.296  12.855 -0.5105 -0.5154  0.0501
   31DOPE   H8X 3969   2.637   3.212  12.783 -3.6184  1.3551 -3.1103
   31DOPE   H8Y 3970   2.597   3.248  12.952 -2.7295  1.6599  0.6501
   31DOPE   C39 3971   2.754   3.360  12.864  0.0876 -0.6152  0.4112
   31DOPE   H9X 3972   2.806   3.354  12.768 -2.1587  0.2199 -0.9312
   31DOPE  C310 3973   2.810   3.422  12.970  0.0855  0.7010 -0.5144
   31DOPE  H10X 3974   2.910   3.468  12.968  0.6181 -0.3526 -3.2704
   31DOPE  C311 3975   2.737   3.452  13.100  0.2396 -0.2286  0.5070
   31DOPE  H11X 3976   2.774   3.550  13.137  0.8696 -0.1679 -0.2534
   31DOPE  H11Y 3977   2.629   3.470  13.086 -0.0051 -0.5821  1.7936
   31DOPE  C312 3978   2.765   3.361  13.212  0.7727  0.7047 -0.2669
   31DOPE  H12X 3979   2.867   3.342  13.251  0.3403 -0.5375  0.3165
   31DOPE  H12Y 3980   2.726   3.261  13.183 -1.8903  1.5821 -0.0164
   31DOPE  C313 3981   2.685   3.405  13.340  0.3353 -0.0317 -0.1234
   31DOPE  H13X 3982   2.733   3.498  13.379 -0.2325  0.0342  0.4306
   31DOPE  H13Y 3983   2.580   3.420  13.309 -0.3627 -0.0583  2.0603
   31DOPE  C314 3984   2.683   3.300  13.446 -0.0086  0.3646 -0.3946
   31DOPE  H14X 3985   2.777   3.244  13.464 -0.8696 -1.0501 -0.1055
   31DOPE  H14Y 3986   2.601   3.233  13.412 -1.5982  2.5793 -1.1735
   31DOPE  C315 3987   2.648   3.359  13.584 -0.0897  0.1452 -0.2498
   31DOPE  H15X 3988   2.546   3.399  13.596  1.6472  4.9169  0.8234
   31DOPE  H15Y 3989   2.718   3.443  13.604 -0.2150  0.3852 -0.7862
   31DOPE  C316 3990   2.671   3.260  13.698 -0.2969  0.3911  0.1685
   31DOPE  H16X 3991   2.782   3.249  13.705 -0.1995  1.3333  0.2746
   31DOPE  H16Y 3992   2.621   3.162  13.686  1.0240 -0.5005  1.5165
   31DOPE  C317 3993   2.626   3.311  13.829  0.0980  0.0223  0.2578
   31DOPE  H17X 3994   2.657   3.417  13.842 -2.1081  0.6723  0.6590
   31DOPE  H17Y 3995   2.516   3.327  13.824  0.2650  0.7460 -1.9731
   31DOPE  C318 3996   2.676   3.222  13.944 -0.6394 -0.8583 -0.3323
   31DOPE  H18X 3997   2.616   3.129  13.931 -0.2674 -0.9592 -1.4943
   31DOPE  H18Y 3998   2.775   3.179  13.915 -1.0456 -1.1187 -1.3858
   31DOPE  H18Z 3999   2.673   3.270  14.044 -4.0446  3.8225 -2.3176
   32DOPE     N 4000   5.006   2.985  11.935 -0.0452 -0.2940  0.3338
   32DOPE   HN1 4001   5.027   2.991  12.036  2.3756  1.6858 -0.2021
   32DOPE   HN2 4002   4.912   3.028  11.924  0.8728  2.0282  1.0442
   32DOPE   HN3 4003   4.996   2.889  11.895  0.6245  0.2712 -1.2662
   32DOPE   C12 4004   5.109   3.072  11.869  0.2857  1.0694  0.6118
   32DOPE  H12A 4005   5.169   3.111  11.954  0.0973  2.1695  0.2563
   32DOPE  H12B 4006   5.056   3.150  11.812  0.4801 -0.1767 -1.3762
   32DOPE   C11 4007   5.193   2.983  11.776 -0.0006  0.4373  0.3087
   32DOPE  H11A 4008   5.243   3.054  11.707 -0.1726 -0.8128 -1.1491
   32DOPE  H11B 4009   5.129   2.904  11.731  1.5164  0.5115 -2.1528
   32DOPE     P 4010   5.422   2.856  11.801  0.0215 -0.0293  0.1117
   32DOPE   O13 4011   5.495   2.961  11.734  0.4327  0.7977 -0.1508
   32DOPE   O14 4012   5.390   2.733  11.725  0.1511  0.2890  0.2509
   32DOPE   O11 4013   5.504   2.809  11.934 -0.3649  0.3290  0.1743
   32DOPE   O12 4014   5.288   2.917  11.856 -0.1447  0.5661 -0.7283
   32DOPE    C1 4015   5.439   2.784  12.065 -0.4039  0.0023  0.5855
   32DOPE    HA 4016   5.513   2.740  12.135 -1.4503 -1.4638  0.7949
   32DOPE    HB 4017   5.343   2.728  12.064  0.1226 -0.9246  0.8083
   32DOPE    C2 4018   5.391   2.907  12.146 -0.7805  0.1301  0.5402
   32DOPE    HS 4019   5.332   2.972  12.078 -1.4898 -1.9649 -0.9533
   32DOPE   O21 4020   5.512   2.968  12.207  0.2738 -0.0367  0.0986
   32DOPE   C21 4021   5.506   3.094  12.221  0.6231 -0.7395 -0.4904
   32DOPE   O22 4022   5.403   3.165  12.212  0.2699  0.5795 -0.0141
   32DOPE   C22 4023   5.634   3.153  12.291  0.4497  0.0908 -0.3567
   32DOPE   H2R 4024   5.706   3.186  12.213  1.8024 -1.8142  0.0316
   32DOPE   H2S 4025   5.678   3.076  12.358 -1.2651  1.7459  2.8922
   32DOPE    C3 4026   5.298   2.855  12.260 -0.3011 -0.0625  0.0961
   32DOPE    HX 4027   5.366   2.798  12.326 -2.4293 -0.3310  2.1815
   32DOPE    HY 4028   5.220   2.782  12.229 -0.3253  0.4336 -1.0981
   32DOPE   O31 4029   5.245   2.959  12.346 -0.7396 -0.1188 -0.0549
   32DOPE   C31 4030   5.139   3.019  12.297  0.1774 -0.5454 -0.0225
   32DOPE   O32 4031   5.095   2.997  12.185  0.4625 -0.4177  0.4597
   32DOPE   C32 4032   5.073   3.115  12.401 -0.1176 -0.2665  0.4487
   32DOPE   H2X 4033   5.120   3.216  12.398  2.8095 -1.5523 -0.1978
   32DOPE   H2Y 4034   4.967   3.119  12.368 -0.0937  0.1649  0.4187
   32DOPE   C23 4035   5.609   3.277  12.388 -0.6619 -0.1329  0.1588
   32DOPE   H3R 4036   5.567   3.358  12.325 -0.3836  0.1076  0.2807
   32DOPE   H3S 4037   5.706   3.319  12.424 -1.5092  1.3927  0.7752
   32DOPE   C24 4038   5.523   3.250  12.509  0.5825 -0.3397 -0.4117
   32DOPE   H4R 4039   5.580   3.174  12.566  0.2850 -1.1117 -1.1400
   32DOPE   H4S 4040   5.428   3.208  12.473  0.5578 -1.9849  1.3981
   32DOPE   C25 4041   5.509   3.380  12.595  0.1721  0.1066  0.1782
   32DOPE   H5R 4042   5.430   3.444  12.550  1.3731  1.4530 -0.1165
   32DOPE   H5S 4043   5.608   3.431  12.603  1.6409 -2.8492  2.8824
   32DOPE   C26 4044   5.469   3.339  12.734  0.0093  0.3354 -0.0524
   32DOPE   H6R 4045   5.538   3.264  12.779 -0.4500 -0.4968 -0.7101
   32DOPE   H6S 4046   5.379   3.273  12.734 -0.8977  1.5282  0.8951
   32DOPE   C27 4047   5.448   3.454  12.829  0.0584 -0.3659 -0.0903
   32DOPE   H7R 4048   5.392   3.534  12.777  0.1961  0.9159  1.6377
   32DOPE   H7S 4049   5.547   3.498  12.857  0.2813 -0.7861 -0.2102
   32DOPE   C28 4050   5.367   3.421  12.960 -0.2883  0.2563  0.4326
   32DOPE   H8R 4051   5.354   3.521  13.006 -0.4901  1.6724 -2.4997
   32DOPE   H8S 4052   5.425   3.357  13.030  1.6411 -0.7503 -1.9399
   32DOPE   C29 4053   5.229   3.365  12.920  0.3738 -0.2423 -0.1409
   32DOPE   H9R 4054   5.192   3.405  12.824 -0.0766  1.6626  0.7803
   32DOPE  C210 4055   5.157   3.278  12.988 -0.0895  0.0936 -0.0855
   32DOPE  H10R 4056   5.060   3.251  12.942  0.9238 -0.3355 -2.0617
   32DOPE  C211 4057   5.186   3.196  13.110 -0.0750  0.0661  0.3672
   32DOPE  H11R 4058   5.292   3.209  13.142 -0.1400 -0.6796  0.9105
   32DOPE  H11S 4059   5.189   3.090  13.078  2.9034  0.2623 -0.2533
   32DOPE  C212 4060   5.092   3.236  13.229 -0.2253 -0.9829 -0.5466
   32DOPE  H12R 4061   4.983   3.225  13.212 -0.2058 -0.5291 -0.9705
   32DOPE  H12S 4062   5.111   3.341  13.260 -2.0031 -0.8616  0.2149
   32DOPE  C213 4063   5.126   3.143  13.348 -0.1908  0.1379  0.4748
   32DOPE  H13R 4064   5.233   3.147  13.378 -0.7563  0.6074  2.6137
   32DOPE  H13S 4065   5.107   3.039  13.313 -3.3122 -0.0007  2.1780
   32DOPE  C214 4066   5.036   3.170  13.469 -0.3687  0.0849 -0.2917
   32DOPE  H14R 4067   4.936   3.126  13.448 -1.1782  0.9709  1.4365
   32DOPE  H14S 4068   5.024   3.281  13.476  0.0956  0.2818 -2.1612
   32DOPE  C215 4069   5.088   3.123  13.603  0.3320 -0.1165 -0.1362
   32DOPE  H15R 4070   5.199   3.135  13.597  0.4689 -1.9495 -2.5358
   32DOPE  H15S 4071   5.066   3.015  13.609 -0.5030  0.0124 -0.7500
   32DOPE  C216 4072   5.016   3.179  13.720  0.6925  0.2294  0.6241
   32DOPE  H16R 4073   4.987   3.284  13.696  2.4666  0.8016  0.8482
   32DOPE  H16S 4074   5.089   3.169  13.803  1.0264  0.6188  0.3811
   32DOPE  C217 4075   4.891   3.096  13.767  0.0766  0.2533 -0.5103
   32DOPE  H17R 4076   4.920   2.989  13.761 -0.2077  0.2645 -2.5148
   32DOPE  H17S 4077   4.810   3.098  13.691  0.1510  2.2706 -0.5974
   32DOPE  C218 4078   4.838   3.140  13.907  0.7930 -0.1418 -0.0206
   32DOPE  H18R 4079   4.838   3.251  13.914  2.8206 -0.1936  1.6037
   32DOPE  H18S 4080   4.907   3.106  13.986 -0.7152 -3.1116  0.1619
   32DOPE  H18T 4081   4.733   3.108  13.927  1.1531  0.1525  2.6196
   32DOPE   C33 4082   5.067   3.062  12.556  0.8350 -0.9347 -0.2682
   32DOPE   H3X 4083   5.020   3.144  12.614  1.8544 -1.0951  0.8148
   32DOPE   H3Y 4084   5.169   3.067  12.600 -0.2519  2.0189  2.3004
   32DOPE   C34 4085   4.993   2.925  12.570  0.0547 -0.4170 -0.4846
   32DOPE   H4X 4086   4.885   2.942  12.550 -0.1573 -0.1946  0.7550
   32DOPE   H4Y 4087   5.027   2.846  12.499  0.3827 -2.3977  1.7596
   32DOPE   C35 4088   5.011   2.875  12.714  0.1649  0.0986 -0.4112
   32DOPE   H5X 4089   5.112   2.904  12.752 -0.3025  1.5720 -0.2441
   32DOPE   H5Y 4090   5.004   2.764  12.717 -0.0625  0.1063 -0.6600
   32DOPE   C36 4091   4.908   2.926  12.819 -0.2341  0.3790 -0.5691
   32DOPE   H6X 4092   4.809   2.886  12.787 -0.8567  1.5368 -0.1662
   32DOPE   H6Y 4093   4.904   3.037  12.813  1.2943  0.4890 -0.0233
   32DOPE   C37 4094   4.925   2.867  12.957  0.7606 -0.2190  0.1101
   32DOPE   H7X 4095   4.919   2.756  12.962  1.1292 -0.3264 -1.4076
   32DOPE   H7Y 4096   5.029   2.897  12.980  0.1593  1.6140  0.5501
   32DOPE   C38 4097   4.822   2.934  13.058  0.0765  0.0769  0.1810
   32DOPE   H8X 4098   4.828   3.045  13.049 -2.2177  0.1382 -1.3518
   32DOPE   H8Y 4099   4.856   2.928  13.164 -0.5001  2.3120  0.5436
   32DOPE   C39 4100   4.682   2.878  13.058 -0.1447 -0.0588  1.1575
   32DOPE   H9X 4101   4.667   2.769  13.045 -2.6776  0.4523 -1.2537
   32DOPE  C310 4102   4.568   2.952  13.054 -0.2101 -0.4823  0.0527
   32DOPE  H10X 4103   4.468   2.904  13.058  0.5798 -2.3993 -1.5771
   32DOPE  C311 4104   4.564   3.106  13.070 -0.3685  0.3679 -0.1468
   32DOPE  H11X 4105   4.610   3.126  13.169 -0.0104 -0.8150 -0.0521
   32DOPE  H11Y 4106   4.634   3.153  12.998  1.4545  1.3145  2.1010
   32DOPE  C312 4107   4.431   3.173  13.057  0.2943 -0.5818  0.4086
   32DOPE  H12X 4108   4.442   3.282  13.076 -0.0543 -0.4988  0.1424
   32DOPE  H12Y 4109   4.361   3.132  13.133 -0.5999 -1.4627 -0.8545
   32DOPE  C313 4110   4.356   3.149  12.920 -0.9004 -0.1729  0.7610
   32DOPE  H13X 4111   4.420   3.194  12.841 -2.9941  0.5292 -0.6338
   32DOPE  H13Y 4112   4.346   3.044  12.883  0.5139  0.4140 -1.4790
   32DOPE  C314 4113   4.211   3.215  12.923 -0.0221 -0.5692 -0.1069
   32DOPE  H14X 4114   4.202   3.323  12.947  0.1826 -0.7644  0.8734
   32DOPE  H14Y 4115   4.167   3.177  13.017  0.7383 -1.7099 -0.1929
   32DOPE  C315 4116   4.122   3.176  12.808  0.3778  0.4836  0.1160
   32DOPE  H15X 4117   4.018   3.202  12.836  0.6003  0.7027  0.7714
   32DOPE  H15Y 4118   4.139   3.066  12.803  0.5503  0.5279 -0.2915
   32DOPE  C316 4119   4.158   3.237  12.674 -0.7693  0.2385  0.7211
   32DOPE  H16X 4120   4.258   3.209  12.637 -1.3546 -2.4352  0.9913
   32DOPE  H16Y 4121   4.162   3.348  12.689 -0.1027  0.2608  0.3994
   32DOPE  C317 4122   4.043   3.226  12.575 -0.7831  0.0191 -0.4995
   32DOPE  H17X 4123   4.029   3.121  12.542 -1.2760  0.0240 -0.3242
   32DOPE  H17Y 4124   3.945   3.246  12.624  0.3116 -2.4242  3.0690
   32DOPE  C318 4125   4.068   3.330  12.460  0.2090  0.0366 -0.0664
   32DOPE  H18X 4126   4.099   3.429  12.498 -0.2423  0.0670  0.2389
   32DOPE  H18Y 4127   4.143   3.290  12.389  0.8444  0.7234  0.2164
   32DOPE  H18Z 4128   3.983   3.334  12.388  0.3225  0.4071 -0.1789
   33DOPE     N 4129   3.291   2.740  12.151 -0.1600  0.0246 -0.2825
   33DOPE   HN1 4130   3.268   2.682  12.234  0.6915 -0.7040 -0.5398
   33DOPE   HN2 4131   3.373   2.796  12.182 -1.0128  0.4392  1.2991
   33DOPE   HN3 4132   3.218   2.814  12.152 -1.4519 -1.1772  1.5677
   33DOPE   C12 4133   3.304   2.661  12.021 -0.1366  0.1986 -0.3911
   33DOPE  H12A 4134   3.303   2.727  11.932  2.2288 -1.9900 -2.1976
   33DOPE  H12B 4135   3.223   2.588  11.998  0.4467 -0.2664 -0.9836
   33DOPE   C11 4136   3.439   2.584  12.033 -0.6971 -0.2457  0.1029
   33DOPE  H11A 4137   3.524   2.646  12.069 -0.0773 -2.0822  1.9857
   33DOPE  H11B 4138   3.458   2.547  11.930  0.1192 -2.2236  0.9133
   33DOPE     P 4139   3.536   2.385  12.171  0.0560 -0.0950  0.0730
   33DOPE   O13 4140   3.624   2.375  12.053 -0.4839  0.3262  0.4946
   33DOPE   O14 4141   3.473   2.263  12.224  0.8397  0.2464 -0.0380
   33DOPE   O11 4142   3.612   2.462  12.290  0.4416 -0.4176 -0.0971
   33DOPE   O12 4143   3.416   2.481  12.129  0.1722 -0.6586  0.4593
   33DOPE    C1 4144   3.565   2.514  12.417 -0.0128  0.5986 -0.2350
   33DOPE    HA 4145   3.505   2.437  12.470  0.0414  0.7825  0.0979
   33DOPE    HB 4146   3.492   2.598  12.415  0.8639  1.3777 -0.5142
   33DOPE    C2 4147   3.680   2.562  12.507  0.0803 -0.8726 -0.3055
   33DOPE    HS 4148   3.739   2.638  12.451  0.6392 -1.2300 -0.2104
   33DOPE   O21 4149   3.764   2.449  12.538 -0.2068 -0.3134 -0.1496
   33DOPE   C21 4150   3.877   2.484  12.594  0.5150  0.8081  0.1907
   33DOPE   O22 4151   3.919   2.595  12.618  0.4008  0.2172  0.0238
   33DOPE   C22 4152   3.954   2.347  12.620  0.0277  0.2012  0.3732
   33DOPE   H2R 4153   4.064   2.363  12.629 -0.1353  2.5386 -1.0896
   33DOPE   H2S 4154   3.933   2.288  12.528  3.6693  0.5662 -0.8678
   33DOPE    C3 4155   3.618   2.640  12.631 -0.0214  0.4624 -0.9509
   33DOPE    HX 4156   3.581   2.730  12.577 -2.6200 -0.3598 -0.6612
   33DOPE    HY 4157   3.695   2.677  12.703 -0.2794  2.3377 -1.5808
   33DOPE   O31 4158   3.513   2.577  12.707 -0.0317  0.4937 -0.0793
   33DOPE   C31 4159   3.399   2.647  12.720  0.3168 -0.1044 -0.2653
   33DOPE   O32 4160   3.384   2.761  12.679  0.6602  0.3082 -0.3148
   33DOPE   C32 4161   3.298   2.559  12.782  0.4664  0.2906  0.6317
   33DOPE   H2X 4162   3.239   2.512  12.701  0.4666  1.2084  0.0844
   33DOPE   H2Y 4163   3.348   2.473  12.831 -1.0165 -0.0406  1.6467
   33DOPE   C23 4164   3.903   2.270  12.752  0.0981 -0.4758  0.1205
   33DOPE   H3R 4165   3.986   2.197  12.765  1.4290  1.2133  1.5768
   33DOPE   H3S 4166   3.801   2.229  12.736  0.3195 -0.6021 -1.0395
   33DOPE   C24 4167   3.901   2.360  12.884  0.1180  0.1292 -0.2131
   33DOPE   H4R 4168   3.988   2.427  12.905  0.2482  0.0287 -0.4401
   33DOPE   H4S 4169   3.916   2.280  12.959 -1.2933 -1.2602 -1.3546
   33DOPE   C25 4170   3.766   2.423  12.928 -0.0133  0.4615  0.6524
   33DOPE   H5R 4171   3.683   2.366  12.882 -0.8233  1.4854  0.8045
   33DOPE   H5S 4172   3.753   2.525  12.886 -0.6117  0.4497  0.8080
   33DOPE   C26 4173   3.740   2.406  13.079  0.6672 -0.1225  0.4939
   33DOPE   H6R 4174   3.818   2.451  13.143 -0.0838  0.9087  0.6940
   33DOPE   H6S 4175   3.735   2.299  13.109 -1.5596 -0.3911 -0.6137
   33DOPE   C27 4176   3.593   2.457  13.114 -0.2885 -0.0629  0.7958
   33DOPE   H7R 4177   3.506   2.396  13.085  0.3613 -1.2582  1.2809
   33DOPE   H7S 4178   3.586   2.544  13.045 -0.6632 -0.7496 -0.0575
   33DOPE   C28 4179   3.590   2.499  13.262 -0.0884 -0.3433 -0.4273
   33DOPE   H8R 4180   3.671   2.572  13.286  0.3403 -1.2294  0.9707
   33DOPE   H8S 4181   3.616   2.409  13.322  2.4954  2.5682  3.3965
   33DOPE   C29 4182   3.456   2.563  13.308 -0.2231 -0.4302 -0.3925
   33DOPE   H9R 4183   3.368   2.512  13.266 -0.7768 -1.6390  2.0250
   33DOPE  C210 4184   3.436   2.684  13.368 -0.0945  0.4786 -0.5318
   33DOPE  H10R 4185   3.334   2.708  13.404  0.7510  1.8427  1.0907
   33DOPE  C211 4186   3.530   2.790  13.402 -0.7257 -0.0687 -0.1413
   33DOPE  H11R 4187   3.633   2.752  13.385 -0.9580 -1.7286  1.7334
   33DOPE  H11S 4188   3.524   2.811  13.511 -0.8381  0.0928 -0.1785
   33DOPE  C212 4189   3.515   2.915  13.321  0.0761  0.0768  1.2118
   33DOPE  H12R 4190   3.524   2.901  13.212  1.2697 -1.2160  1.4424
   33DOPE  H12S 4191   3.596   2.984  13.355  0.6304  0.7898 -1.3955
   33DOPE  C213 4192   3.382   2.985  13.352  0.1415  0.0705  0.7565
   33DOPE  H13R 4193   3.372   2.992  13.462 -2.1578  0.5491  0.5713
   33DOPE  H13S 4194   3.295   2.929  13.310  2.0239 -1.3484 -1.5263
   33DOPE  C214 4195   3.372   3.131  13.310  0.3224  0.1461 -0.6063
   33DOPE  H14R 4196   3.394   3.133  13.201 -1.2527 -1.6937 -1.0146
   33DOPE  H14S 4197   3.456   3.176  13.367 -1.5315 -0.9450  3.3390
   33DOPE  C215 4198   3.246   3.209  13.337 -0.0120 -0.3282  0.2150
   33DOPE  H15R 4199   3.187   3.195  13.430 -0.2124  1.3919  0.3844
   33DOPE  H15S 4200   3.184   3.193  13.246 -0.3461 -0.1357  0.4056
   33DOPE  C216 4201   3.286   3.360  13.332 -0.1576 -0.5168  0.5293
   33DOPE  H16R 4202   3.338   3.369  13.234  1.4537  3.7319  1.5602
   33DOPE  H16S 4203   3.351   3.392  13.416 -0.1489  0.6302  0.1056
   33DOPE  C217 4204   3.162   3.455  13.319 -0.0489  0.9599 -0.3176
   33DOPE  H17R 4205   3.191   3.529  13.396  2.2094  0.0642 -0.2300
   33DOPE  H17S 4206   3.075   3.404  13.366 -0.2822  1.2580 -0.4175
   33DOPE  C218 4207   3.119   3.508  13.186 -0.5403  0.9578  0.4099
   33DOPE  H18R 4208   3.028   3.571  13.187 -1.2794 -0.0139 -1.1767
   33DOPE  H18S 4209   3.082   3.420  13.129  2.4949 -0.5124  0.4989
   33DOPE  H18T 4210   3.202   3.566  13.142 -1.2900  1.1549 -0.8002
   33DOPE   C33 4211   3.211   2.643  12.880  0.3333 -0.1427  0.1655
   33DOPE   H3X 4212   3.115   2.588  12.889  1.9485 -3.4433 -1.1012
   33DOPE   H3Y 4213   3.195   2.745  12.838 -0.6168 -0.3393  0.0173
   33DOPE   C34 4214   3.272   2.643  13.015 -0.2533 -1.1119  0.1594
   33DOPE   H4X 4215   3.302   2.543  13.052 -1.6829 -1.3077  0.8635
   33DOPE   H4Y 4216   3.365   2.703  13.019 -0.2333 -1.0502 -0.9357
   33DOPE   C35 4217   3.168   2.683  13.129  0.2092  0.3785  0.7699
   33DOPE   H5X 4218   3.115   2.773  13.092  1.6253  0.6017 -0.8859
   33DOPE   H5Y 4219   3.218   2.714  13.223  0.1812  0.0547  0.8933
   33DOPE   C36 4220   3.063   2.581  13.163  0.5605 -0.1884  0.5653
   33DOPE   H6X 4221   3.108   2.484  13.132 -2.2281 -1.1869 -0.6467
   33DOPE   H6Y 4222   2.975   2.585  13.096  0.3014 -0.5996  0.8759
   33DOPE   C37 4223   3.026   2.577  13.305 -0.4089 -0.6552 -0.1249
   33DOPE   H7X 4224   3.121   2.569  13.362 -0.2421  0.6343 -0.2053
   33DOPE   H7Y 4225   2.986   2.678  13.329  1.7319  0.6626 -1.7309
   33DOPE   C38 4226   2.934   2.464  13.337  0.2786 -0.5452  0.2525
   33DOPE   H8X 4227   2.969   2.368  13.293  1.4012  0.6677 -1.6320
   33DOPE   H8Y 4228   2.847   2.478  13.270  1.2616 -2.1566 -1.4665
   33DOPE   C39 4229   2.887   2.455  13.480 -0.2587 -0.1878 -0.0996
   33DOPE   H9X 4230   2.970   2.493  13.542  0.0526  1.1536 -1.2792
   33DOPE  C310 4231   2.774   2.412  13.532 -0.4654 -0.3145 -0.2594
   33DOPE  H10X 4232   2.769   2.420  13.642 -0.4523  2.6515 -0.3906
   33DOPE  C311 4233   2.649   2.351  13.466  0.6487 -0.4642  0.3257
   33DOPE  H11X 4234   2.563   2.413  13.499  1.5633 -0.1168  2.1853
   33DOPE  H11Y 4235   2.656   2.363  13.356  2.5295  1.7582  0.6169
   33DOPE  C312 4236   2.624   2.202  13.491  0.3077  0.1361 -0.1039
   33DOPE  H12X 4237   2.714   2.145  13.461  1.1761  1.2994  0.1984
   33DOPE  H12Y 4238   2.542   2.170  13.423 -1.8048  3.3099  0.7526
   33DOPE  C313 4239   2.591   2.165  13.631 -0.7836  0.6254 -0.4508
   33DOPE  H13X 4240   2.590   2.055  13.647  0.0423  0.9666  2.5255
   33DOPE  H13Y 4241   2.678   2.201  13.690  0.7364 -1.9430 -1.0084
   33DOPE  C314 4242   2.458   2.217  13.680  0.4060 -0.5103  0.1677
   33DOPE  H14X 4243   2.408   2.215  13.581  3.4452 -2.6222 -1.4964
   33DOPE  H14Y 4244   2.458   2.320  13.722 -0.0973 -0.7269  0.7030
   33DOPE  C315 4245   2.388   2.118  13.779 -0.5951 -0.2688  0.1802
   33DOPE  H15X 4246   2.439   2.123  13.878  0.8868 -2.5704 -0.3956
   33DOPE  H15Y 4247   2.415   2.012  13.759  3.0886  0.7867 -1.2043
   33DOPE  C316 4248   2.245   2.147  13.798  0.3933 -0.3032 -0.5671
   33DOPE  H16X 4249   2.190   2.149  13.701  0.3319 -3.3114 -0.6642
   33DOPE  H16Y 4250   2.222   2.242  13.851 -2.4177 -0.8882 -0.5769
   33DOPE  C317 4251   2.151   2.049  13.871  0.1025 -0.1725  0.5128
   33DOPE  H17X 4252   2.184   2.019  13.973  1.1471  0.2782  0.3238
   33DOPE  H17Y 4253   2.051   2.096  13.878  0.7274  1.3737 -0.3277
   33DOPE  C318 4254   2.119   1.915  13.799 -0.0198 -0.2545  0.6119
   33DOPE  H18X 4255   2.090   1.924  13.692 -1.3731  1.1555  1.0712
   33DOPE  H18Y 4256   2.208   1.849  13.801  1.9695  2.1211 -2.0359
   33DOPE  H18Z 4257   2.051   1.849  13.857  2.4808 -2.6719  0.9737
   34DOPE     N 4258   2.555   3.843  12.207 -0.0608 -0.1522 -0.3262
   34DOPE   HN1 4259   2.605   3.934  12.201 -0.2345  0.0442  0.8669
   34DOPE   HN2 4260   2.608   3.784  12.275 -1.1522 -1.1917 -0.3361
   34DOPE   HN3 4261   2.556   3.792  12.117  2.2173 -0.7905 -0.0051
   34DOPE   C12 4262   2.420   3.857  12.270  0.5871 -0.7497 -0.3108
   34DOPE  H12A 4263   2.426   3.847  12.380  1.2909 -2.3246 -0.4706
   34DOPE  H12B 4264   2.365   3.770  12.229 -0.5412 -0.0318 -0.3688
   34DOPE   C11 4265   2.349   3.995  12.232  0.1049 -0.4682  0.1280
   34DOPE  H11A 4266   2.239   3.988  12.248  0.1013  1.0522  0.9595
   34DOPE  H11B 4267   2.342   4.004  12.122 -1.7669 -0.3995  0.2147
   34DOPE     P 4268   2.522   4.199  12.251  0.4168  0.2292  0.0475
   34DOPE   O13 4269   2.486   4.281  12.136 -0.5091  0.5308 -0.8968
   34DOPE   O14 4270   2.631   4.106  12.216 -0.3770 -0.1613 -0.0053
   34DOPE   O11 4271   2.551   4.286  12.380 -0.0720  0.0994  0.4139
   34DOPE   O12 4272   2.395   4.116  12.294 -0.4072  0.1617  0.0550
   34DOPE    C1 4273   2.449   4.376  12.431  0.1189 -0.7798  1.0717
   34DOPE    HA 4274   2.354   4.383  12.374  0.0458 -1.1808  1.1383
   34DOPE    HB 4275   2.496   4.476  12.427  0.6598 -1.0548 -2.3540
   34DOPE    C2 4276   2.398   4.342  12.569  0.2239 -0.9759 -0.5809
   34DOPE    HS 4277   2.325   4.424  12.588 -1.2251 -0.8288 -5.4240
   34DOPE   O21 4278   2.503   4.335  12.669  0.1568 -0.1950  0.1769
   34DOPE   C21 4279   2.553   4.454  12.710 -0.6871  0.1452  0.3623
   34DOPE   O22 4280   2.528   4.558  12.654 -0.2465  0.3276  0.4846
   34DOPE   C22 4281   2.642   4.434  12.836  0.3285  0.1969  0.2947
   34DOPE   H2R 4282   2.744   4.414  12.797  1.1558  0.4038  2.2200
   34DOPE   H2S 4283   2.600   4.346  12.889 -1.2281  0.1250 -1.0022
   34DOPE    C3 4284   2.312   4.211  12.569 -0.0865 -0.5991  0.5406
   34DOPE    HX 4285   2.385   4.134  12.536  1.6424  1.4860 -0.7043
   34DOPE    HY 4286   2.243   4.217  12.482  1.8835 -3.1424 -1.3355
   34DOPE   O31 4287   2.260   4.178  12.702 -0.5336  0.1582  0.4531
   34DOPE   C31 4288   2.177   4.070  12.694  0.3368  0.3282 -0.0291
   34DOPE   O32 4289   2.156   4.013  12.592 -0.5421 -0.0840  0.1016
   34DOPE   C32 4290   2.116   4.049  12.828 -0.1876  0.0177 -0.3150
   34DOPE   H2X 4291   2.191   4.007  12.899 -0.9424  0.2494  0.6284
   34DOPE   H2Y 4292   2.093   4.148  12.873 -1.8481 -0.3460 -0.2970
   34DOPE   C23 4293   2.645   4.554  12.919 -0.1220  0.1805 -0.2050
   34DOPE   H3R 4294   2.545   4.553  12.967 -0.8754 -3.0485 -1.5261
   34DOPE   H3S 4295   2.669   4.648  12.866 -0.3709 -1.1864 -2.9633
   34DOPE   C24 4296   2.755   4.543  13.028 -0.2968  0.2786  0.0256
   34DOPE   H4R 4297   2.780   4.646  13.061 -0.1873  0.5523 -0.8784
   34DOPE   H4S 4298   2.851   4.503  12.988 -1.7703 -1.0191 -2.4520
   34DOPE   C25 4299   2.722   4.442  13.147  0.0145 -0.8083 -0.5292
   34DOPE   H5R 4300   2.684   4.346  13.107  0.8314 -1.1548 -0.5038
   34DOPE   H5S 4301   2.639   4.489  13.204 -0.4413  1.6812 -3.0387
   34DOPE   C26 4302   2.838   4.434  13.248  0.1102 -0.2763 -0.2318
   34DOPE   H6R 4303   2.846   4.539  13.284 -2.1718  0.5729 -1.9303
   34DOPE   H6S 4304   2.926   4.390  13.196 -0.9740 -1.2101 -1.3540
   34DOPE   C27 4305   2.805   4.355  13.375  0.3980 -0.5663 -0.6383
   34DOPE   H7R 4306   2.735   4.272  13.349 -1.7757  0.2161  2.2686
   34DOPE   H7S 4307   2.746   4.409  13.452 -0.0049  0.5078 -1.6670
   34DOPE   C28 4308   2.931   4.292  13.442  0.1271 -0.6624 -0.2274
   34DOPE   H8R 4309   2.994   4.375  13.481  1.6472 -1.6833 -0.4000
   34DOPE   H8S 4310   2.998   4.245  13.366  0.4673  1.5119 -1.3339
   34DOPE   C29 4311   2.896   4.197  13.544  0.3471  0.1776 -0.8361
   34DOPE   H9R 4312   2.933   4.097  13.517  1.7377  0.2941  0.4565
   34DOPE  C210 4313   2.866   4.229  13.671  0.2287  0.3103  0.5267
   34DOPE  H10R 4314   2.833   4.145  13.735  0.5719 -1.1123 -1.0738
   34DOPE  C211 4315   2.846   4.364  13.730  0.1994 -0.0775 -0.5214
   34DOPE  H11R 4316   2.748   4.407  13.699  1.0378  0.4610 -2.6320
   34DOPE  H11S 4317   2.918   4.435  13.685  3.0996 -1.0101  2.2929
   34DOPE  C212 4318   2.846   4.348  13.882 -0.5158  0.0232  0.6717
   34DOPE  H12R 4319   2.782   4.264  13.917 -0.3202 -0.8175 -0.8883
   34DOPE  H12S 4320   2.803   4.438  13.932  1.7667  2.2689 -1.1246
   34DOPE  C213 4321   2.993   4.330  13.931 -0.5958  0.6037  0.7156
   34DOPE  H13R 4322   2.990   4.383  14.029 -2.2923 -0.7130  1.4285
   34DOPE  H13S 4323   3.057   4.381  13.856 -0.3343 -1.7817 -0.7986
   34DOPE  C214 4324   3.048   4.189  13.968 -0.2891 -0.4857 -0.0192
   34DOPE  H14R 4325   3.046   4.118  13.883  0.1923  1.3554 -1.6364
   34DOPE  H14S 4326   2.991   4.138  14.049  3.3453 -0.9829  2.5072
   34DOPE  C215 4327   3.200   4.195  14.021 -0.8118 -1.0049  0.1485
   34DOPE  H15R 4328   3.224   4.104  14.081  0.4264 -0.3638  0.6533
   34DOPE  H15S 4329   3.210   4.286  14.084 -2.0387 -1.2702  0.7653
   34DOPE  C216 4330   3.311   4.205  13.905 -0.2839  0.5578  0.4650
   34DOPE  H16R 4331   3.295   4.299  13.849  0.0682 -0.0393 -0.6686
   34DOPE  H16S 4332   3.291   4.129  13.826  0.7370 -0.2428  0.9612
   34DOPE  C217 4333   3.450   4.197  13.969 -0.2818  0.2616  0.9670
   34DOPE  H17R 4334   3.468   4.098  14.017  0.5157  0.5078  1.1887
   34DOPE  H17S 4335   3.448   4.270  14.053  0.7383 -0.1663  1.3778
   34DOPE  C218 4336   3.561   4.236  13.869  0.0467 -0.4870 -0.1237
   34DOPE  H18R 4337   3.558   4.157  13.792  0.4464 -0.5848 -0.0438
   34DOPE  H18S 4338   3.665   4.227  13.908 -0.3412 -1.5122  0.7264
   34DOPE  H18T 4339   3.552   4.339  13.828 -1.0305  0.5536  2.4739
   34DOPE   C33 4340   1.985   3.972  12.819 -0.6025  0.5872  0.1230
   34DOPE   H3X 4341   1.927   3.989  12.726  0.1847 -0.4839 -0.5936
   34DOPE   H3Y 4342   1.919   3.996  12.905 -0.4232  2.2601 -0.1766
   34DOPE   C34 4343   2.010   3.814  12.833  0.1520 -0.2161 -0.4065
   34DOPE   H4X 4344   1.944   3.760  12.762 -1.2501 -0.8948  1.3413
   34DOPE   H4Y 4345   2.113   3.792  12.797  0.5456 -2.2277  1.7162
   34DOPE   C35 4346   1.987   3.761  12.972 -0.6185  0.1645 -0.2807
   34DOPE   H5X 4347   1.885   3.781  13.010  0.2955  1.4656  1.6231
   34DOPE   H5Y 4348   2.055   3.814  13.041 -1.8268 -0.2702  1.2919
   34DOPE   C36 4349   2.030   3.613  12.991 -0.1227  0.3114  0.3534
   34DOPE   H6X 4350   2.136   3.595  12.964 -0.2234 -0.6756  0.5916
   34DOPE   H6Y 4351   1.962   3.555  12.925 -1.0341  1.7528 -0.0373
   34DOPE   C37 4352   1.994   3.576  13.142 -0.3570  0.4558 -0.2900
   34DOPE   H7X 4353   2.027   3.666  13.197 -1.8825  0.8945 -0.0307
   34DOPE   H7Y 4354   1.883   3.582  13.144 -0.4394  0.3308 -2.0950
   34DOPE   C38 4355   2.062   3.449  13.201 -0.5365 -0.6489  0.2844
   34DOPE   H8X 4356   2.172   3.465  13.204 -0.8269  1.5549  2.0981
   34DOPE   H8Y 4357   2.026   3.352  13.162 -2.2097  0.1669 -0.3351
   34DOPE   C39 4358   2.016   3.443  13.341  0.0346  0.2837 -0.8570
   34DOPE   H9X 4359   1.909   3.470  13.347 -0.4464 -1.4878 -1.0348
   34DOPE  C310 4360   2.081   3.394  13.447  0.7897 -0.2653 -0.2966
   34DOPE  H10X 4361   2.034   3.397  13.546  1.2001 -3.7940  0.1243
   34DOPE  C311 4362   2.219   3.334  13.443  0.0842 -0.4204 -0.6976
   34DOPE  H11X 4363   2.236   3.291  13.342  0.5574 -2.2591  0.1063
   34DOPE  H11Y 4364   2.296   3.413  13.459  0.4622 -0.5877 -1.5993
   34DOPE  C312 4365   2.246   3.215  13.543 -0.0661 -0.0594  0.3276
   34DOPE  H12X 4366   2.348   3.173  13.525  0.3531  0.6351  1.0512
   34DOPE  H12Y 4367   2.165   3.140  13.545 -0.3076  0.1788 -0.1457
   34DOPE  C313 4368   2.253   3.277  13.687 -0.3983 -0.0400 -0.0958
   34DOPE  H13X 4369   2.321   3.364  13.692 -0.3889 -0.0895  0.8404
   34DOPE  H13Y 4370   2.160   3.331  13.712  0.7345  1.5268  0.8886
   34DOPE  C314 4371   2.277   3.177  13.799 -0.2984  0.4860 -0.2357
   34DOPE  H14X 4372   2.379   3.138  13.776  0.0342  0.9038  0.5102
   34DOPE  H14Y 4373   2.197   3.100  13.789  1.0649 -0.8755 -1.2459
   34DOPE  C315 4374   2.266   3.237  13.930 -0.3243 -0.2643 -0.4121
   34DOPE  H15X 4375   2.173   3.295  13.948  1.3138  2.4799 -0.2406
   34DOPE  H15Y 4376   2.338   3.319  13.948 -1.0379  0.6847 -1.7254
   34DOPE  C316 4377   2.279   3.135  14.044  0.1221  0.2653 -0.5970
   34DOPE  H16X 4378   2.375   3.154  14.096  0.8080 -0.4966 -1.5745
   34DOPE  H16Y 4379   2.282   3.039  13.989 -0.8945  0.3294 -0.7792
   34DOPE  C317 4380   2.176   3.154  14.150 -0.5049 -0.1269 -0.1770
   34DOPE  H17X 4381   2.198   3.259  14.180 -0.5858  0.5647 -2.3987
   34DOPE  H17Y 4382   2.070   3.154  14.115 -0.4785 -0.3731 -0.2573
   34DOPE  C318 4383   2.185   3.057  14.270  0.0388  0.1276  0.5327
   34DOPE  H18X 4384   2.141   2.963  14.232 -2.5092  1.3285  0.2962
   34DOPE  H18Y 4385   2.290   3.043  14.303  0.3533  1.4086  0.1236
   34DOPE  H18Z 4386   2.117   3.086  14.353 -0.0983 -0.1608  0.5215
   35DOPE     N 4387   5.896   2.179  11.854  0.1193  0.3269 -0.1856
   35DOPE   HN1 4388   5.986   2.159  11.806 -0.3601  0.1712 -1.0530
   35DOPE   HN2 4389   5.815   2.137  11.804  0.1857 -1.0659  0.7909
   35DOPE   HN3 4390   5.881   2.281  11.852 -0.5891  0.2332  0.0273
   35DOPE   C12 4391   5.882   2.140  12.001  0.2343  0.1757  0.0439
   35DOPE  H12A 4392   5.907   2.031  12.008 -0.5285 -0.1024 -1.2262
   35DOPE  H12B 4393   5.774   2.159  12.019  0.1405  0.5164 -0.8400
   35DOPE   C11 4394   5.968   2.231  12.094 -0.0967 -0.5825 -0.3300
   35DOPE  H11A 4395   6.072   2.217  12.058  0.3328  1.2721  0.0394
   35DOPE  H11B 4396   5.958   2.205  12.202 -2.8392 -1.0482 -0.6348
   35DOPE     P 4397   6.017   2.485  12.095 -0.5259 -0.4386  0.3978
   35DOPE   O13 4398   5.942   2.614  12.090  0.6760  0.7165 -0.7944
   35DOPE   O14 4399   6.116   2.465  11.986  0.7683 -0.0785  0.2776
   35DOPE   O11 4400   6.084   2.463  12.234 -0.2207 -0.5028 -0.5487
   35DOPE   O12 4401   5.917   2.367  12.078 -0.0564 -0.1291 -0.1144
   35DOPE    C1 4402   5.996   2.493  12.346 -0.2381 -0.6900 -0.0502
   35DOPE    HA 4403   5.889   2.466  12.334 -0.1311 -0.5030 -1.7724
   35DOPE    HB 4404   5.993   2.604  12.351  1.2965 -0.3908 -3.1347
   35DOPE    C2 4405   6.052   2.439  12.475  0.0595 -0.2681 -0.6406
   35DOPE    HS 4406   5.984   2.457  12.560 -1.4367  0.9348 -2.0378
   35DOPE   O21 4407   6.179   2.488  12.500 -0.0486  0.5869  0.1483
   35DOPE   C21 4408   6.187   2.619  12.525 -0.2175 -0.1626 -0.1242
   35DOPE   O22 4409   6.090   2.689  12.550  0.2338  0.0159  0.0957
   35DOPE   C22 4410   6.331   2.675  12.542  0.8141  0.1852  0.0920
   35DOPE   H2R 4411   6.342   2.773  12.491 -0.1621  0.1630 -0.1782
   35DOPE   H2S 4412   6.388   2.599  12.485 -0.6656 -0.8776 -0.0450
   35DOPE    C3 4413   6.062   2.276  12.474  0.2752  0.5579  0.2600
   35DOPE    HX 4414   6.129   2.254  12.388 -0.3343 -1.0142  0.1537
   35DOPE    HY 4415   5.964   2.230  12.448 -0.0954  0.6228  1.4833
   35DOPE   O31 4416   6.111   2.219  12.598  0.3215  0.0608 -0.9602
   35DOPE   C31 4417   6.022   2.214  12.693 -0.3427 -0.2789 -0.4682
   35DOPE   O32 4418   5.907   2.253  12.688  0.0392  0.1873  0.0151
   35DOPE   C32 4419   6.084   2.151  12.821  0.3673 -0.3157  0.1396
   35DOPE   H2X 4420   6.104   2.045  12.796  0.9539 -0.2385  0.2677
   35DOPE   H2Y 4421   6.179   2.209  12.826  0.6455 -0.1714 -3.9082
   35DOPE   C23 4422   6.395   2.682  12.684  0.0532  0.3979 -0.6505
   35DOPE   H3R 4423   6.367   2.784  12.719 -1.2198  0.3714 -1.5224
   35DOPE   H3S 4424   6.506   2.687  12.679  0.1194  0.6528  0.8616
   35DOPE   C24 4425   6.354   2.567  12.766 -0.0749 -0.0628  0.6450
   35DOPE   H4R 4426   6.384   2.472  12.717 -0.4282 -0.0647  0.4331
   35DOPE   H4S 4427   6.244   2.572  12.775 -0.0560  3.0955  0.3123
   35DOPE   C25 4428   6.418   2.582  12.907  0.4860  0.3629  0.2868
   35DOPE   H5R 4429   6.366   2.666  12.957  0.7987  1.2554 -0.8497
   35DOPE   H5S 4430   6.522   2.615  12.886  1.4097 -2.0115  0.8140
   35DOPE   C26 4431   6.412   2.454  12.996 -0.1440 -0.4647 -0.1561
   35DOPE   H6R 4432   6.309   2.422  13.023 -0.8113 -0.1914 -2.2428
   35DOPE   H6S 4433   6.446   2.479  13.099 -1.5086  0.2615  0.1421
   35DOPE   C27 4434   6.488   2.332  12.943  0.4314  0.3162 -0.5107
   35DOPE   H7R 4435   6.597   2.355  12.933  0.7815 -1.1526 -0.3225
   35DOPE   H7S 4436   6.449   2.310  12.842 -1.3350  1.5877 -0.1592
   35DOPE   C28 4437   6.471   2.204  13.034  0.5303 -0.1179  0.6545
   35DOPE   H8R 4438   6.503   2.120  12.969 -0.4401 -1.2192  1.5699
   35DOPE   H8S 4439   6.364   2.190  13.060  0.6336 -0.6058  0.8192
   35DOPE   C29 4440   6.555   2.203  13.163  0.1090  0.0439 -0.0162
   35DOPE   H9R 4441   6.663   2.180  13.159  0.5985  1.8989  1.2546
   35DOPE  C210 4442   6.513   2.223  13.290  0.0395 -0.3945  0.0596
   35DOPE  H10R 4443   6.591   2.235  13.367  1.8256 -1.7089 -1.4636
   35DOPE  C211 4444   6.378   2.266  13.336  0.3776  0.5314 -0.0310
   35DOPE  H11R 4445   6.348   2.190  13.411  2.0219  0.1157  0.2502
   35DOPE  H11S 4446   6.295   2.270  13.262 -1.3549 -0.0131  1.8026
   35DOPE  C212 4447   6.375   2.397  13.420  0.4458 -0.4949  0.5943
   35DOPE  H12R 4448   6.397   2.479  13.348 -2.9131 -0.6777 -0.8124
   35DOPE  H12S 4449   6.450   2.389  13.501  2.0738 -0.2756 -0.8244
   35DOPE  C213 4450   6.238   2.421  13.478 -0.3048  0.0410  0.2621
   35DOPE  H13R 4451   6.216   2.356  13.565  0.1519  1.1058  1.1957
   35DOPE  H13S 4452   6.157   2.393  13.406 -0.8109 -1.3942  1.3369
   35DOPE  C214 4453   6.222   2.564  13.535 -0.2229 -1.0834  0.0579
   35DOPE  H14R 4454   6.228   2.632  13.447 -1.0520  0.2874  1.0331
   35DOPE  H14S 4455   6.310   2.586  13.598  0.3846 -1.6621 -0.5678
   35DOPE  C215 4456   6.082   2.587  13.592  0.0331  0.5226 -0.3163
   35DOPE  H15R 4457   5.998   2.564  13.524  0.4672 -2.0564 -0.0620
   35DOPE  H15S 4458   6.068   2.695  13.617 -2.1812  0.0073  0.9725
   35DOPE  C216 4459   6.076   2.512  13.732  0.6703 -0.0699 -0.8464
   35DOPE  H16R 4460   6.170   2.530  13.788  0.0273 -1.3240  0.7417
   35DOPE  H16S 4461   6.072   2.402  13.713  1.6686 -0.2377 -0.1408
   35DOPE  C217 4462   5.966   2.564  13.829 -0.2560  0.4057 -0.3643
   35DOPE  H17R 4463   5.867   2.538  13.785 -0.2263 -0.0429 -0.1714
   35DOPE  H17S 4464   5.985   2.673  13.837  2.2660 -0.0138  0.2429
   35DOPE  C218 4465   5.965   2.486  13.969 -0.3870  0.2352  0.0518
   35DOPE  H18R 4466   6.062   2.491  14.023 -0.0115 -1.7686 -0.3479
   35DOPE  H18S 4467   5.939   2.379  13.954 -1.0913  0.2304  1.1904
   35DOPE  H18T 4468   5.885   2.528  14.033 -0.6742  0.1397 -0.2396
   35DOPE   C33 4469   5.984   2.175  12.938 -0.1229  0.1291 -0.6090
   35DOPE   H3X 4470   5.895   2.111  12.922  2.4021 -3.5316 -1.1925
   35DOPE   H3Y 4471   5.954   2.281  12.955  0.2355 -0.0653  1.4888
   35DOPE   C34 4472   6.040   2.126  13.068  0.4369 -0.2944 -0.5535
   35DOPE   H4X 4473   6.092   2.028  13.057  1.1885 -0.1207  1.1680
   35DOPE   H4Y 4474   6.121   2.201  13.083 -0.8256  0.9298  0.5224
   35DOPE   C35 4475   5.949   2.136  13.196  0.0804  0.3786 -0.1491
   35DOPE   H5X 4476   5.858   2.079  13.169  0.3741 -0.4998  0.6692
   35DOPE   H5Y 4477   5.925   2.243  13.213 -0.2056  0.2468  0.2874
   35DOPE   C36 4478   6.023   2.084  13.320  0.3422 -0.4247 -0.4139
   35DOPE   H6X 4479   6.116   2.143  13.336  0.1275 -0.2484  0.2207
   35DOPE   H6Y 4480   6.054   1.981  13.294 -0.1294 -0.8570  0.6625
   35DOPE   C37 4481   5.933   2.081  13.438  0.1918  0.8367 -0.1879
   35DOPE   H7X 4482   5.831   2.112  13.406 -0.5855 -2.1874 -0.9129
   35DOPE   H7Y 4483   5.908   1.981  13.480 -0.2030  1.4212  1.0535
   35DOPE   C38 4484   5.983   2.169  13.560  0.4554  0.0479  0.9222
   35DOPE   H8X 4485   6.007   2.265  13.510  2.6572 -1.2178 -0.6512
   35DOPE   H8Y 4486   6.078   2.120  13.593  0.5367  0.6664  1.6414
   35DOPE   C39 4487   5.878   2.187  13.665  0.3932  0.1974 -0.3951
   35DOPE   H9X 4488   5.833   2.287  13.654  1.9118  0.8632 -0.7364
   35DOPE  C310 4489   5.856   2.115  13.777 -0.0533  0.1315 -0.0971
   35DOPE  H10X 4490   5.789   2.146  13.859 -0.3695 -0.8982  0.0528
   35DOPE  C311 4491   5.945   2.003  13.831 -0.1023 -0.3674  0.1553
   35DOPE  H11X 4492   5.930   1.906  13.779 -0.4821 -0.3295  0.1870
   35DOPE  H11Y 4493   6.052   2.032  13.823  0.3569 -1.3291  2.1040
   35DOPE  C312 4494   5.926   1.983  13.984 -0.3755 -0.3963 -0.4347
   35DOPE  H12X 4495   5.993   1.899  14.013 -0.0000  0.4119  1.1678
   35DOPE  H12Y 4496   5.821   1.955  14.009 -0.3903 -2.9218 -2.7920
   35DOPE  C313 4497   5.972   2.102  14.072  0.0671  0.4192  0.4999
   35DOPE  H13X 4498   6.076   2.124  14.041  0.1041  0.2034  0.4715
   35DOPE  H13Y 4499   5.905   2.189  14.059 -0.7839  0.3114  3.3813
   35DOPE  C314 4500   5.994   2.068  14.216  1.0890  0.1574  0.6380
   35DOPE  H14X 4501   6.047   1.971  14.221 -0.9501 -1.2512 -2.3465
   35DOPE  H14Y 4502   5.892   2.059  14.261  0.4072 -2.3788 -1.2195
   35DOPE  C315 4503   6.059   2.173  14.302 -0.2905 -0.4629 -0.5730
   35DOPE  H15X 4504   6.001   2.266  14.316 -0.8377 -1.1438  2.5215
   35DOPE  H15Y 4505   6.153   2.193  14.246  1.0549 -1.6691  1.1313
   35DOPE  C316 4506   6.090   2.127  14.444 -0.5049  0.2993 -0.2442
   35DOPE  H16X 4507   6.120   2.020  14.433  1.2970  0.8873 -1.5408
   35DOPE  H16Y 4508   5.999   2.126  14.508  0.5290 -0.6553  1.2917
   35DOPE  C317 4509   6.203   2.209  14.519  0.5083 -0.2704 -0.2338
   35DOPE  H17X 4510   6.151   2.303  14.549  0.3424 -0.4900  0.1746
   35DOPE  H17Y 4511   6.224   2.152  14.611  1.9700  0.6029 -0.0065
   35DOPE  C318 4512   6.330   2.233  14.442 -0.0433  0.5916  0.1285
   35DOPE  H18X 4513   6.406   2.298  14.491 -0.7239  1.1162  0.5015
   35DOPE  H18Y 4514   6.376   2.134  14.424  1.4857  0.8447  2.1973
   35DOPE  H18Z 4515   6.313   2.290  14.348 -0.5091  0.7686  0.3168
   36DOPE     N 4516   5.323   4.525  11.990 -0.0748  0.6704 -0.4919
   36DOPE   HN1 4517   5.319   4.576  11.900 -0.6379  2.3505  0.4450
   36DOPE   HN2 4518   5.376   4.435  11.983 -0.0641  0.7020 -0.8251
   36DOPE   HN3 4519   5.224   4.507  12.014 -0.4191  2.8587 -0.0499
   36DOPE   C12 4520   5.385   4.613  12.096 -0.5659  0.5467  0.3493
   36DOPE  H12A 4521   5.397   4.552  12.188  0.9525  2.3813  1.4456
   36DOPE  H12B 4522   5.313   4.695  12.115 -1.6132 -0.4301  0.6902
   36DOPE   C11 4523   5.525   4.661  12.062  0.7160  0.0559  0.2487
   36DOPE  H11A 4524   5.519   4.702  11.959  0.8776  0.5828  0.4501
   36DOPE  H11B 4525   5.597   4.576  12.061  1.5920  0.7218 -2.4216
   36DOPE     P 4526   5.654   4.880  12.120  0.6766 -0.1420  0.2268
   36DOPE   O13 4527   5.571   5.001  12.133  0.3055  0.3652  0.1333
   36DOPE   O14 4528   5.724   4.863  11.987  0.2750 -0.2337 -0.2268
   36DOPE   O11 4529   5.758   4.878  12.238 -0.4449 -0.4960  0.3994
   36DOPE   O12 4530   5.560   4.755  12.155 -0.1380  0.2718 -0.2756
   36DOPE    C1 4531   5.776   4.763  12.317 -0.5887 -0.0653  0.3692
   36DOPE    HA 4532   5.882   4.735  12.337 -0.0931  0.5514 -1.2902
   36DOPE    HB 4533   5.746   4.675  12.256  1.3403 -0.7875  0.3919
   36DOPE    C2 4534   5.711   4.785  12.451  0.5688 -0.2993 -0.0602
   36DOPE    HS 4535   5.605   4.816  12.436  0.8497  0.1511 -1.2873
   36DOPE   O21 4536   5.788   4.885  12.522  0.4951  0.4460 -0.0911
   36DOPE   C21 4537   5.726   4.993  12.558  0.3326  0.5616 -0.4254
   36DOPE   O22 4538   5.615   5.032  12.524 -0.6113  0.3912  0.4626
   36DOPE   C22 4539   5.820   5.071  12.642 -0.2036 -0.2691 -0.4699
   36DOPE   H2R 4540   5.761   5.157  12.679  0.5383  0.2189 -0.3926
   36DOPE   H2S 4541   5.909   5.104  12.584  0.0669  0.8147  0.5235
   36DOPE    C3 4542   5.714   4.661  12.534 -0.1660  1.0176  0.3577
   36DOPE    HX 4543   5.816   4.636  12.571 -0.7351 -0.4941  1.0311
   36DOPE    HY 4544   5.693   4.577  12.464  0.6205  0.1719  1.1112
   36DOPE   O31 4545   5.624   4.658  12.647 -0.8386  0.3110 -0.6281
   36DOPE   C31 4546   5.502   4.622  12.634  0.6480 -0.1483  0.3198
   36DOPE   O32 4547   5.447   4.595  12.525  0.3842  0.0841 -0.0333
   36DOPE   C32 4548   5.433   4.616  12.770 -0.3490  0.6038  0.2773
   36DOPE   H2X 4549   5.380   4.521  12.790  1.6398 -0.3920  1.0793
   36DOPE   H2Y 4550   5.517   4.605  12.842  0.8540 -2.1683 -1.4249
   36DOPE   C23 4551   5.860   5.004  12.773 -0.6568 -0.4987  0.5450
   36DOPE   H3R 4552   5.907   5.084  12.835 -1.0301 -0.7751  1.1902
   36DOPE   H3S 4553   5.937   4.925  12.758 -0.8327 -0.7723  1.0714
   36DOPE   C24 4554   5.748   4.946  12.858 -0.0549  0.1639  0.3545
   36DOPE   H4R 4555   5.712   4.863  12.794  0.9541 -1.2470  1.5516
   36DOPE   H4S 4556   5.657   5.009  12.860 -0.3266 -0.2139  0.0923
   36DOPE   C25 4557   5.808   4.901  12.990 -0.7577  0.0104 -0.2004
   36DOPE   H5R 4558   5.872   4.975  13.043  0.7924 -2.4091  1.5319
   36DOPE   H5S 4559   5.864   4.808  12.965  1.2817  1.0000  0.5249
   36DOPE   C26 4560   5.710   4.871  13.102 -0.0378  0.3734 -0.3031
   36DOPE   H6R 4561   5.629   4.945  13.080  0.2343  0.8176  0.1747
   36DOPE   H6S 4562   5.750   4.891  13.203 -1.9460 -0.0274  0.5767
   36DOPE   C27 4563   5.640   4.734  13.089  0.8528  0.5188  0.4334
   36DOPE   H7R 4564   5.714   4.651  13.087 -0.5063 -0.7381 -1.4999
   36DOPE   H7S 4565   5.582   4.738  12.994 -1.1126 -0.0358  1.5580
   36DOPE   C28 4566   5.546   4.706  13.209  0.4900 -1.0173  0.2667
   36DOPE   H8R 4567   5.616   4.697  13.295  0.4231  0.3023  0.4793
   36DOPE   H8S 4568   5.481   4.616  13.210 -2.7624  1.1544 -1.0066
   36DOPE   C29 4569   5.434   4.810  13.228  0.2588  0.4058 -0.7947
   36DOPE   H9R 4570   5.382   4.849  13.139  2.9313  0.4234 -2.4762
   36DOPE  C210 4571   5.393   4.863  13.344 -0.2519 -0.4088 -0.4538
   36DOPE  H10R 4572   5.297   4.916  13.348 -0.1307 -0.1341 -1.1297
   36DOPE  C211 4573   5.447   4.821  13.481 -0.2692  0.4933 -0.1787
   36DOPE  H11R 4574   5.509   4.901  13.526  0.0573  0.1871 -0.0771
   36DOPE  H11S 4575   5.512   4.731  13.476 -0.3685  0.4392 -0.5297
   36DOPE  C212 4576   5.326   4.780  13.579 -0.1393 -0.8720  0.4978
   36DOPE  H12R 4577   5.258   4.716  13.520 -0.6065  1.4539 -1.6870
   36DOPE  H12S 4578   5.273   4.873  13.610 -0.4141 -1.0330  0.5097
   36DOPE  C213 4579   5.370   4.709  13.708 -0.0187  0.0174 -0.0309
   36DOPE  H13R 4580   5.398   4.786  13.783 -0.5210 -0.0685  0.2483
   36DOPE  H13S 4581   5.464   4.656  13.682  0.1903  0.5187 -0.3199
   36DOPE  C214 4582   5.256   4.620  13.769  0.2270  0.1222  0.1580
   36DOPE  H14R 4583   5.242   4.528  13.708 -1.8256  0.7568 -0.4020
   36DOPE  H14S 4584   5.165   4.683  13.758  0.9101  0.7832 -2.3242
   36DOPE  C215 4585   5.272   4.581  13.921  0.7514 -0.7673  0.7240
   36DOPE  H15R 4586   5.270   4.676  13.978 -0.5278 -1.0703  1.2043
   36DOPE  H15S 4587   5.369   4.527  13.928  0.4089 -1.4154  0.5517
   36DOPE  C216 4588   5.163   4.485  13.970 -0.4668 -0.0930  0.4566
   36DOPE  H16R 4589   5.192   4.382  13.942  1.6168  0.2800  1.0545
   36DOPE  H16S 4590   5.074   4.509  13.909  1.7490 -1.1359 -3.5706
   36DOPE  C217 4591   5.153   4.482  14.122  0.4506  0.4306 -0.2919
   36DOPE  H17R 4592   5.048   4.455  14.145 -0.2391  1.0531 -2.4694
   36DOPE  H17S 4593   5.156   4.585  14.164 -1.0732  1.0298 -1.5339
   36DOPE  C218 4594   5.259   4.395  14.206  0.9534 -0.1603 -0.2345
   36DOPE  H18R 4595   5.341   4.456  14.250  0.7257  0.0686 -0.1246
   36DOPE  H18S 4596   5.293   4.313  14.139 -1.3855 -1.1133 -0.3332
   36DOPE  H18T 4597   5.200   4.348  14.287  0.0678  0.5401 -0.4530
   36DOPE   C33 4598   5.347   4.742  12.798  0.9406  0.1614 -0.4375
   36DOPE   H3X 4599   5.307   4.782  12.703  3.2141 -0.0394 -1.5498
   36DOPE   H3Y 4600   5.404   4.819  12.854 -0.2503  0.1537  0.8452
   36DOPE   C34 4601   5.231   4.702  12.896  0.6018  0.4503 -0.4378
   36DOPE   H4X 4602   5.271   4.628  12.970  0.8986 -1.4972 -2.4284
   36DOPE   H4Y 4603   5.195   4.790  12.953 -0.3741 -0.4009  0.2957
   36DOPE   C35 4604   5.109   4.635  12.816 -0.4388  0.5745  0.3354
   36DOPE   H5X 4605   5.156   4.549  12.763 -0.1509 -0.4741  2.2216
   36DOPE   H5Y 4606   5.078   4.709  12.739  1.8486 -0.1113 -1.3806
   36DOPE   C36 4607   4.987   4.581  12.889  0.4339  0.2903 -0.2152
   36DOPE   H6X 4608   5.017   4.511  12.970  0.2014 -1.0041 -1.1993
   36DOPE   H6Y 4609   4.922   4.523  12.820 -0.4430  3.1471 -1.9558
   36DOPE   C37 4610   4.906   4.696  12.964 -0.0459 -0.2696  0.1433
   36DOPE   H7X 4611   4.985   4.740  13.029  0.4382 -2.8111  1.4043
   36DOPE   H7Y 4612   4.877   4.774  12.890  0.6750  1.0493  1.2042
   36DOPE   C38 4613   4.780   4.649  13.044 -0.2809  0.4181  0.1774
   36DOPE   H8X 4614   4.734   4.589  12.962  1.1075  1.0715 -1.1556
   36DOPE   H8Y 4615   4.707   4.727  13.072 -0.9095  0.4575 -1.4247
   36DOPE   C39 4616   4.812   4.550  13.158  0.3182  0.6124  0.2449
   36DOPE   H9X 4617   4.843   4.447  13.133 -1.6452  0.6402 -2.7505
   36DOPE  C310 4618   4.821   4.587  13.286  0.3182  0.1363  0.0218
   36DOPE  H10X 4619   4.850   4.509  13.358  1.2650 -1.2399 -1.7808
   36DOPE  C311 4620   4.778   4.710  13.362  0.6562  0.1263  0.2765
   36DOPE  H11X 4621   4.737   4.791  13.298  1.2754  0.6294  0.5033
   36DOPE  H11Y 4622   4.694   4.680  13.429 -0.7570  0.7179 -1.1794
   36DOPE  C312 4623   4.900   4.775  13.440 -0.4881 -0.4598  0.3487
   36DOPE  H12X 4624   4.957   4.825  13.358 -2.8771  1.0888 -0.4941
   36DOPE  H12Y 4625   4.964   4.705  13.497  0.3982 -1.1424 -1.4045
   36DOPE  C313 4626   4.837   4.886  13.532 -0.5541  0.1250 -0.8828
   36DOPE  H13X 4627   4.920   4.959  13.546 -2.3493  1.9888  0.6805
   36DOPE  H13Y 4628   4.767   4.954  13.478  1.1381  2.5302 -0.2277
   36DOPE  C314 4629   4.781   4.835  13.665 -0.9576 -0.2355  0.2330
   36DOPE  H14X 4630   4.867   4.809  13.731  1.0317  2.5025 -1.0628
   36DOPE  H14Y 4631   4.719   4.747  13.639  1.1885 -1.0833 -2.5027
   36DOPE  C315 4632   4.703   4.943  13.740 -0.1560  0.3975  0.4888
   36DOPE  H15X 4633   4.613   4.976  13.684 -0.2516 -0.4608  0.1169
   36DOPE  H15Y 4634   4.767   5.033  13.753 -0.4210  0.7039 -0.2345
   36DOPE  C316 4635   4.655   4.888  13.872 -0.3341  0.1722  0.2183
   36DOPE  H16X 4636   4.747   4.848  13.920 -0.9388 -1.8581 -0.2292
   36DOPE  H16Y 4637   4.584   4.804  13.859  0.1556 -0.2156  0.0240
   36DOPE  C317 4638   4.602   4.988  13.966  1.0900 -0.4349  0.3320
   36DOPE  H17X 4639   4.675   5.070  13.983  1.3979 -0.3261 -1.3564
   36DOPE  H17Y 4640   4.520   5.045  13.916  1.9679 -0.5677 -1.3318
   36DOPE  C318 4641   4.555   4.944  14.104 -0.3692 -0.1177 -0.4225
   36DOPE  H18X 4642   4.522   5.033  14.162  2.8586  1.5597 -0.9585
   36DOPE  H18Y 4643   4.471   4.871  14.102 -0.5142 -0.0731  1.5331
   36DOPE  H18Z 4644   4.640   4.897  14.158  0.2622 -1.0727 -2.1582
   37DOPE     N 4645   2.859   2.359  12.223 -0.2081  1.0357  0.8092
   37DOPE   HN1 4646   2.887   2.289  12.294 -0.0399 -0.5804 -0.7584
   37DOPE   HN2 4647   2.849   2.452  12.269  1.0132  0.7391  1.7375
   37DOPE   HN3 4648   2.765   2.329  12.189  1.1914 -2.4316 -0.4486
   37DOPE   C12 4649   2.961   2.360  12.118  0.3720  0.0833  0.1470
   37DOPE  H12A 4650   2.954   2.268  12.056  0.9297  0.8688 -1.1198
   37DOPE  H12B 4651   3.063   2.365  12.160  0.1683  1.1400  0.5409
   37DOPE   C11 4652   2.935   2.489  12.037 -0.2133  0.0958  0.6012
   37DOPE  H11A 4653   2.834   2.487  11.989 -0.7702 -0.4880  1.7576
   37DOPE  H11B 4654   3.010   2.485  11.955  0.2485  0.8672  0.9723
   37DOPE     P 4655   2.854   2.707  12.166  0.5841  0.0137  0.2636
   37DOPE   O13 4656   2.743   2.725  12.072 -0.1714 -0.7534  0.1587
   37DOPE   O14 4657   2.923   2.831  12.220  0.0069  0.1099  0.3558
   37DOPE   O11 4658   2.814   2.620  12.293  0.1793 -0.4159  0.7750
   37DOPE   O12 4659   2.964   2.612  12.102 -0.3384 -0.0138 -0.7341
   37DOPE    C1 4660   2.684   2.644  12.354  1.1667  0.4531  0.5243
   37DOPE    HA 4661   2.667   2.560  12.425 -0.2830  0.7613  0.5682
   37DOPE    HB 4662   2.605   2.649  12.276  1.6487  2.7656  0.0945
   37DOPE    C2 4663   2.676   2.782  12.430 -0.1764  0.1312  0.1820
   37DOPE    HS 4664   2.693   2.859  12.352 -0.0430  0.7816  0.8383
   37DOPE   O21 4665   2.775   2.794  12.535 -0.1693  0.5926 -0.2101
   37DOPE   C21 4666   2.771   2.902  12.608 -0.2178 -0.0148  0.5839
   37DOPE   O22 4667   2.721   3.009  12.576 -0.1232  0.8449 -0.4141
   37DOPE   C22 4668   2.869   2.884  12.731 -0.3297 -0.2727  0.1669
   37DOPE   H2R 4669   2.956   2.948  12.707 -1.3990  0.5452 -1.7066
   37DOPE   H2S 4670   2.896   2.776  12.728 -0.0798 -0.2181  0.4577
   37DOPE    C3 4671   2.534   2.794  12.483  0.0395 -0.4074  0.2245
   37DOPE    HX 4672   2.464   2.790  12.397 -1.0792  1.2269  0.9927
   37DOPE    HY 4673   2.512   2.898  12.518 -1.3570 -0.4148 -0.5585
   37DOPE   O31 4674   2.507   2.691  12.582 -0.2222 -0.2286  0.0934
   37DOPE   C31 4675   2.374   2.695  12.605 -0.4467 -0.4557 -0.1668
   37DOPE   O32 4676   2.297   2.782  12.561  0.7686 -0.2205 -0.2808
   37DOPE   C32 4677   2.336   2.581  12.704  0.1552  0.2129 -0.2119
   37DOPE   H2X 4678   2.324   2.493  12.638  0.4071 -0.9038  1.1849
   37DOPE   H2Y 4679   2.429   2.554  12.758  0.1283 -2.7775 -1.4820
   37DOPE   C23 4680   2.799   2.898  12.867 -0.3126  0.4567 -0.4928
   37DOPE   H3R 4681   2.717   2.823  12.875  1.3591 -1.3860 -0.0109
   37DOPE   H3S 4682   2.749   2.996  12.887 -0.0301  0.5174 -0.0559
   37DOPE   C24 4683   2.891   2.879  12.993 -0.4118  0.7852  1.1836
   37DOPE   H4R 4684   2.978   2.947  12.978 -0.4450  0.7431  0.7773
   37DOPE   H4S 4685   2.922   2.774  12.980 -0.0799  1.1086 -1.0981
   37DOPE   C25 4686   2.820   2.900  13.128  0.3124  0.3486 -0.5887
   37DOPE   H5R 4687   2.781   2.800  13.157 -1.5774  0.2178 -3.2182
   37DOPE   H5S 4688   2.733   2.964  13.103  0.7540  1.0254 -0.4174
   37DOPE   C26 4689   2.905   2.971  13.243  0.5611  0.3582 -0.0781
   37DOPE   H6R 4690   2.938   3.077  13.235 -0.1140  0.8882  2.9735
   37DOPE   H6S 4691   3.001   2.915  13.238  0.7421  0.6050  0.5727
   37DOPE   C27 4692   2.838   2.951  13.380  0.5878  0.2249  0.5917
   37DOPE   H7R 4693   2.800   2.846  13.387  0.9099  0.0194 -0.5198
   37DOPE   H7S 4694   2.748   3.015  13.377  1.0482  0.8497 -0.6537
   37DOPE   C28 4695   2.949   2.984  13.485 -0.0101  0.7040  0.1517
   37DOPE   H8R 4696   2.997   3.083  13.469  0.9788  0.4108  1.1809
   37DOPE   H8S 4697   3.040   2.921  13.481  0.1980  0.7752  2.4150
   37DOPE   C29 4698   2.886   2.988  13.620  0.5910  0.4881 -0.2708
   37DOPE   H9R 4699   2.794   3.049  13.622  2.0270  2.7560  1.8957
   37DOPE  C210 4700   2.931   2.945  13.740  1.0734  0.3421  0.0708
   37DOPE  H10R 4701   2.863   2.957  13.825  1.0401  1.1885 -0.0709
   37DOPE  C211 4702   3.053   2.863  13.774  0.0057  0.2068  0.1763
   37DOPE  H11R 4703   3.104   2.901  13.865  0.4624 -0.4370  0.1971
   37DOPE  H11S 4704   3.118   2.862  13.684  1.8459  1.1120  1.4378
   37DOPE  C212 4705   3.013   2.717  13.808 -0.3819 -0.0498 -0.1754
   37DOPE  H12R 4706   2.933   2.687  13.737 -0.9035  1.9879 -0.5007
   37DOPE  H12S 4707   2.975   2.703  13.912  0.3568  1.1620  0.2814
   37DOPE  C213 4708   3.129   2.621  13.780  0.1089 -0.0232 -0.7342
   37DOPE  H13R 4709   3.218   2.673  13.824 -0.7119  1.8882 -1.2207
   37DOPE  H13S 4710   3.139   2.612  13.670  1.7534  3.3978 -1.0228
   37DOPE  C214 4711   3.117   2.486  13.850  0.1883 -0.6700 -0.2704
   37DOPE  H14R 4712   3.027   2.436  13.809 -0.9910  0.5160  0.7641
   37DOPE  H14S 4713   3.106   2.496  13.960 -1.2432 -1.0072 -0.3617
   37DOPE  C215 4714   3.244   2.396  13.824  0.3679  0.0368 -0.7803
   37DOPE  H15R 4715   3.211   2.297  13.862 -0.6406  0.7227  0.2280
   37DOPE  H15S 4716   3.331   2.435  13.881  0.8798 -1.6199 -0.3811
   37DOPE  C216 4717   3.269   2.374  13.681  0.2080 -0.1221  0.8410
   37DOPE  H16R 4718   3.309   2.465  13.632 -0.6748 -0.3419 -0.3440
   37DOPE  H16S 4719   3.173   2.347  13.631  0.5299 -0.4277  0.3728
   37DOPE  C217 4720   3.375   2.262  13.670 -0.2424  0.4368  0.8192
   37DOPE  H17R 4721   3.328   2.161  13.669  1.0434 -0.2036  1.7877
   37DOPE  H17S 4722   3.441   2.275  13.759 -1.1541 -0.1319  1.6104
   37DOPE  C218 4723   3.464   2.277  13.544 -0.0051  0.1230  0.2518
   37DOPE  H18R 4724   3.408   2.265  13.449 -1.0915  0.2961  0.8564
   37DOPE  H18S 4725   3.539   2.196  13.529 -0.9933 -0.2070 -4.2063
   37DOPE  H18T 4726   3.520   2.373  13.543  2.0521 -1.0184  0.3289
   37DOPE   C33 4727   2.207   2.604  12.792  0.4682 -0.3929  0.3707
   37DOPE   H3X 4728   2.141   2.679  12.743  0.5360 -0.6369 -0.0991
   37DOPE   H3Y 4729   2.247   2.639  12.890  2.3602  2.3192 -1.2259
   37DOPE   C34 4730   2.117   2.486  12.808  0.1264 -0.4777 -0.5810
   37DOPE   H4X 4731   2.074   2.458  12.709 -5.1498  0.8767  1.0383
   37DOPE   H4Y 4732   2.186   2.409  12.848 -0.8329 -0.1642  1.7891
   37DOPE   C35 4733   1.997   2.487  12.902 -0.4215 -0.2226 -1.2075
   37DOPE   H5X 4734   2.016   2.514  13.009 -0.9970 -2.1486 -0.5832
   37DOPE   H5Y 4735   1.979   2.380  12.924 -0.6248  0.3908  2.3339
   37DOPE   C36 4736   1.871   2.557  12.861  0.2755 -0.4440  0.0554
   37DOPE   H6X 4737   1.812   2.473  12.818 -0.9819  0.0687  0.6996
   37DOPE   H6Y 4738   1.895   2.631  12.781 -0.3338 -1.2747 -0.9187
   37DOPE   C37 4739   1.777   2.616  12.978 -0.1737 -0.0910  0.7974
   37DOPE   H7X 4740   1.843   2.680  13.041  1.8802 -1.9639  0.6587
   37DOPE   H7Y 4741   1.696   2.674  12.927  0.9926  0.1330 -0.8733
   37DOPE   C38 4742   1.711   2.506  13.072  0.0453 -0.7065  0.3611
   37DOPE   H8X 4743   1.781   2.423  13.097  1.3047 -0.3802 -1.7916
   37DOPE   H8Y 4744   1.632   2.458  13.010 -1.6861  1.5374  0.6930
   37DOPE   C39 4745   1.639   2.564  13.196 -0.0434 -0.2674 -0.7146
   37DOPE   H9X 4746   1.698   2.571  13.288 -0.1499  1.1088 -0.7330
   37DOPE  C310 4747   1.528   2.641  13.190  0.2733 -0.3264 -0.6259
   37DOPE  H10X 4748   1.492   2.698  13.277  0.1295  0.8632 -1.4438
   37DOPE  C311 4749   1.454   2.684  13.065  0.2228 -0.2987  0.5351
   37DOPE  H11X 4750   1.509   2.642  12.978  3.7947  0.6804  2.1149
   37DOPE  H11Y 4751   1.348   2.650  13.067  0.4947 -1.1667  0.8200
   37DOPE  C312 4752   1.439   2.834  13.046  0.0136 -0.4069 -0.4486
   37DOPE  H12X 4753   1.393   2.854  12.947 -0.7301 -1.7552 -0.4028
   37DOPE  H12Y 4754   1.536   2.889  13.042 -0.0848 -0.2476 -3.7418
   37DOPE  C313 4755   1.351   2.902  13.164 -0.0253 -0.1489  0.6076
   37DOPE  H13X 4756   1.256   2.844  13.163  2.1666 -4.0943 -1.4912
   37DOPE  H13Y 4757   1.405   2.882  13.259 -0.0008  0.8140  0.8039
   37DOPE  C314 4758   1.326   3.053  13.139  0.7006  0.3616  0.2287
   37DOPE  H14X 4759   1.242   3.070  13.068  1.1282  2.4644  0.1805
   37DOPE  H14Y 4760   1.415   3.113  13.111  0.7802 -0.6187 -1.7870
   37DOPE  C315 4761   1.270   3.122  13.269 -0.2252 -1.1131 -0.1353
   37DOPE  H15X 4762   1.333   3.081  13.351  0.6696 -0.0605 -0.2738
   37DOPE  H15Y 4763   1.165   3.087  13.269 -0.7380  0.3609  0.8761
   37DOPE  C316 4764   1.281   3.279  13.248 -0.2029 -0.0398 -0.3154
   37DOPE  H16X 4765   1.245   3.305  13.146 -0.2392  1.6613  0.1064
   37DOPE  H16Y 4766   1.388   3.310  13.254 -0.1044 -0.2022 -1.0756
   37DOPE  C317 4767   1.196   3.355  13.352 -0.1451 -0.2417  0.5161
   37DOPE  H17X 4768   1.218   3.315  13.453 -1.4012 -0.3547  0.7705
   37DOPE  H17Y 4769   1.215   3.465  13.358 -1.4418 -0.0855  2.9923
   37DOPE  C318 4770   1.049   3.342  13.344  0.0979  0.0857  0.2340
   37DOPE  H18X 4771   1.019   3.237  13.320  0.0563  0.4198 -1.3174
   37DOPE  H18Y 4772   0.997   3.361  13.440 -0.8671  2.0061 -0.6213
   37DOPE  H18Z 4773   1.005   3.396  13.257 -0.9986 -1.9178 -0.5283
   38DOPE     N 4774   4.329   4.791  12.051  0.2375 -0.5377 -0.2608
   38DOPE   HN1 4775   4.304   4.753  11.957 -1.5016 -0.3365  0.0901
   38DOPE   HN2 4776   4.401   4.729  12.094  1.7021  0.0481 -1.7370
   38DOPE   HN3 4777   4.239   4.788  12.102 -1.0255  0.4266 -2.2880
   38DOPE   C12 4778   4.374   4.941  12.033 -0.3270 -0.5740  0.1912
   38DOPE  H12A 4779   4.287   4.988  11.982 -0.1367 -0.2549  0.1619
   38DOPE  H12B 4780   4.460   4.938  11.964 -0.3424 -1.7718  0.2048
   38DOPE   C11 4781   4.404   5.005  12.167  0.7856 -0.3602  0.5976
   38DOPE  H11A 4782   4.348   4.953  12.247  0.1774 -0.4543  0.1137
   38DOPE  H11B 4783   4.364   5.109  12.165 -0.4803 -0.8045 -1.8376
   38DOPE     P 4784   4.630   5.098  12.283  0.3510  0.1058 -0.5497
   38DOPE   O13 4785   4.623   5.232  12.218  0.6558 -0.1107  0.0299
   38DOPE   O14 4786   4.761   5.042  12.307 -0.4742  0.2337  0.0922
   38DOPE   O11 4787   4.543   5.111  12.420  0.8602  0.4864  0.6361
   38DOPE   O12 4788   4.548   5.002  12.190 -0.2862 -0.1977  0.0371
   38DOPE    C1 4789   4.518   4.984  12.486  0.3895  0.2688 -0.6503
   38DOPE    HA 4790   4.598   4.908  12.480  1.4324  1.3977 -1.5129
   38DOPE    HB 4791   4.429   4.934  12.442  1.9473 -3.3465  0.0079
   38DOPE    C2 4792   4.485   5.001  12.636  1.0720  0.7040 -0.2918
   38DOPE    HS 4793   4.422   4.920  12.677  1.6161  1.2418  1.6855
   38DOPE   O21 4794   4.419   5.129  12.659  0.4016  0.0103 -0.4732
   38DOPE   C21 4795   4.288   5.134  12.643  0.0355  0.1740  0.2634
   38DOPE   O22 4796   4.215   5.045  12.600  0.3110  0.1962 -0.3828
   38DOPE   C22 4797   4.236   5.276  12.697 -0.1833 -0.4107 -0.4028
   38DOPE   H2R 4798   4.126   5.274  12.684  0.0297 -0.4400 -2.7243
   38DOPE   H2S 4799   4.286   5.353  12.634  0.8687 -0.4173  0.4031
   38DOPE    C3 4800   4.608   5.009  12.725  1.1651 -0.3495 -0.1356
   38DOPE    HX 4801   4.684   5.074  12.675 -0.1986  2.0046  0.7067
   38DOPE    HY 4802   4.642   4.903  12.729 -1.9698 -1.5591 -2.0072
   38DOPE   O31 4803   4.567   5.052  12.864 -0.6568  0.0605 -0.2586
   38DOPE   C31 4804   4.657   5.040  12.962 -0.2229 -0.3073  0.3917
   38DOPE   O32 4805   4.771   5.000  12.948 -0.4226 -0.1689  0.7295
   38DOPE   C32 4806   4.589   5.063  13.096 -0.0512 -0.6255 -0.3822
   38DOPE   H2X 4807   4.487   5.019  13.097 -0.5565  0.4498 -1.7725
   38DOPE   H2Y 4808   4.646   5.004  13.171  1.8441  2.1504  0.5298
   38DOPE   C23 4809   4.283   5.296  12.847  0.0397  0.5352 -0.4158
   38DOPE   H3R 4810   4.385   5.338  12.862 -0.2947  1.3422 -0.3067
   38DOPE   H3S 4811   4.273   5.197  12.895 -0.0254 -0.6948 -2.8233
   38DOPE   C24 4812   4.181   5.394  12.917  0.8065  0.1002  0.0731
   38DOPE   H4R 4813   4.074   5.374  12.896  0.9691  0.2644 -0.9395
   38DOPE   H4S 4814   4.194   5.499  12.884  1.7242 -0.0851 -0.1876
   38DOPE   C25 4815   4.220   5.415  13.061  0.2955  0.5398 -0.3642
   38DOPE   H5R 4816   4.328   5.438  13.073  0.1555  2.6823 -2.4854
   38DOPE   H5S 4817   4.188   5.316  13.100 -0.2718  0.1669 -1.7391
   38DOPE   C26 4818   4.138   5.523  13.128  0.6088 -0.1053 -0.2279
   38DOPE   H6R 4819   4.032   5.510  13.096  0.1960 -1.3761  1.5108
   38DOPE   H6S 4820   4.165   5.621  13.084 -1.8240  1.0010  0.5599
   38DOPE   C27 4821   4.163   5.534  13.278  0.1078 -0.4059 -0.7942
   38DOPE   H7R 4822   4.271   5.539  13.305  0.4579  2.2639 -2.2968
   38DOPE   H7S 4823   4.127   5.435  13.315  2.1375 -1.4335 -1.4404
   38DOPE   C28 4824   4.091   5.650  13.346  0.1170 -0.2659  0.1538
   38DOPE   H8R 4825   3.981   5.639  13.341  0.0297  1.0771 -2.1306
   38DOPE   H8S 4826   4.113   5.741  13.286  1.7096  0.5305  1.8495
   38DOPE   C29 4827   4.143   5.674  13.485  0.0860  0.3474  0.0115
   38DOPE   H9R 4828   4.088   5.611  13.556 -2.3053  0.9879 -1.1773
   38DOPE  C210 4829   4.231   5.764  13.530  0.2153  0.3552  0.0924
   38DOPE  H10R 4830   4.260   5.757  13.636  1.0580  0.8477 -0.1010
   38DOPE  C211 4831   4.309   5.842  13.436  0.7093 -0.4663 -0.3418
   38DOPE  H11R 4832   4.280   5.845  13.328 -0.9552  1.8811  0.0796
   38DOPE  H11S 4833   4.415   5.815  13.457  0.4635 -0.4949  0.9316
   38DOPE  C212 4834   4.317   5.995  13.466  0.1019  0.1293 -0.5609
   38DOPE  H12R 4835   4.335   6.018  13.574 -1.3936  1.1962 -0.4943
   38DOPE  H12S 4836   4.224   6.047  13.435  0.4010 -0.1005 -1.8711
   38DOPE  C213 4837   4.420   6.054  13.369  0.5632  0.0064  0.3937
   38DOPE  H13R 4838   4.376   6.064  13.268 -1.5779 -3.6552  0.7851
   38DOPE  H13S 4839   4.499   5.977  13.367 -1.5616 -2.3089 -2.0424
   38DOPE  C214 4840   4.472   6.192  13.410  0.3972 -0.1045  0.0436
   38DOPE  H14R 4841   4.550   6.232  13.342 -0.5127  0.0151 -0.9544
   38DOPE  H14S 4842   4.522   6.192  13.510 -0.2981  4.4037  0.5925
   38DOPE  C215 4843   4.354   6.291  13.419 -0.3137 -0.2776  0.3830
   38DOPE  H15R 4844   4.264   6.265  13.478 -1.1862 -2.9724 -1.8757
   38DOPE  H15S 4845   4.322   6.305  13.314 -0.1710 -0.5202  0.3050
   38DOPE  C216 4846   4.405   6.423  13.479  0.0386  0.0497  0.3622
   38DOPE  H16R 4847   4.339   6.503  13.436 -1.0925 -2.5777 -3.3139
   38DOPE  H16S 4848   4.513   6.436  13.456 -0.4786  3.9699 -0.6500
   38DOPE  C217 4849   4.392   6.434  13.630  0.0267  0.1417 -0.0578
   38DOPE  H17R 4850   4.449   6.348  13.670 -0.4689  0.6544  1.8673
   38DOPE  H17S 4851   4.293   6.424  13.680  0.5885 -1.8083  0.7641
   38DOPE  C218 4852   4.457   6.561  13.675  0.1365  0.1875 -0.0410
   38DOPE  H18R 4853   4.464   6.556  13.785 -0.4004 -1.4146 -0.0566
   38DOPE  H18S 4854   4.403   6.653  13.643 -2.3581 -0.0357  3.0226
   38DOPE  H18T 4855   4.563   6.584  13.653  0.3625 -0.0029  0.8111
   38DOPE   C33 4856   4.600   5.211  13.134  0.1888  0.6783  0.4450
   38DOPE   H3X 4857   4.553   5.275  13.056 -0.7903  1.0871  1.3563
   38DOPE   H3Y 4858   4.708   5.234  13.147  0.7963 -1.2316 -0.7699
   38DOPE   C34 4859   4.531   5.234  13.265  0.4700 -0.2223 -0.4211
   38DOPE   H4X 4860   4.420   5.224  13.267  0.4320  0.1951 -0.5131
   38DOPE   H4Y 4861   4.566   5.160  13.340  0.0911  1.0472  1.0422
   38DOPE   C35 4862   4.556   5.375  13.327  0.5744 -0.2462  0.0996
   38DOPE   H5X 4863   4.536   5.459  13.257  2.2057  0.0842 -0.0168
   38DOPE   H5Y 4864   4.664   5.382  13.351  0.5560  1.4712 -0.1864
   38DOPE   C36 4865   4.485   5.409  13.456  0.3854  0.3899  0.4639
   38DOPE   H6X 4866   4.376   5.399  13.434  0.8888 -1.8246 -1.4357
   38DOPE   H6Y 4867   4.500   5.516  13.479 -0.3896  0.4527  0.7033
   38DOPE   C37 4868   4.504   5.310  13.569  0.2818 -0.1049  0.0918
   38DOPE   H7X 4869   4.474   5.208  13.537 -1.2433  1.2465 -3.3156
   38DOPE   H7Y 4870   4.608   5.297  13.605  0.8316  1.5000 -0.8222
   38DOPE   C38 4871   4.411   5.340  13.696  0.0209 -0.5686 -0.3744
   38DOPE   H8X 4872   4.409   5.253  13.764 -0.2352 -1.8433 -1.9562
   38DOPE   H8Y 4873   4.305   5.336  13.661 -0.9772  1.5922  2.0596
   38DOPE   C39 4874   4.431   5.474  13.769 -0.1316  0.9577  0.7668
   38DOPE   H9X 4875   4.402   5.561  13.708 -0.3698  0.1870 -0.2410
   38DOPE  C310 4876   4.474   5.489  13.898  0.3129 -0.2581  0.3383
   38DOPE  H10X 4877   4.469   5.588  13.947  3.0192  0.9619 -1.5977
   38DOPE  C311 4878   4.484   5.381  14.001  0.9940  0.8235 -0.3652
   38DOPE  H11X 4879   4.383   5.352  14.037  1.1700  1.2405  0.5029
   38DOPE  H11Y 4880   4.531   5.288  13.960 -0.5020 -0.4038  0.5797
   38DOPE  C312 4881   4.577   5.411  14.122  0.0413 -0.0558  0.6505
   38DOPE  H12X 4882   4.537   5.504  14.168  1.9001  1.7184 -1.1022
   38DOPE  H12Y 4883   4.677   5.434  14.078 -2.5382  2.7382 -4.7637
   38DOPE  C313 4884   4.597   5.302  14.226 -0.4132  0.0496 -1.0893
   38DOPE  H13X 4885   4.506   5.257  14.269 -0.5405 -2.1073 -3.3774
   38DOPE  H13Y 4886   4.655   5.217  14.183 -1.0122  0.6753 -3.2620
   38DOPE  C314 4887   4.677   5.355  14.341 -0.0321  0.2093  0.0658
   38DOPE  H14X 4888   4.632   5.443  14.390 -0.2326  0.7610 -1.0701
   38DOPE  H14Y 4889   4.771   5.398  14.300  0.3997 -1.1588 -0.4335
   38DOPE  C315 4890   4.722   5.244  14.447  0.2279 -0.8842  0.4771
   38DOPE  H15X 4891   4.630   5.201  14.490  1.4493 -0.5009  3.7299
   38DOPE  H15Y 4892   4.773   5.299  14.529 -0.1920  0.6848 -0.2789
   38DOPE  C316 4893   4.810   5.133  14.395 -0.9416 -0.5398  0.3863
   38DOPE  H16X 4894   4.913   5.173  14.384 -0.5489 -1.8372 -0.9406
   38DOPE  H16Y 4895   4.771   5.099  14.297 -2.6503  0.1101  0.8011
   38DOPE  C317 4896   4.822   5.008  14.481  0.3533  0.5089  0.3176
   38DOPE  H17X 4897   4.903   5.023  14.556 -1.2004 -1.0014  2.4097
   38DOPE  H17Y 4898   4.729   4.990  14.538 -1.3131  0.4991 -2.2672
   38DOPE  C318 4899   4.863   4.881  14.404  0.4131  0.1236  0.3231
   38DOPE  H18X 4900   4.880   4.783  14.454  0.8979  0.8252  1.5897
   38DOPE  H18Y 4901   4.795   4.857  14.320  1.8884  0.4664 -1.0017
   38DOPE  H18Z 4902   4.960   4.907  14.358  0.1125  2.7596  1.0062
   39DOPE     N 4903   1.057   3.200  11.892  0.1026 -0.6977 -0.1844
   39DOPE   HN1 4904   1.062   3.262  11.809  1.2365 -3.1670 -2.0779
   39DOPE   HN2 4905   1.137   3.205  11.959  1.2397 -0.3084 -1.5389
   39DOPE   HN3 4906   1.042   3.104  11.856 -0.8972 -0.3762 -0.6677
   39DOPE   C12 4907   0.932   3.226  11.976  0.0270 -0.0749  0.4583
   39DOPE  H12A 4908   0.915   3.140  12.044 -0.0144  0.0766  0.6398
   39DOPE  H12B 4909   0.851   3.243  11.902  1.1478  0.1961 -0.7457
   39DOPE   C11 4910   0.963   3.353  12.058 -0.5495 -0.3483 -0.6294
   39DOPE  H11A 4911   1.039   3.330  12.136 -0.0638  1.2541 -0.5852
   39DOPE  H11B 4912   0.876   3.386  12.118  1.6467  1.9242  1.5237
   39DOPE     P 4913   1.149   3.527  11.968  0.6120  0.1109  0.0753
   39DOPE   O13 4914   1.130   3.664  11.918  0.1499  0.1608  0.1467
   39DOPE   O14 4915   1.234   3.434  11.887  0.0920  0.1402  0.1693
   39DOPE   O11 4916   1.197   3.527  12.123  0.1154 -0.0998 -0.4005
   39DOPE   O12 4917   1.005   3.465  11.978  0.1275  0.2225  0.4350
   39DOPE    C1 4918   1.129   3.603  12.225 -0.7028  0.2205 -0.2684
   39DOPE    HA 4919   1.093   3.534  12.305  1.7826  0.0249  0.7762
   39DOPE    HB 4920   1.046   3.670  12.191 -1.6816 -0.2098  1.1535
   39DOPE    C2 4921   1.231   3.702  12.288  0.1401 -0.3480  0.0623
   39DOPE    HS 4922   1.283   3.756  12.207 -2.5787  0.2519 -1.4168
   39DOPE   O21 4923   1.325   3.629  12.368  0.3102  0.2810  0.0407
   39DOPE   C21 4924   1.431   3.692  12.407  0.9354  0.3015 -0.0524
   39DOPE   O22 4925   1.455   3.811  12.395  0.2021 -0.3037 -0.2440
   39DOPE   C22 4926   1.498   3.606  12.510  0.6370  0.8058  0.0499
   39DOPE   H2R 4927   1.565   3.545  12.446  0.1100 -0.4889  0.6943
   39DOPE   H2S 4928   1.418   3.546  12.559 -0.6921  1.8077 -0.8111
   39DOPE    C3 4929   1.165   3.820  12.361  0.8571 -0.0124 -0.0116
   39DOPE    HX 4930   1.108   3.880  12.287 -0.9979  2.2475  3.0087
   39DOPE    HY 4931   1.240   3.897  12.388  0.4437  0.0983  0.8706
   39DOPE   O31 4932   1.083   3.788  12.472  0.4261 -0.3671 -0.0007
   39DOPE   C31 4933   1.031   3.890  12.536  1.2289  0.5097 -0.1169
   39DOPE   O32 4934   1.054   4.006  12.513  0.0379 -0.4029  0.3261
   39DOPE   C32 4935   0.953   3.836  12.658  0.5375  0.0625  0.7500
   39DOPE   H2X 4936   0.915   3.734  12.633  1.6085 -0.2183  0.1881
   39DOPE   H2Y 4937   1.035   3.819  12.730  0.4375  0.8832  1.0605
   39DOPE   C23 4938   1.585   3.677  12.604 -0.1607  0.0287  0.1904
   39DOPE   H3R 4939   1.527   3.752  12.661  1.9835  0.9908  1.2253
   39DOPE   H3S 4940   1.653   3.746  12.548 -1.7689  0.8884 -0.7795
   39DOPE   C24 4941   1.669   3.581  12.689 -0.8277 -0.5208 -0.4265
   39DOPE   H4R 4942   1.758   3.629  12.733  0.5188 -2.4983 -0.8650
   39DOPE   H4S 4943   1.707   3.503  12.620 -1.7671 -0.2012 -1.3277
   39DOPE   C25 4944   1.600   3.501  12.805  0.4186 -1.0825  1.0939
   39DOPE   H5R 4945   1.558   3.404  12.770 -0.7228 -0.5813  1.0282
   39DOPE   H5S 4946   1.510   3.548  12.851  0.6110 -0.0040  0.4110
   39DOPE   C26 4947   1.689   3.456  12.919  0.3419  0.0362 -0.3849
   39DOPE   H6R 4948   1.711   3.544  12.983 -0.9017  0.6917 -0.8092
   39DOPE   H6S 4949   1.780   3.411  12.873 -0.3093 -1.8516  0.0802
   39DOPE   C27 4950   1.618   3.351  13.002 -0.1490 -0.1684  0.0867
   39DOPE   H7R 4951   1.594   3.268  12.933 -1.8672 -0.8951  1.4785
   39DOPE   H7S 4952   1.521   3.388  13.043  0.0421  1.9765 -1.2691
   39DOPE   C28 4953   1.707   3.302  13.115 -0.1024 -0.4228 -0.1546
   39DOPE   H8R 4954   1.636   3.266  13.193 -1.2516  0.5045 -0.7390
   39DOPE   H8S 4955   1.750   3.396  13.155 -0.6633  0.8423 -2.3351
   39DOPE   C29 4956   1.811   3.196  13.078 -0.1819 -1.0851 -0.0336
   39DOPE   H9R 4957   1.864   3.222  12.985  0.3980 -1.9081  0.0625
   39DOPE  C210 4958   1.818   3.072  13.121  0.5293 -0.1984 -0.2212
   39DOPE  H10R 4959   1.904   3.013  13.087  1.2895  0.8978 -0.2540
   39DOPE  C211 4960   1.735   2.991  13.217  0.0221  0.1831  0.1775
   39DOPE  H11R 4961   1.726   2.886  13.183 -0.6677  0.2136  0.2412
   39DOPE  H11S 4962   1.634   3.038  13.224 -1.2909 -2.1339 -1.5989
   39DOPE  C212 4963   1.790   2.992  13.360 -0.3623 -0.0957 -0.0062
   39DOPE  H12R 4964   1.806   3.100  13.381 -1.7867 -0.0672  1.1235
   39DOPE  H12S 4965   1.890   2.945  13.370 -0.8226 -1.2762 -0.7288
   39DOPE  C213 4966   1.695   2.928  13.462  0.0887 -0.5822  0.4569
   39DOPE  H13R 4967   1.690   2.820  13.436  3.9750 -0.2990 -2.4762
   39DOPE  H13S 4968   1.595   2.971  13.442  0.0972 -0.9190 -0.3395
   39DOPE  C214 4969   1.725   2.954  13.606 -0.1890 -0.1275  0.6774
   39DOPE  H14R 4970   1.701   3.058  13.638  0.2794 -0.5109  2.3554
   39DOPE  H14S 4971   1.831   2.936  13.635  0.6528  1.2208 -1.3834
   39DOPE  C215 4972   1.641   2.855  13.686  1.2255  0.2813 -0.7034
   39DOPE  H15R 4973   1.671   2.875  13.790  0.4255 -1.3861 -0.1151
   39DOPE  H15S 4974   1.661   2.747  13.670  1.8511 -0.4503  3.7651
   39DOPE  C216 4975   1.486   2.881  13.674 -0.0914  0.5366  0.2497
   39DOPE  H16R 4976   1.443   2.827  13.587  1.8017  1.5876 -1.4174
   39DOPE  H16S 4977   1.478   2.991  13.661 -0.9489  0.4040 -0.4400
   39DOPE  C217 4978   1.414   2.833  13.802  0.1948  0.3046 -0.6353
   39DOPE  H17R 4979   1.461   2.887  13.888 -0.8125  0.0064  0.1142
   39DOPE  H17S 4980   1.439   2.726  13.813  0.3811  0.3708 -0.3974
   39DOPE  C218 4981   1.266   2.852  13.792 -0.1922  0.1879  0.2664
   39DOPE  H18R 4982   1.221   2.808  13.883  0.2875  0.2031  0.5175
   39DOPE  H18S 4983   1.228   2.813  13.696  1.5818 -1.7559  0.2820
   39DOPE  H18T 4984   1.237   2.959  13.804 -0.4526 -0.0777  2.3600
   39DOPE   C33 4985   0.845   3.927  12.726 -0.0293 -0.5343  0.4276
   39DOPE   H3X 4986   0.774   3.950  12.643 -1.3483  0.2644  1.7241
   39DOPE   H3Y 4987   0.893   4.017  12.771  0.3615 -1.3872  1.7847
   39DOPE   C34 4988   0.778   3.862  12.842 -0.3902 -0.0087  0.0863
   39DOPE   H4X 4989   0.767   3.755  12.816 -0.9157 -0.1047  0.6863
   39DOPE   H4Y 4990   0.841   3.868  12.933 -0.8179  0.5104  0.3530
   39DOPE   C35 4991   0.638   3.916  12.862  0.9399  0.2112 -0.1284
   39DOPE   H5X 4992   0.573   3.898  12.774  1.0074 -1.1075  0.0827
   39DOPE   H5Y 4993   0.632   4.026  12.878  0.2138 -0.0184  1.3389
   39DOPE   C36 4994   0.570   3.845  12.981 -0.3034  0.2182  0.3686
   39DOPE   H6X 4995   0.637   3.841  13.069  0.2819 -0.0068 -0.0794
   39DOPE   H6Y 4996   0.557   3.746  12.931 -1.1740  0.2930  0.4351
   39DOPE   C37 4997   0.445   3.923  13.021  0.2095  0.5106  0.5484
   39DOPE   H7X 4998   0.457   4.022  13.069 -0.4803  1.4464 -1.1342
   39DOPE   H7Y 4999   0.402   3.956  12.924 -1.0230 -1.2954  0.4483
   39DOPE   C38 5000   0.353   3.846  13.116 -0.3739 -0.1167 -0.2363
   39DOPE   H8X 5001   0.254   3.893  13.098  0.4540  1.3520 -1.0685
   39DOPE   H8Y 5002   0.383   3.874  13.219  0.8546  3.2487 -1.3767
   39DOPE   C39 5003   0.337   3.695  13.094 -0.0055  0.2446 -0.1524
   39DOPE   H9X 5004   0.315   3.661  12.992  0.0765 -1.6031  0.4134
   39DOPE  C310 5005   0.368   3.586  13.176 -0.0349 -0.3187  0.1337
   39DOPE  H10X 5006   0.344   3.487  13.133 -1.0414  0.5350 -1.3359
   39DOPE  C311 5007   0.411   3.580  13.319  0.0404 -0.6087  0.1523
   39DOPE  H11X 5008   0.346   3.640  13.387 -0.1404  1.0700 -1.4217
   39DOPE  H11Y 5009   0.405   3.476  13.357  2.2236  0.2680  3.3345
   39DOPE  C312 5010   0.562   3.621  13.338  0.0790 -0.2644  0.2389
   39DOPE  H12X 5011   0.579   3.726  13.304 -1.1508 -1.2064 -3.8549
   39DOPE  H12Y 5012   0.625   3.565  13.265 -0.2629 -2.5781  1.6369
   39DOPE  C313 5013   0.623   3.602  13.475 -0.0827  0.9594  0.0092
   39DOPE  H13X 5014   0.563   3.656  13.550 -0.2632 -0.3048  0.7903
   39DOPE  H13Y 5015   0.621   3.496  13.508 -0.1598  1.1368  0.5703
   39DOPE  C314 5016   0.768   3.649  13.481  0.0353  0.3263 -0.1696
   39DOPE  H14X 5017   0.771   3.758  13.505  0.6407  0.3367 -0.2795
   39DOPE  H14Y 5018   0.818   3.626  13.385  0.5706  3.3318 -0.7291
   39DOPE  C315 5019   0.853   3.577  13.587  0.1504 -0.2283 -0.7743
   39DOPE  H15X 5020   0.868   3.468  13.571 -0.4387 -0.0361 -2.8625
   39DOPE  H15Y 5021   0.801   3.594  13.684  0.1044  0.7257 -0.9512
   39DOPE  C316 5022   0.986   3.640  13.604 -0.3970 -0.2050 -0.1879
   39DOPE  H16X 5023   0.961   3.745  13.629 -2.0418 -0.1921 -1.6941
   39DOPE  H16Y 5024   1.048   3.642  13.511  0.1321  1.0028  0.1769
   39DOPE  C317 5025   1.085   3.573  13.707  0.2548  0.7386 -0.0173
   39DOPE  H17X 5026   1.035   3.582  13.806  2.8455  3.1570  1.2282
   39DOPE  H17Y 5027   1.086   3.464  13.686  1.2166  0.9878 -1.3830
   39DOPE  C318 5028   1.225   3.627  13.730 -0.3793 -0.4084  0.3219
   39DOPE  H18X 5029   1.272   3.574  13.815  2.2052 -1.0546 -1.3676
   39DOPE  H18Y 5030   1.285   3.624  13.636  1.6885 -1.2625  1.5975
   39DOPE  H18Z 5031   1.211   3.734  13.755 -0.1683 -0.5015  0.8357
   40DOPE     N 5032   4.604   5.509  12.191 -0.6926 -0.4524 -0.3658
   40DOPE   HN1 5033   4.563   5.547  12.103 -2.1057 -0.2241  0.3689
   40DOPE   HN2 5034   4.706   5.528  12.197 -0.5720 -1.3685  0.8747
   40DOPE   HN3 5035   4.595   5.407  12.208  0.4407 -0.2874  1.3785
   40DOPE   C12 5036   4.547   5.569  12.314 -0.3519 -0.2731  0.7804
   40DOPE  H12A 5037   4.517   5.673  12.286  0.0766 -0.4440 -0.3706
   40DOPE  H12B 5038   4.625   5.573  12.393 -0.7770  1.1170  1.1723
   40DOPE   C11 5039   4.434   5.479  12.362  0.1519  0.7790 -0.5000
   40DOPE  H11A 5040   4.405   5.535  12.455  1.9984  1.1421 -0.0979
   40DOPE  H11B 5041   4.458   5.375  12.392  1.3275  1.2073  0.1321
   40DOPE     P 5042   4.189   5.544  12.288  0.1262  0.6788 -0.1378
   40DOPE   O13 5043   4.105   5.507  12.175 -0.3769  0.0707 -0.5609
   40DOPE   O14 5044   4.217   5.687  12.309 -0.0722  0.6386  0.0219
   40DOPE   O11 5045   4.143   5.471  12.416  0.1555 -0.2055  0.7561
   40DOPE   O12 5046   4.329   5.481  12.267 -0.4033 -0.4805  0.3762
   40DOPE    C1 5047   4.034   5.381  12.428  0.1222  0.4410  0.1966
   40DOPE    HA 5048   4.070   5.299  12.494  0.4821  0.0505 -0.4721
   40DOPE    HB 5049   4.007   5.333  12.331  1.3405 -0.2061  0.1618
   40DOPE    C2 5050   3.913   5.458  12.498 -0.6026 -0.2348 -0.0075
   40DOPE    HS 5051   3.885   5.540  12.428  2.8086  0.5724 -0.6285
   40DOPE   O21 5052   3.949   5.519  12.622 -0.0612 -0.7581 -0.3787
   40DOPE   C21 5053   3.883   5.630  12.668 -0.4735 -0.6469 -0.9123
   40DOPE   O22 5054   3.804   5.694  12.603 -0.3291 -0.6075 -0.3185
   40DOPE   C22 5055   3.914   5.655  12.814 -0.2077 -0.5781  0.4080
   40DOPE   H2R 5056   4.023   5.667  12.831 -0.0194  0.2691 -1.2280
   40DOPE   H2S 5057   3.888   5.564  12.872 -0.6424 -0.9986 -0.4328
   40DOPE    C3 5058   3.797   5.353  12.528 -0.3957 -0.3092 -0.4687
   40DOPE    HX 5059   3.769   5.304  12.432 -0.9139  1.1988 -1.1190
   40DOPE    HY 5060   3.712   5.408  12.573 -0.7242  0.9419 -2.4802
   40DOPE   O31 5061   3.859   5.254  12.611  0.1960  0.4581  0.2209
   40DOPE   C31 5062   3.809   5.243  12.731 -0.2557 -0.2384  0.1683
   40DOPE   O32 5063   3.735   5.323  12.785 -0.2252 -0.3169 -0.0224
   40DOPE   C32 5064   3.875   5.121  12.797 -0.4092 -0.3806  0.4262
   40DOPE   H2X 5065   3.875   5.038  12.723 -2.2194  1.8543 -2.2710
   40DOPE   H2Y 5066   3.983   5.143  12.810 -0.6262 -0.1641  2.1769
   40DOPE   C23 5067   3.845   5.774  12.882 -0.0803  0.3172  0.3511
   40DOPE   H3R 5068   3.735   5.785  12.878 -0.3167 -0.7146  2.6042
   40DOPE   H3S 5069   3.883   5.868  12.837 -1.3237  0.1225 -1.1948
   40DOPE   C24 5070   3.869   5.785  13.025  0.8480  0.2361 -0.3269
   40DOPE   H4R 5071   3.979   5.790  13.044  1.2173 -1.1282 -1.9130
   40DOPE   H4S 5072   3.820   5.703  13.081 -0.6954  1.1504 -0.2928
   40DOPE   C25 5073   3.811   5.910  13.088 -0.7752  0.3026  0.7126
   40DOPE   H5R 5074   3.700   5.910  13.086 -0.8342 -1.8972  1.0646
   40DOPE   H5S 5075   3.852   5.995  13.029  0.6379 -1.4542 -0.9605
   40DOPE   C26 5076   3.849   5.923  13.233  0.2637  0.5033  0.8234
   40DOPE   H6R 5077   3.958   5.916  13.255  0.1225 -0.8746  1.1650
   40DOPE   H6S 5078   3.805   5.841  13.294  1.4375 -1.2862 -0.6374
   40DOPE   C27 5079   3.799   6.061  13.277  0.5461  0.3559  0.1624
   40DOPE   H7R 5080   3.696   6.064  13.237  0.0466  0.7368  1.4296
   40DOPE   H7S 5081   3.863   6.135  13.224  1.0794 -0.2268 -0.0251
   40DOPE   C28 5082   3.782   6.081  13.426 -0.9476 -0.0008 -0.0784
   40DOPE   H8R 5083   3.697   6.018  13.459  0.7742 -1.3608  1.9570
   40DOPE   H8S 5084   3.741   6.184  13.434 -0.5708  0.0778  0.9636
   40DOPE   C29 5085   3.910   6.055  13.509 -0.2435 -0.3405  0.2103
   40DOPE   H9R 5086   3.963   5.961  13.488 -1.5186 -0.3354 -3.9871
   40DOPE  C210 5087   3.967   6.139  13.601 -0.6174 -0.0951 -0.1799
   40DOPE  H10R 5088   4.060   6.109  13.652  0.6706  2.5746 -0.7818
   40DOPE  C211 5089   3.913   6.276  13.643 -0.1687  0.7649 -0.4980
   40DOPE  H11R 5090   3.806   6.283  13.614 -1.2149 -1.3022  2.3466
   40DOPE  H11S 5091   3.982   6.343  13.589 -0.4159  1.5506  0.1481
   40DOPE  C212 5092   3.915   6.295  13.791  0.5744 -0.8313 -0.3665
   40DOPE  H12R 5093   4.018   6.268  13.822  0.4974  1.1433  1.8925
   40DOPE  H12S 5094   3.850   6.230  13.853  0.7708  1.2044  2.1081
   40DOPE  C213 5095   3.891   6.448  13.821 -0.3371  0.0150  0.0983
   40DOPE  H13R 5096   3.815   6.498  13.757 -0.2725  1.0165  0.7709
   40DOPE  H13S 5097   3.987   6.502  13.808 -1.0371  1.3601  0.3770
   40DOPE  C214 5098   3.856   6.459  13.967 -0.0098  0.4215 -0.1319
   40DOPE  H14R 5099   3.934   6.428  14.040  1.4956  1.4910 -1.2229
   40DOPE  H14S 5100   3.766   6.396  13.980  0.4833 -0.2046  0.2769
   40DOPE  C215 5101   3.818   6.607  13.991 -0.9058  0.2491  0.9531
   40DOPE  H15R 5102   3.767   6.610  14.090  0.0732  0.1673  1.4768
   40DOPE  H15S 5103   3.746   6.630  13.910 -0.9075 -3.7043 -0.3755
   40DOPE  C216 5104   3.934   6.709  13.994  0.1988 -0.4436  0.1295
   40DOPE  H16R 5105   3.977   6.713  13.891 -2.4735 -0.4995 -1.0657
   40DOPE  H16S 5106   4.012   6.682  14.069 -0.7905  1.6600  2.0426
   40DOPE  C217 5107   3.892   6.850  14.031 -0.0722 -0.0052 -0.6996
   40DOPE  H17R 5108   3.804   6.846  14.098 -1.4805  1.9668 -2.3101
   40DOPE  H17S 5109   3.840   6.903  13.949 -3.5022 -0.2900  1.1272
   40DOPE  C218 5110   4.010   6.927  14.080  0.2582  0.0002 -0.1457
   40DOPE  H18R 5111   3.981   7.031  14.108 -1.2750  0.0294 -1.7021
   40DOPE  H18S 5112   4.087   6.935  14.001  0.6589  0.8308  0.3115
   40DOPE  H18T 5113   4.059   6.872  14.163 -1.2411  1.1404  1.5896
   40DOPE   C33 5114   3.812   5.084  12.930 -0.7042 -0.2268 -0.9916
   40DOPE   H3X 5115   3.848   4.982  12.955  1.1824  1.2004  3.1187
   40DOPE   H3Y 5116   3.701   5.077  12.919 -0.4804 -0.2572 -3.9379
   40DOPE   C34 5117   3.861   5.166  13.047 -0.1051  0.1100  0.3267
   40DOPE   H4X 5118   3.972   5.176  13.040 -0.3648  3.4401 -0.9187
   40DOPE   H4Y 5119   3.825   5.269  13.031 -1.2699 -0.3036  0.2171
   40DOPE   C35 5120   3.830   5.105  13.183 -0.7805  0.0646 -1.1830
   40DOPE   H5X 5121   3.897   5.143  13.263 -2.1140 -1.1453  0.6036
   40DOPE   H5Y 5122   3.854   4.997  13.172 -1.8507 -0.3406  0.1551
   40DOPE   C36 5123   3.681   5.148  13.219  0.1505  0.3850  0.3599
   40DOPE   H6X 5124   3.610   5.103  13.147  1.4120 -0.7368 -0.2285
   40DOPE   H6Y 5125   3.674   5.259  13.224 -2.5860  0.2482  0.6017
   40DOPE   C37 5126   3.657   5.102  13.366  0.4251 -0.5124 -0.3243
   40DOPE   H7X 5127   3.690   5.000  13.393 -0.2934 -0.9921 -1.1693
   40DOPE   H7Y 5128   3.713   5.166  13.438  0.3393 -1.5590  0.7093
   40DOPE   C38 5129   3.511   5.109  13.404  0.1402 -0.3818  1.0934
   40DOPE   H8X 5130   3.457   5.049  13.328  2.4224  0.3919 -1.2734
   40DOPE   H8Y 5131   3.487   5.216  13.384 -0.7886 -0.8580 -0.5626
   40DOPE   C39 5132   3.471   5.068  13.539  0.3299 -0.2756  0.1573
   40DOPE   H9X 5133   3.465   4.959  13.553  2.0821 -0.4029  0.1024
   40DOPE  C310 5134   3.420   5.144  13.633  0.0991  0.3625 -0.7249
   40DOPE  H10X 5135   3.368   5.102  13.720 -3.2811  2.9615 -1.2556
   40DOPE  C311 5136   3.407   5.297  13.622 -0.4345  0.2996 -0.2239
   40DOPE  H11X 5137   3.409   5.339  13.725  1.5293 -1.9241  0.7315
   40DOPE  H11Y 5138   3.489   5.346  13.564  1.1537  0.0174  1.7009
   40DOPE  C312 5139   3.281   5.338  13.537 -0.2504  0.5996 -0.4648
   40DOPE  H12X 5140   3.184   5.294  13.571 -2.1835  1.4118 -4.3816
   40DOPE  H12Y 5141   3.302   5.306  13.433  0.7366  0.3107 -0.1881
   40DOPE  C313 5142   3.260   5.489  13.519 -0.3525  0.5189 -0.2570
   40DOPE  H13X 5143   3.355   5.536  13.485 -0.6205  0.0985 -1.6833
   40DOPE  H13Y 5144   3.174   5.512  13.451 -1.2130 -0.8544  0.3221
   40DOPE  C314 5145   3.224   5.565  13.648 -0.0083 -0.1980  0.2294
   40DOPE  H14X 5146   3.235   5.675  13.636 -4.6737  0.4676  0.2931
   40DOPE  H14Y 5147   3.304   5.531  13.717  0.9852  0.2492 -0.6878
   40DOPE  C315 5148   3.078   5.546  13.692 -0.2298 -0.4868 -0.3103
   40DOPE  H15X 5149   3.044   5.443  13.712  0.9422 -0.2072  4.3182
   40DOPE  H15Y 5150   3.028   5.587  13.602 -0.1934 -0.3199 -0.2563
   40DOPE  C316 5151   3.033   5.621  13.819  0.0338 -0.6069 -0.2401
   40DOPE  H16X 5152   3.097   5.711  13.827  0.8679 -1.1429 -0.7516
   40DOPE  H16Y 5153   3.058   5.553  13.903 -0.4410  0.3070  0.6578
   40DOPE  C317 5154   2.875   5.638  13.815 -0.2921  0.6510 -0.2996
   40DOPE  H17X 5155   2.833   5.536  13.824 -0.0299  0.2913 -2.4980
   40DOPE  H17Y 5156   2.852   5.682  13.914 -1.8670 -0.5407 -0.1035
   40DOPE  C318 5157   2.812   5.726  13.704 -0.3998  0.1421  0.1281
   40DOPE  H18X 5158   2.805   5.675  13.605 -1.6419 -0.3889  0.4778
   40DOPE  H18Y 5159   2.707   5.742  13.736 -0.7607 -1.3420 -0.2349
   40DOPE  H18Z 5160   2.871   5.820  13.702  0.5128 -0.3486  1.9749
   41DOPE     N 5161   1.896   4.937  12.081  0.4740 -0.1249 -0.1099
   41DOPE   HN1 5162   1.952   4.924  11.994  3.6400 -0.6371  1.8153
   41DOPE   HN2 5163   1.831   5.018  12.077  1.6005  0.7621 -2.9121
   41DOPE   HN3 5164   1.965   4.972  12.151  1.5118 -0.8724 -0.7222
   41DOPE   C12 5165   1.853   4.808  12.154  0.1173  0.3972 -0.5131
   41DOPE  H12A 5166   1.782   4.763  12.081 -0.7943  1.8473 -0.5509
   41DOPE  H12B 5167   1.811   4.839  12.252  1.1006  0.7442 -0.1873
   41DOPE   C11 5168   1.975   4.708  12.177  0.2979 -0.3991 -0.2934
   41DOPE  H11A 5169   2.018   4.693  12.076 -1.0864  0.6407 -1.0765
   41DOPE  H11B 5170   1.925   4.616  12.216 -0.4279  1.0069  2.3974
   41DOPE     P 5171   2.179   4.665  12.326 -0.5442 -0.0790  0.2092
   41DOPE   O13 5172   2.307   4.744  12.353  0.0033  0.4181 -0.0743
   41DOPE   O14 5173   2.208   4.564  12.216  0.2590  0.0578  0.3515
   41DOPE   O11 5174   2.124   4.605  12.465 -0.1964 -0.0010  0.5903
   41DOPE   O12 5175   2.069   4.765  12.280  0.2177 -0.4207  0.6582
   41DOPE    C1 5176   2.036   4.678  12.552  0.3954  0.4749  0.2384
   41DOPE    HA 5177   1.943   4.621  12.573  0.5664  0.7010  1.7196
   41DOPE    HB 5178   2.010   4.779  12.514 -1.7005 -0.5976 -1.4290
   41DOPE    C2 5179   2.112   4.693  12.687 -0.7963 -0.2041 -0.5700
   41DOPE    HS 5180   2.198   4.757  12.659 -2.2560  1.2343 -2.0009
   41DOPE   O21 5181   2.147   4.567  12.741  0.2560  0.2967  0.0563
   41DOPE   C21 5182   2.226   4.577  12.842  0.2839  0.0771 -0.0531
   41DOPE   O22 5183   2.297   4.672  12.872  0.0786 -0.4768 -0.3149
   41DOPE   C22 5184   2.213   4.448  12.913  0.0202  0.3189  0.5025
   41DOPE   H2R 5185   2.251   4.368  12.845  1.9842  0.7970  0.9849
   41DOPE   H2S 5186   2.106   4.428  12.935 -0.5906  0.6615 -1.8526
   41DOPE    C3 5187   2.022   4.782  12.780 -0.3900  0.0515  0.8696
   41DOPE    HX 5188   2.013   4.884  12.737 -1.2740 -1.3098 -2.5421
   41DOPE    HY 5189   2.078   4.805  12.873 -0.1136  2.0817  0.2570
   41DOPE   O31 5190   1.894   4.718  12.810 -0.0906  0.1479 -0.3998
   41DOPE   C31 5191   1.783   4.793  12.784 -0.1456  0.0623 -0.6768
   41DOPE   O32 5192   1.776   4.891  12.716 -0.4645  0.1577 -0.9097
   41DOPE   C32 5193   1.659   4.725  12.847 -0.0697  0.3849 -0.0820
   41DOPE   H2X 5194   1.581   4.804  12.852 -0.1028  0.4807 -1.5241
   41DOPE   H2Y 5195   1.620   4.652  12.772 -0.1382  0.8042 -0.4548
   41DOPE   C23 5196   2.283   4.435  13.044 -0.0790  0.6989 -0.4125
   41DOPE   H3R 5197   2.261   4.509  13.124 -0.0333 -0.0993  0.3442
   41DOPE   H3S 5198   2.390   4.437  13.014 -0.4475  0.3261 -1.8416
   41DOPE   C24 5199   2.273   4.293  13.092 -0.4255 -0.0015  0.3404
   41DOPE   H4R 5200   2.339   4.285  13.182  1.0953 -2.1653 -0.8837
   41DOPE   H4S 5201   2.300   4.214  13.020  0.2800  0.4321  0.1143
   41DOPE   C25 5202   2.141   4.256  13.143  0.2396 -0.4323  0.1889
   41DOPE   H5R 5203   2.073   4.257  13.055  0.6367 -0.5737 -0.1271
   41DOPE   H5S 5204   2.100   4.330  13.214  1.7205  0.1485  0.4727
   41DOPE   C26 5205   2.141   4.126  13.226 -0.2654  0.5289 -0.5838
   41DOPE   H6R 5206   2.239   4.108  13.277 -0.0335 -0.3115 -1.2945
   41DOPE   H6S 5207   2.130   4.041  13.155 -0.3877  1.4670 -1.7250
   41DOPE   C27 5208   2.032   4.126  13.340 -0.0809 -0.0784  0.0064
   41DOPE   H7R 5209   2.037   4.017  13.358 -0.8606  0.0043  0.7708
   41DOPE   H7S 5210   1.931   4.155  13.303 -0.2806  1.3564  1.5809
   41DOPE   C28 5211   2.078   4.205  13.459  0.5388 -0.4740  0.0329
   41DOPE   H8R 5212   2.083   4.313  13.434 -1.4796 -0.4678 -0.5466
   41DOPE   H8S 5213   2.180   4.175  13.489  0.7771  1.3716  1.2135
   41DOPE   C29 5214   1.976   4.193  13.573 -0.2536  0.0152  0.0030
   41DOPE   H9R 5215   1.894   4.265  13.559  0.2527  0.4480 -0.7989
   41DOPE  C210 5216   1.985   4.127  13.688  0.1910  0.2284  0.3475
   41DOPE  H10R 5217   1.905   4.141  13.762  1.4745  1.6755  1.5297
   41DOPE  C211 5218   2.104   4.036  13.733 -0.3931 -0.1901 -0.2841
   41DOPE  H11R 5219   2.130   4.050  13.840  0.3657 -2.5970 -0.0913
   41DOPE  H11S 5220   2.193   4.068  13.676 -0.6836  3.1425  0.9086
   41DOPE  C212 5221   2.084   3.886  13.726 -0.3362  0.3763  0.3998
   41DOPE  H12R 5222   2.182   3.836  13.739 -2.1439 -2.9737  2.3973
   41DOPE  H12S 5223   2.056   3.854  13.623 -1.7194  0.0003  0.8720
   41DOPE  C213 5224   1.981   3.841  13.822 -0.2964  0.3101 -0.8888
   41DOPE  H13R 5225   1.895   3.912  13.819  0.7701  1.7092  0.1672
   41DOPE  H13S 5226   2.020   3.857  13.925 -4.0628  1.1790  0.5591
   41DOPE  C214 5227   1.934   3.696  13.814  0.1563 -0.2285 -0.5020
   41DOPE  H14R 5228   1.904   3.678  13.709  0.1834 -0.0035 -0.5491
   41DOPE  H14S 5229   1.842   3.674  13.873  0.1927 -2.5033 -1.2236
   41DOPE  C215 5230   2.044   3.589  13.840  0.3305  0.1099  0.4795
   41DOPE  H15R 5231   2.118   3.579  13.758 -0.1200 -3.1199  0.3321
   41DOPE  H15S 5232   1.996   3.489  13.824 -1.1928  1.0918 -1.4460
   41DOPE  C216 5233   2.101   3.592  13.977 -0.4012  0.0738  0.3442
   41DOPE  H16R 5234   2.162   3.684  13.989 -0.6163  0.2687 -0.0337
   41DOPE  H16S 5235   2.170   3.505  13.976  0.1510  0.4320 -2.4680
   41DOPE  C217 5236   2.005   3.604  14.093 -0.0691  0.3969 -1.2272
   41DOPE  H17R 5237   1.925   3.527  14.096  0.7657 -0.4763 -0.8186
   41DOPE  H17S 5238   1.948   3.697  14.075  0.5307  1.2651  1.0870
   41DOPE  C218 5239   2.069   3.603  14.233 -0.1141 -0.3443  0.5199
   41DOPE  H18R 5240   1.990   3.584  14.309 -1.1132 -2.2777 -0.8889
   41DOPE  H18S 5241   2.127   3.696  14.247  0.5926 -0.9759  1.9941
   41DOPE  H18T 5242   2.144   3.521  14.242  0.7915  0.5887  1.8823
   41DOPE   C33 5243   1.668   4.663  12.994 -0.5004  0.0818  0.2726
   41DOPE   H3X 5244   1.669   4.746  13.069 -2.1841 -0.3131  0.7815
   41DOPE   H3Y 5245   1.763   4.607  13.004 -0.7577 -0.1457  1.5763
   41DOPE   C34 5246   1.553   4.570  13.022 -0.2206  0.3776 -0.5854
   41DOPE   H4X 5247   1.463   4.628  12.993 -0.5620 -0.1132 -0.5168
   41DOPE   H4Y 5248   1.554   4.483  12.952 -0.5290 -0.2948  0.2229
   41DOPE   C35 5249   1.549   4.512  13.164 -0.3237  0.6466  0.0604
   41DOPE   H5X 5250   1.454   4.457  13.179  0.1510  0.4437  2.7958
   41DOPE   H5Y 5251   1.555   4.592  13.241  2.1924 -0.4169  1.0819
   41DOPE   C36 5252   1.668   4.423  13.200  0.0556 -0.7110 -0.3801
   41DOPE   H6X 5253   1.760   4.478  13.171  0.0575 -0.4613  0.0875
   41DOPE   H6Y 5254   1.674   4.324  13.151 -1.5578 -1.1532  0.2665
   41DOPE   C37 5255   1.659   4.409  13.354 -0.3007 -0.1083 -0.1274
   41DOPE   H7X 5256   1.762   4.376  13.381 -0.0298  1.1771  0.4903
   41DOPE   H7Y 5257   1.650   4.509  13.401 -3.0720  0.7809 -2.2943
   41DOPE   C38 5258   1.561   4.310  13.409 -0.0116 -0.7914  0.0687
   41DOPE   H8X 5259   1.462   4.349  13.376  0.7796  0.2908 -1.1167
   41DOPE   H8Y 5260   1.564   4.313  13.520 -1.4391  2.0632  0.1440
   41DOPE   C39 5261   1.577   4.175  13.352 -0.0997 -1.1661  0.2043
   41DOPE   H9X 5262   1.544   4.170  13.247  2.1142 -0.7687 -0.5559
   41DOPE  C310 5263   1.616   4.067  13.413  0.4927  0.1801  0.9159
   41DOPE  H10X 5264   1.631   3.975  13.354 -0.7078  0.6064 -0.1223
   41DOPE  C311 5265   1.636   4.048  13.566 -0.0436 -0.1823  0.4066
   41DOPE  H11X 5266   1.708   3.965  13.580  2.4405  1.3622 -2.1282
   41DOPE  H11Y 5267   1.677   4.141  13.612 -2.6134  0.6465  1.2327
   41DOPE  C312 5268   1.510   4.012  13.644 -0.3364  0.0557 -0.0681
   41DOPE  H12X 5269   1.460   3.936  13.582  0.8323  0.9118 -2.1623
   41DOPE  H12Y 5270   1.452   4.106  13.654  0.9426  0.9026 -0.3011
   41DOPE  C313 5271   1.545   3.959  13.782 -0.5885 -0.3828 -0.2671
   41DOPE  H13X 5272   1.605   3.867  13.767  0.4271  0.0302  1.0721
   41DOPE  H13Y 5273   1.603   4.030  13.845 -0.8259  0.6207 -1.1441
   41DOPE  C314 5274   1.418   3.920  13.858 -0.3785 -0.2315 -0.0472
   41DOPE  H14X 5275   1.373   3.834  13.805  0.2656 -0.0217 -0.9530
   41DOPE  H14Y 5276   1.348   4.006  13.854 -1.6804 -1.2846 -3.9753
   41DOPE  C315 5277   1.441   3.872  14.001  0.4234  0.4061  0.3746
   41DOPE  H15X 5278   1.339   3.865  14.045 -0.3010  4.3924 -0.2820
   41DOPE  H15Y 5279   1.490   3.953  14.059 -0.1704 -0.5016  2.2454
   41DOPE  C316 5280   1.497   3.730  14.003  0.4999 -0.1893  0.0258
   41DOPE  H16X 5281   1.567   3.716  13.918  1.7173  0.1198  0.9574
   41DOPE  H16Y 5282   1.427   3.644  13.992  1.5821 -1.0603 -0.2475
   41DOPE  C317 5283   1.596   3.704  14.123 -0.4448 -0.1356  0.5951
   41DOPE  H17X 5284   1.638   3.602  14.111  2.3922  0.7929  1.7625
   41DOPE  H17Y 5285   1.682   3.773  14.115 -0.4905 -0.2795 -1.7210
   41DOPE  C318 5286   1.519   3.720  14.254  0.1907 -0.7563 -0.0407
   41DOPE  H18X 5287   1.585   3.718  14.344 -0.8524 -1.6138  0.7252
   41DOPE  H18Y 5288   1.477   3.823  14.259  0.6987 -0.4591 -1.3167
   41DOPE  H18Z 5289   1.437   3.646  14.265 -0.6783 -0.1837 -2.1592
   42DOPE     N 5290   0.769   4.451  12.331  0.2755  0.4814 -0.0552
   42DOPE   HN1 5291   0.840   4.490  12.394 -0.1518  1.2668 -0.0518
   42DOPE   HN2 5292   0.672   4.475  12.359  0.8564  0.2616  2.2884
   42DOPE   HN3 5293   0.772   4.348  12.314 -1.3311  0.5291 -0.8760
   42DOPE   C12 5294   0.785   4.533  12.204 -0.4497  0.2279 -0.1500
   42DOPE  H12A 5295   0.746   4.635  12.224 -2.6407 -0.6980  0.6822
   42DOPE  H12B 5296   0.723   4.493  12.121  0.8126  0.9146 -1.4815
   42DOPE   C11 5297   0.939   4.536  12.174  0.0627  0.1026  0.5752
   42DOPE  H11A 5298   0.967   4.622  12.110  1.7622 -0.8326 -0.0117
   42DOPE  H11B 5299   0.959   4.441  12.119 -1.5245 -0.5523  1.0557
   42DOPE     P 5300   1.169   4.517  12.282 -0.0346  0.2220  0.3947
   42DOPE   O13 5301   1.241   4.646  12.285  0.5237 -0.0306 -0.2922
   42DOPE   O14 5302   1.197   4.425  12.167  0.1673 -0.1604  0.3189
   42DOPE   O11 5303   1.194   4.438  12.417 -0.2750 -0.3462  0.3783
   42DOPE   O12 5304   1.015   4.541  12.296 -0.1201  0.7658  0.4075
   42DOPE    C1 5305   1.160   4.516  12.540 -0.1686 -0.6073  0.5317
   42DOPE    HA 5306   1.052   4.516  12.566  0.1069  1.1460  1.8468
   42DOPE    HB 5307   1.197   4.620  12.533 -0.8727 -0.1955  2.4413
   42DOPE    C2 5308   1.249   4.462  12.659  0.0741  0.3563 -0.2112
   42DOPE    HS 5309   1.355   4.469  12.628 -0.0507  0.0872 -0.7127
   42DOPE   O21 5310   1.210   4.322  12.687  0.0251 -0.0034 -0.8136
   42DOPE   C21 5311   1.309   4.251  12.744  0.4453  0.0524  0.4208
   42DOPE   O22 5312   1.428   4.287  12.747  0.3333  0.2204  0.2835
   42DOPE   C22 5313   1.245   4.121  12.797  0.1357 -0.7183  0.5456
   42DOPE   H2R 5314   1.186   4.083  12.710 -0.3836 -2.0550  1.4324
   42DOPE   H2S 5315   1.168   4.143  12.874 -2.7215 -2.0157 -1.7444
   42DOPE    C3 5316   1.222   4.548  12.785  0.2984  0.3722 -1.0727
   42DOPE    HX 5317   1.243   4.654  12.760 -0.2285  1.3294  2.0582
   42DOPE    HY 5318   1.299   4.505  12.853  1.5654  0.5256 -2.3575
   42DOPE   O31 5319   1.088   4.522  12.836  0.4401  0.3127 -0.4852
   42DOPE   C31 5320   1.076   4.442  12.944  0.5232 -0.4512 -1.3551
   42DOPE   O32 5321   1.161   4.370  12.995 -0.5090  0.6319 -0.3608
   42DOPE   C32 5322   0.931   4.450  12.987  0.0144 -0.2328  0.4495
   42DOPE   H2X 5323   0.900   4.554  13.012  0.7901  0.0552  0.2555
   42DOPE   H2Y 5324   0.869   4.417  12.901  1.3434 -1.7588  0.0293
   42DOPE   C23 5325   1.341   4.004  12.829  0.7975  0.1664 -0.9903
   42DOPE   H3R 5326   1.390   3.956  12.742 -0.5434  0.5440 -1.9701
   42DOPE   H3S 5327   1.279   3.918  12.862  0.7235  0.5454 -0.1052
   42DOPE   C24 5328   1.424   4.036  12.955  0.1499 -0.1850  0.1724
   42DOPE   H4R 5329   1.362   4.052  13.046  0.1086 -1.4704  0.3963
   42DOPE   H4S 5330   1.486   4.126  12.936  0.2559 -0.4884 -1.0104
   42DOPE   C25 5331   1.524   3.923  12.986 -0.5184 -0.0831 -0.2950
   42DOPE   H5R 5332   1.616   3.979  13.014  0.5138 -0.8087 -2.0822
   42DOPE   H5S 5333   1.544   3.874  12.889 -3.6334  0.0721 -1.1081
   42DOPE   C26 5334   1.482   3.832  13.103  0.9008 -0.5624  0.5543
   42DOPE   H6R 5335   1.376   3.809  13.076  0.6811  0.8022  0.1697
   42DOPE   H6S 5336   1.489   3.884  13.201  3.2814 -1.1736  0.7511
   42DOPE   C27 5337   1.568   3.716  13.139  0.0645  0.4514  0.1255
   42DOPE   H7R 5338   1.675   3.739  13.154  0.1947 -0.1963  0.1944
   42DOPE   H7S 5339   1.553   3.652  13.049  0.8388  2.1149 -1.2567
   42DOPE   C28 5340   1.512   3.646  13.268  0.0176  0.2918  0.1143
   42DOPE   H8R 5341   1.544   3.540  13.255  0.3753  0.2182  1.4774
   42DOPE   H8S 5342   1.402   3.654  13.258 -0.4322 -3.5882  0.3504
   42DOPE   C29 5343   1.555   3.693  13.405 -1.0456  0.2486  0.1384
   42DOPE   H9R 5344   1.552   3.803  13.401 -0.0228  0.3079  0.7373
   42DOPE  C210 5345   1.557   3.620  13.519  0.6541 -0.6465  0.0803
   42DOPE  H10R 5346   1.572   3.672  13.615 -0.0676  0.4149 -0.3587
   42DOPE  C211 5347   1.533   3.471  13.535 -0.2750  0.5613 -0.9394
   42DOPE  H11R 5348   1.512   3.422  13.437  0.6728  0.9213 -1.3342
   42DOPE  H11S 5349   1.447   3.457  13.603 -0.1021  0.4398 -0.7470
   42DOPE  C212 5350   1.659   3.380  13.578 -0.1019  0.0904  0.4190
   42DOPE  H12R 5351   1.731   3.406  13.498 -0.9889  0.9084 -0.1481
   42DOPE  H12S 5352   1.629   3.274  13.564 -0.5720  0.4633 -1.7592
   42DOPE  C213 5353   1.711   3.410  13.713 -0.0523  0.5142  0.0387
   42DOPE  H13R 5354   1.738   3.517  13.730  0.4097  0.1882  1.5337
   42DOPE  H13S 5355   1.800   3.345  13.729 -1.5129 -1.1663  1.9322
   42DOPE  C214 5356   1.617   3.359  13.821  0.9644 -0.4177 -0.7425
   42DOPE  H14R 5357   1.583   3.256  13.795 -1.7915 -0.7331  3.2739
   42DOPE  H14S 5358   1.526   3.422  13.814  0.4851 -0.9101  0.6449
   42DOPE  C215 5359   1.685   3.363  13.950 -1.1252  0.2520 -0.1530
   42DOPE  H15R 5360   1.615   3.376  14.035 -1.4424  0.8600 -0.5027
   42DOPE  H15S 5361   1.770   3.435  13.949 -0.1458 -0.8629 -0.9133
   42DOPE  C216 5362   1.761   3.230  13.976  0.0797 -0.3455 -0.1261
   42DOPE  H16R 5363   1.812   3.253  14.072 -1.1663  1.8806  0.0747
   42DOPE  H16S 5364   1.839   3.208  13.900 -1.1235  0.5842 -1.6931
   42DOPE  C217 5365   1.663   3.112  13.997  0.4393  0.5058 -0.2793
   42DOPE  H17R 5366   1.621   3.079  13.901 -1.0125  1.6889 -0.0865
   42DOPE  H17S 5367   1.575   3.140  14.059 -0.8470 -0.2252 -1.7070
   42DOPE  C218 5368   1.721   2.988  14.062  0.1116 -0.6427  0.2663
   42DOPE  H18R 5369   1.782   2.932  13.988  1.5087  2.7728 -1.4070
   42DOPE  H18S 5370   1.644   2.922  14.107 -0.2131 -0.8071 -0.5239
   42DOPE  H18T 5371   1.786   3.019  14.147 -0.2219  0.8253  0.0210
   42DOPE   C33 5372   0.889   4.345  13.089 -0.1430 -0.1420 -0.2329
   42DOPE   H3X 5373   0.792   4.384  13.127 -0.6279 -4.1496  3.4311
   42DOPE   H3Y 5374   0.944   4.330  13.184 -0.5672  0.9298  0.2007
   42DOPE   C34 5375   0.858   4.206  13.035 -0.0288 -0.0361 -0.7793
   42DOPE   H4X 5376   0.767   4.222  12.973  1.2201  2.1090 -2.1950
   42DOPE   H4Y 5377   0.945   4.158  12.986  0.0547  0.6382 -1.3059
   42DOPE   C35 5378   0.812   4.104  13.142 -0.0960  0.1836 -0.1479
   42DOPE   H5X 5379   0.896   4.093  13.214  0.0396  0.5165 -0.2546
   42DOPE   H5Y 5380   0.793   4.002  13.103 -1.3614  0.0067  0.8477
   42DOPE   C36 5381   0.690   4.152  13.225 -0.2104 -0.2299 -0.2587
   42DOPE   H6X 5382   0.610   4.166  13.148 -0.9304 -0.3112  0.4598
   42DOPE   H6Y 5383   0.718   4.253  13.262 -2.4232  0.2989  0.1117
   42DOPE   C37 5384   0.648   4.059  13.343  0.2587 -0.3639  0.2495
   42DOPE   H7X 5385   0.612   3.967  13.292 -2.0525  0.9911 -0.7165
   42DOPE   H7Y 5386   0.741   4.046  13.402  0.2839  0.9524  0.5107
   42DOPE   C38 5387   0.535   4.116  13.437  0.1836 -0.7848  0.1767
   42DOPE   H8X 5388   0.448   4.147  13.376  0.6173  1.8594  0.7814
   42DOPE   H8Y 5389   0.568   4.214  13.479 -0.7040  0.1162 -1.1480
   42DOPE   C39 5390   0.497   4.014  13.540 -0.4156 -0.0137 -0.2026
   42DOPE   H9X 5391   0.527   3.911  13.518 -0.5723  0.2712 -1.8911
   42DOPE  C310 5392   0.444   4.031  13.660 -0.3879 -0.0894  0.4234
   42DOPE  H10X 5393   0.419   3.948  13.727  0.6436 -1.1483 -0.4598
   42DOPE  C311 5394   0.406   4.164  13.717 -0.1572 -0.3201  0.2798
   42DOPE  H11X 5395   0.384   4.241  13.641  0.4113  1.3538  1.7573
   42DOPE  H11Y 5396   0.313   4.165  13.778 -0.9033  0.3933 -0.8291
   42DOPE  C312 5397   0.525   4.227  13.799  0.4640 -0.3737  0.5301
   42DOPE  H12X 5398   0.494   4.327  13.835  1.9960  0.9716 -1.6909
   42DOPE  H12Y 5399   0.604   4.247  13.724 -0.0411  0.2236  0.1504
   42DOPE  C313 5400   0.572   4.139  13.917 -0.1015  0.1873  0.0953
   42DOPE  H13X 5401   0.577   4.034  13.880 -2.1946  0.5518 -1.4347
   42DOPE  H13Y 5402   0.678   4.158  13.945 -0.6835  1.4686  1.5459
   42DOPE  C314 5403   0.472   4.144  14.033  0.0921  0.1537 -1.2317
   42DOPE  H14X 5404   0.371   4.134  13.988  0.3634 -1.1014 -1.6081
   42DOPE  H14Y 5405   0.483   4.248  14.072 -2.3523 -0.5305  1.5801
   42DOPE  C315 5406   0.501   4.042  14.144  0.7329 -0.3289 -0.1167
   42DOPE  H15X 5407   0.525   3.946  14.094  3.3625 -0.1104  0.5788
   42DOPE  H15Y 5408   0.414   4.023  14.210  0.7296  2.8126  0.9129
   42DOPE  C316 5409   0.622   4.077  14.234  0.6657 -0.5275  0.0272
   42DOPE  H16X 5410   0.585   4.165  14.290 -2.8276 -1.5141 -0.5053
   42DOPE  H16Y 5411   0.705   4.113  14.170 -0.2680 -0.1811 -1.0258
   42DOPE  C317 5412   0.659   3.968  14.329 -0.4617 -0.2658  0.5123
   42DOPE  H17X 5413   0.704   3.879  14.281  0.1016  1.2729 -1.9871
   42DOPE  H17Y 5414   0.726   4.008  14.409 -0.8821 -0.3517  0.9105
   42DOPE  C318 5415   0.530   3.924  14.407  0.1502 -0.2570  0.1636
   42DOPE  H18X 5416   0.471   4.009  14.447 -0.9139 -0.1985 -1.4364
   42DOPE  H18Y 5417   0.478   3.850  14.343 -0.0348 -1.5577  1.7733
   42DOPE  H18Z 5418   0.573   3.869  14.494  0.7609  1.4509  0.9907
   43DOPE     N 5419   0.856   2.613  12.050  0.5319  0.1650  0.2849
   43DOPE   HN1 5420   0.892   2.709  12.030  0.1097  0.3291  0.3141
   43DOPE   HN2 5421   0.846   2.550  11.968  1.6634 -1.3420  1.2426
   43DOPE   HN3 5422   0.763   2.613  12.097 -0.9649 -1.4814 -2.4165
   43DOPE   C12 5423   0.951   2.553  12.149  0.2385  0.2825 -0.7611
   43DOPE  H12A 5424   1.047   2.609  12.141  0.4641 -0.2262 -1.7667
   43DOPE  H12B 5425   0.964   2.450  12.110  1.2085  0.5501 -1.1730
   43DOPE   C11 5426   0.886   2.564  12.289 -0.3382  0.3186 -0.2987
   43DOPE  H11A 5427   0.900   2.666  12.331 -0.1144  0.2672 -0.2474
   43DOPE  H11B 5428   0.944   2.496  12.355  0.2706  2.1892  1.1563
   43DOPE     P 5429   0.672   2.471  12.406 -0.3553 -0.1916 -0.5548
   43DOPE   O13 5430   0.752   2.390  12.501 -0.2054 -0.2503 -0.2910
   43DOPE   O14 5431   0.546   2.411  12.360  0.2448  0.0028 -0.0541
   43DOPE   O11 5432   0.635   2.599  12.492 -0.1119  0.1652  0.3139
   43DOPE   O12 5433   0.745   2.540  12.285  0.4088  0.2210 -0.3582
   43DOPE    C1 5434   0.713   2.669  12.585 -0.2147  0.4772 -0.2178
   43DOPE    HA 5435   0.703   2.777  12.561 -3.1004  0.6484  1.3589
   43DOPE    HB 5436   0.823   2.651  12.581  0.1364  1.7825  1.9774
   43DOPE    C2 5437   0.649   2.653  12.732 -0.4597 -0.2677  0.5534
   43DOPE    HS 5438   0.707   2.724  12.795  1.2536  1.7262 -2.9956
   43DOPE   O21 5439   0.649   2.516  12.770  0.1958 -0.1318 -0.1293
   43DOPE   C21 5440   0.766   2.465  12.793 -0.6731  0.5965  0.1027
   43DOPE   O22 5441   0.869   2.533  12.795 -0.9742  0.1533  0.4500
   43DOPE   C22 5442   0.755   2.317  12.824 -0.3631  0.7438 -0.0169
   43DOPE   H2R 5443   0.859   2.283  12.846 -0.9585 -2.0156 -1.0119
   43DOPE   H2S 5444   0.715   2.268  12.732 -1.1857  0.9601  0.2201
   43DOPE    C3 5445   0.504   2.707  12.736 -0.1836  0.8824 -0.0508
   43DOPE    HX 5446   0.427   2.636  12.698 -1.1962  0.0816  3.1781
   43DOPE    HY 5447   0.498   2.794  12.669 -0.6184 -1.8650 -3.9131
   43DOPE   O31 5448   0.472   2.732  12.876  0.1679 -0.5844  0.2545
   43DOPE   C31 5449   0.345   2.770  12.896  0.5547  0.4713 -0.5329
   43DOPE   O32 5450   0.254   2.753  12.816  0.6489  0.5105  0.0794
   43DOPE   C32 5451   0.325   2.840  13.031 -0.5950 -1.0956  0.3733
   43DOPE   H2X 5452   0.394   2.927  13.034 -1.0829 -0.7133  2.6215
   43DOPE   H2Y 5453   0.221   2.879  13.034 -0.3966 -0.5341  3.5599
   43DOPE   C23 5454   0.652   2.291  12.938  0.0604 -0.3434  0.5737
   43DOPE   H3R 5455   0.620   2.185  12.951  3.1221 -1.2883  1.4139
   43DOPE   H3S 5456   0.561   2.345  12.906 -0.0103  0.5694  2.2074
   43DOPE   C24 5457   0.695   2.339  13.074  0.1114  0.3155 -0.1276
   43DOPE   H4R 5458   0.728   2.445  13.072  2.5357 -0.3225  1.5833
   43DOPE   H4S 5459   0.787   2.285  13.102  0.3738  1.2351  0.8457
   43DOPE   C25 5460   0.592   2.324  13.192  0.3857 -0.3955  0.0068
   43DOPE   H5R 5461   0.570   2.217  13.212 -1.2165 -0.5850 -2.3692
   43DOPE   H5S 5462   0.505   2.372  13.143  1.5401 -0.7208 -2.5109
   43DOPE   C26 5463   0.633   2.390  13.324 -0.2878 -0.0940  0.2277
   43DOPE   H6R 5464   0.666   2.496  13.315  0.2362 -0.3562 -1.1843
   43DOPE   H6S 5465   0.730   2.341  13.346 -0.1246 -0.2030 -0.6778
   43DOPE   C27 5466   0.536   2.370  13.437 -0.2980 -0.6793 -0.4858
   43DOPE   H7R 5467   0.499   2.265  13.444 -1.3246 -0.2788  0.4758
   43DOPE   H7S 5468   0.453   2.440  13.413  0.8891  0.5320 -1.2267
   43DOPE   C28 5469   0.594   2.407  13.579  0.0319 -0.4901 -0.8411
   43DOPE   H8R 5470   0.507   2.427  13.646  1.2399 -1.2152  1.0195
   43DOPE   H8S 5471   0.636   2.510  13.578  0.6212 -0.6992 -3.0931
   43DOPE   C29 5472   0.689   2.311  13.654 -0.4164 -0.5840 -0.2645
   43DOPE   H9R 5473   0.781   2.276  13.605  0.7371  0.0599  1.3655
   43DOPE  C210 5474   0.683   2.298  13.783  0.6122  0.5700  0.3847
   43DOPE  H10R 5475   0.754   2.225  13.824  0.4269 -0.6790 -1.4164
   43DOPE  C211 5476   0.569   2.352  13.874  0.4800  0.4367 -0.7246
   43DOPE  H11R 5477   0.472   2.298  13.863 -0.6681  1.4319  3.0143
   43DOPE  H11S 5478   0.563   2.462  13.862  2.7007  0.6261 -0.4202
   43DOPE  C212 5479   0.619   2.329  14.019  0.1245 -0.3559  0.0267
   43DOPE  H12R 5480   0.706   2.396  14.036 -0.5494  0.4223  0.5508
   43DOPE  H12S 5481   0.668   2.231  14.035  1.4721 -0.0109 -1.7661
   43DOPE  C213 5482   0.513   2.354  14.128  0.0943  0.0415 -0.1247
   43DOPE  H13R 5483   0.449   2.266  14.151  0.9061 -0.5389 -0.0505
   43DOPE  H13S 5484   0.440   2.434  14.101 -0.4809  0.3068  2.0147
   43DOPE  C214 5485   0.584   2.397  14.258  0.4090 -0.0448  0.5031
   43DOPE  H14R 5486   0.635   2.495  14.259  1.5353 -0.5557  3.4816
   43DOPE  H14S 5487   0.659   2.321  14.289  2.3177  1.3917 -0.4110
   43DOPE  C215 5488   0.475   2.417  14.367  0.3088 -0.7202 -0.4108
   43DOPE  H15R 5489   0.432   2.323  14.406  1.8918 -1.0014  0.7928
   43DOPE  H15S 5490   0.394   2.473  14.317  0.7094  0.6047  0.3607
   43DOPE  C216 5491   0.530   2.495  14.486  0.5049  0.1018 -0.3553
   43DOPE  H16R 5492   0.443   2.543  14.536  0.8764  0.9003 -0.4555
   43DOPE  H16S 5493   0.599   2.576  14.452  1.3930 -0.7833 -0.6919
   43DOPE  C217 5494   0.603   2.409  14.595 -0.6334 -0.0508 -0.0313
   43DOPE  H17R 5495   0.532   2.341  14.647  0.3867  0.9051  2.7450
   43DOPE  H17S 5496   0.641   2.480  14.671  0.1065 -0.2719 -0.1917
   43DOPE  C218 5497   0.725   2.324  14.538  0.0625 -1.1471 -0.0077
   43DOPE  H18R 5498   0.786   2.287  14.623 -0.5989  0.3067  1.1275
   43DOPE  H18S 5499   0.787   2.386  14.470  0.9398  0.1123  1.8499
   43DOPE  H18T 5500   0.682   2.235  14.488 -3.7528  0.2369  0.5270
   43DOPE   C33 5501   0.347   2.761  13.162 -0.6238 -0.4878 -0.7770
   43DOPE   H3X 5502   0.450   2.719  13.164  0.2047  1.4030 -1.3343
   43DOPE   H3Y 5503   0.271   2.681  13.151  0.0776 -0.9925 -2.1030
   43DOPE   C34 5504   0.324   2.833  13.292 -0.5974  0.2509  0.7011
   43DOPE   H4X 5505   0.408   2.906  13.295  2.0630 -2.4920 -0.8823
   43DOPE   H4Y 5506   0.224   2.882  13.289 -1.3279 -1.2387 -0.0328
   43DOPE   C35 5507   0.338   2.746  13.407 -0.0499 -0.3830 -0.6380
   43DOPE   H5X 5508   0.435   2.691  13.411  0.3471  0.3310 -0.0487
   43DOPE   H5Y 5509   0.256   2.670  13.406 -0.7812  0.2628  1.9539
   43DOPE   C36 5510   0.331   2.826  13.533 -0.3235 -0.0757  0.4500
   43DOPE   H6X 5511   0.236   2.882  13.522  0.3355  0.9681 -0.1309
   43DOPE   H6Y 5512   0.417   2.894  13.555 -0.2992 -0.6698  2.4161
   43DOPE   C37 5513   0.331   2.727  13.657  0.4503 -0.8880  0.4631
   43DOPE   H7X 5514   0.262   2.640  13.656 -1.5830  0.6346  1.0509
   43DOPE   H7Y 5515   0.431   2.681  13.676 -0.1607 -1.8505  1.4503
   43DOPE   C38 5516   0.299   2.798  13.791 -0.1561  0.6131 -0.0002
   43DOPE   H8X 5517   0.276   2.717  13.864  4.0727 -1.2026 -0.3751
   43DOPE   H8Y 5518   0.216   2.871  13.781  0.0674  0.7790 -0.6502
   43DOPE   C39 5519   0.418   2.878  13.839 -0.6702  0.2745 -0.1224
   43DOPE   H9X 5520   0.439   2.970  13.783  0.5103 -0.3566 -0.7545
   43DOPE  C310 5521   0.496   2.846  13.948  0.2520 -0.7769 -0.3174
   43DOPE  H10X 5522   0.566   2.926  13.976 -0.1259  0.0625 -1.6358
   43DOPE  C311 5523   0.474   2.740  14.054  0.5543 -0.0327 -0.6586
   43DOPE  H11X 5524   0.383   2.678  14.042  2.0700 -2.5811  0.2591
   43DOPE  H11Y 5525   0.555   2.665  14.053  1.2324  0.6322  1.1321
   43DOPE  C312 5526   0.464   2.797  14.197 -0.0232  0.3650 -0.2856
   43DOPE  H12X 5527   0.519   2.893  14.199  0.2309  0.2429 -0.9461
   43DOPE  H12Y 5528   0.511   2.724  14.267 -0.4874  0.7717  0.4588
   43DOPE  C313 5529   0.321   2.820  14.255 -0.4514  0.3864 -0.3346
   43DOPE  H13X 5530   0.266   2.889  14.189  0.9323 -0.1512 -2.1255
   43DOPE  H13Y 5531   0.260   2.727  14.252  0.9767 -0.5912 -0.4820
   43DOPE  C314 5532   0.324   2.859  14.404  0.1265  0.1151  0.3188
   43DOPE  H14X 5533   0.409   2.931  14.397 -1.9139  2.5810 -5.0608
   43DOPE  H14Y 5534   0.348   2.772  14.468 -0.8465 -0.3659  0.0486
   43DOPE  C315 5535   0.210   2.938  14.452  0.5141 -0.7091 -0.1423
   43DOPE  H15X 5536   0.124   2.873  14.480 -1.0416  2.3682  2.9967
   43DOPE  H15Y 5537   0.163   3.009  14.381  1.3731  0.5001  0.4595
   43DOPE  C316 5538   0.248   3.021  14.578 -0.1572  0.8912  0.0619
   43DOPE  H16X 5539   0.313   3.107  14.550  1.4082 -0.3239 -0.1362
   43DOPE  H16Y 5540   0.312   2.954  14.639 -2.1273  0.6383  2.0110
   43DOPE  C317 5541   0.121   3.054  14.645  0.0831 -0.2168 -0.2459
   43DOPE  H17X 5542   0.068   3.110  14.565  1.0482  0.4993 -0.4012
   43DOPE  H17Y 5543   0.061   2.961  14.661  1.8724 -1.1003  1.7312
   43DOPE  C318 5544   0.129   3.126  14.781  0.2690  0.4926 -0.4790
   43DOPE  H18X 5545   0.198   3.212  14.766  2.9377 -1.7688 -2.4775
   43DOPE  H18Y 5546   0.031   3.167  14.814  0.3254 -0.3304  0.7496
   43DOPE  H18Z 5547   0.169   3.059  14.859  2.5352  1.7754 -0.4543
   44DOPE     N 5548   2.599   1.392  12.038  0.4417  0.2244 -0.4911
   44DOPE   HN1 5549   2.529   1.448  12.093  2.6564  0.8824  1.8749
   44DOPE   HN2 5550   2.548   1.346  11.960 -0.7559  1.5701 -0.5392
   44DOPE   HN3 5551   2.635   1.320  12.104  1.0637  0.0973 -0.9706
   44DOPE   C12 5552   2.716   1.478  11.995  0.2819 -0.2198 -0.5493
   44DOPE  H12A 5553   2.744   1.541  12.082 -0.0115 -0.7227 -0.0894
   44DOPE  H12B 5554   2.684   1.548  11.915 -1.6407 -1.2616 -0.7464
   44DOPE   C11 5555   2.832   1.390  11.959 -0.5077 -0.4267  0.2896
   44DOPE  H11A 5556   2.921   1.451  11.933 -0.0419 -0.9431  0.6538
   44DOPE  H11B 5557   2.797   1.335  11.869 -0.7641  0.7860 -0.3716
   44DOPE     P 5558   3.024   1.276  12.111  0.0738 -0.0946 -0.4535
   44DOPE   O13 5559   3.111   1.215  12.008 -0.2210 -0.4141  0.2419
   44DOPE   O14 5560   3.010   1.204  12.240 -0.0983  0.1965 -0.0322
   44DOPE   O11 5561   3.073   1.421  12.139 -0.2541  0.1961 -0.0699
   44DOPE   O12 5562   2.873   1.302  12.065 -0.2618  0.2501 -0.0145
   44DOPE    C1 5563   3.017   1.500  12.245  0.8924  0.2375  0.6011
   44DOPE    HA 5564   2.916   1.469  12.279  0.1213  0.5094 -1.3475
   44DOPE    HB 5565   3.013   1.607  12.215  2.6333 -0.0808 -0.9462
   44DOPE    C2 5566   3.115   1.494  12.368 -0.2738 -0.1147 -0.5715
   44DOPE    HS 5567   3.212   1.480  12.316 -0.1379  1.3963 -0.7615
   44DOPE   O21 5568   3.083   1.374  12.436 -0.0082 -0.0462 -0.2186
   44DOPE   C21 5569   3.160   1.331  12.528  0.5117 -0.6887  0.1251
   44DOPE   O22 5570   3.275   1.372  12.548  0.4207  1.0371  0.2261
   44DOPE   C22 5571   3.082   1.225  12.609  0.8806  0.2924 -0.0432
   44DOPE   H2R 5572   3.062   1.139  12.542  2.3321  0.4324 -0.6834
   44DOPE   H2S 5573   2.987   1.277  12.636 -0.1027 -1.0176 -0.8503
   44DOPE    C3 5574   3.094   1.620  12.457  0.0054  0.5082 -0.5885
   44DOPE    HX 5575   2.987   1.639  12.479 -0.0814  1.0943 -1.4492
   44DOPE    HY 5576   3.117   1.714  12.402 -1.6402  0.8278 -0.8019
   44DOPE   O31 5577   3.161   1.613  12.587 -0.4533 -0.4427  0.2445
   44DOPE   C31 5578   3.295   1.634  12.585  0.0083 -0.2112  0.7783
   44DOPE   O32 5579   3.358   1.678  12.489 -0.2929  0.0426 -0.0860
   44DOPE   C32 5580   3.358   1.611  12.714 -0.3112 -0.4647  0.6027
   44DOPE   H2X 5581   3.281   1.565  12.780 -0.5559 -0.9655 -0.0192
   44DOPE   H2Y 5582   3.441   1.538  12.698  0.4844 -0.4357  3.9205
   44DOPE   C23 5583   3.145   1.183  12.740  0.3068  0.3284  0.7068
   44DOPE   H3R 5584   3.255   1.165  12.741 -0.0603 -3.0801 -1.8613
   44DOPE   H3S 5585   3.108   1.084  12.775  1.6960 -0.3510  0.3614
   44DOPE   C24 5586   3.126   1.282  12.855  0.5223 -0.9560  0.0872
   44DOPE   H4R 5587   3.026   1.330  12.862  0.3976 -0.5580 -3.1409
   44DOPE   H4S 5588   3.190   1.370  12.833 -0.0027 -0.0377  1.9406
   44DOPE   C25 5589   3.179   1.248  12.996 -0.5468  0.2167 -0.6326
   44DOPE   H5R 5590   3.118   1.176  13.054  0.3714 -0.0206  0.0541
   44DOPE   H5S 5591   3.195   1.346  13.044  2.3544  0.2567 -1.4849
   44DOPE   C26 5592   3.314   1.172  12.991  0.4369 -0.2554 -0.4728
   44DOPE   H6R 5593   3.381   1.235  12.928 -3.1478  1.3499 -3.0392
   44DOPE   H6S 5594   3.293   1.073  12.947 -1.3741 -0.0809 -0.0610
   44DOPE   C27 5595   3.381   1.152  13.126  0.4754  0.3775 -0.0784
   44DOPE   H7R 5596   3.411   1.247  13.176  1.1255  0.0184  0.2357
   44DOPE   H7S 5597   3.471   1.093  13.098 -0.1453 -0.3984 -0.4549
   44DOPE   C28 5598   3.290   1.081  13.235  0.2844 -0.0430  0.7399
   44DOPE   H8R 5599   3.224   1.009  13.182  1.6673 -1.1890  0.5166
   44DOPE   H8S 5600   3.221   1.152  13.286  0.9803  0.4472  1.0150
   44DOPE   C29 5601   3.377   1.010  13.336 -0.1694 -0.0577 -0.3057
   44DOPE   H9R 5602   3.442   0.933  13.292 -0.4258 -1.1805  1.1962
   44DOPE  C210 5603   3.368   1.012  13.471  0.1761 -0.2720  0.5509
   44DOPE  H10R 5604   3.455   0.967  13.522  0.0749 -0.8770  0.2080
   44DOPE  C211 5605   3.276   1.097  13.565 -0.0255 -0.2389 -0.5855
   44DOPE  H11R 5606   3.237   1.035  13.648  0.2077  1.6302  1.0176
   44DOPE  H11S 5607   3.187   1.132  13.510  0.6630 -0.2724 -1.7522
   44DOPE  C212 5608   3.342   1.220  13.643  0.3091 -0.3532  0.5709
   44DOPE  H12R 5609   3.264   1.277  13.698  1.5472  0.5179  1.4678
   44DOPE  H12S 5610   3.397   1.284  13.571 -1.1373  0.2774 -0.0250
   44DOPE  C213 5611   3.447   1.174  13.740 -0.2278  0.6411 -0.1238
   44DOPE  H13R 5612   3.545   1.162  13.690 -0.1062 -0.1586  0.2927
   44DOPE  H13S 5613   3.409   1.078  13.782  0.1992  1.1273  1.4521
   44DOPE  C214 5614   3.454   1.264  13.865 -0.2286 -0.1486  0.4362
   44DOPE  H14R 5615   3.352   1.258  13.907 -0.2947 -1.9175  0.0873
   44DOPE  H14S 5616   3.479   1.369  13.839 -0.9629  0.1310  0.8392
   44DOPE  C215 5617   3.550   1.219  13.974  0.5143  1.1013 -0.0630
   44DOPE  H15R 5618   3.654   1.196  13.942 -0.7727 -5.4549 -0.8739
   44DOPE  H15S 5619   3.518   1.120  14.013 -1.3213  1.9639  0.7391
   44DOPE  C216 5620   3.537   1.310  14.096 -0.7550 -0.3368 -0.6901
   44DOPE  H16R 5621   3.434   1.349  14.097 -0.4601  0.4764 -1.2137
   44DOPE  H16S 5622   3.598   1.400  14.076  2.7070 -2.1057  0.9642
   44DOPE  C217 5623   3.566   1.263  14.238 -0.8789  0.3557 -0.6919
   44DOPE  H17R 5624   3.549   1.351  14.303 -0.6946  0.2974 -0.5667
   44DOPE  H17S 5625   3.674   1.236  14.242  0.2321  4.1069 -1.1322
   44DOPE  C218 5626   3.467   1.164  14.304  0.1354 -0.2407  0.6484
   44DOPE  H18R 5627   3.511   1.144  14.404 -2.8840  1.2098  2.4022
   44DOPE  H18S 5628   3.465   1.070  14.245 -1.3465  0.2100 -0.0548
   44DOPE  H18T 5629   3.368   1.211  14.317 -0.2434 -0.6655 -0.5218
   44DOPE   C33 5630   3.400   1.745  12.780  0.6759  0.0494 -0.3565
   44DOPE   H3X 5631   3.308   1.774  12.835  0.4708 -1.9752  0.4300
   44DOPE   H3Y 5632   3.424   1.825  12.706 -0.4807 -0.0989 -0.9164
   44DOPE   C34 5633   3.517   1.723  12.877  0.1048  0.2228 -1.1146
   44DOPE   H4X 5634   3.600   1.680  12.817  2.4806  1.5839  1.0188
   44DOPE   H4Y 5635   3.548   1.825  12.907  1.1958  0.0524 -1.6024
   44DOPE   C35 5636   3.473   1.640  12.999  0.3723 -0.8231  0.6679
   44DOPE   H5X 5637   3.436   1.537  12.980  2.5709 -1.4617 -0.4019
   44DOPE   H5Y 5638   3.394   1.699  13.052  2.3790  2.3642  0.4033
   44DOPE   C36 5639   3.586   1.649  13.105  0.0421  0.6787 -0.3290
   44DOPE   H6X 5640   3.620   1.755  13.108  2.6501 -0.1349  2.3146
   44DOPE   H6Y 5641   3.664   1.585  13.059 -0.7876 -0.2507 -0.4754
   44DOPE   C37 5642   3.551   1.588  13.242 -0.1315 -0.9492 -0.2540
   44DOPE   H7X 5643   3.481   1.662  13.286 -1.9573 -2.1496 -1.0207
   44DOPE   H7Y 5644   3.491   1.496  13.225  1.4137 -1.9345 -0.4826
   44DOPE   C38 5645   3.675   1.578  13.327 -0.8540  0.5504  0.5691
   44DOPE   H8X 5646   3.714   1.680  13.346  1.1571 -0.2340  0.9612
   44DOPE   H8Y 5647   3.748   1.518  13.268 -0.9517 -1.0522  2.0003
   44DOPE   C39 5648   3.635   1.499  13.447 -0.7343 -0.3866  0.3875
   44DOPE   H9X 5649   3.528   1.489  13.473 -1.3282 -1.1076 -2.0694
   44DOPE  C310 5650   3.723   1.434  13.523  0.0081 -0.3691  0.3211
   44DOPE  H10X 5651   3.683   1.375  13.606 -3.3455 -0.6085 -1.2926
   44DOPE  C311 5652   3.874   1.434  13.513 -0.0212 -0.3076 -1.0353
   44DOPE  H11X 5653   3.906   1.331  13.539  1.3680  0.2151 -0.5921
   44DOPE  H11Y 5654   3.899   1.471  13.411 -1.4466  1.2335 -0.8805
   44DOPE  C312 5655   3.913   1.533  13.626 -0.5835  0.8300 -1.0151
   44DOPE  H12X 5656   3.858   1.629  13.628 -0.4003  0.9293 -0.4435
   44DOPE  H12Y 5657   4.017   1.570  13.619 -0.5271  0.6482 -1.1577
   44DOPE  C313 5658   3.903   1.467  13.766 -0.1120  0.6732 -0.3557
   44DOPE  H13X 5659   3.800   1.430  13.780 -0.2462  2.0715  3.2503
   44DOPE  H13Y 5660   3.957   1.370  13.780 -0.6748  0.3457 -0.4010
   44DOPE  C314 5661   3.934   1.561  13.879  0.0166 -0.4772  0.7519
   44DOPE  H14X 5662   3.849   1.632  13.875  0.8494  0.6074  1.7316
   44DOPE  H14Y 5663   4.029   1.614  13.860  0.3405 -1.8318 -1.9158
   44DOPE  C315 5664   3.935   1.493  14.011  0.0312  0.5819 -0.8550
   44DOPE  H15X 5665   4.012   1.414  14.021  0.8284  1.5249  0.9097
   44DOPE  H15Y 5666   3.838   1.439  14.020  0.4649 -0.0991 -0.1132
   44DOPE  C316 5667   3.964   1.587  14.130 -0.1952  0.0394 -1.0332
   44DOPE  H16X 5668   3.875   1.654  14.142  0.0771  0.0388  1.5775
   44DOPE  H16Y 5669   4.043   1.654  14.090 -2.3924  2.8809 -0.9846
   44DOPE  C317 5670   4.011   1.525  14.267  0.1213 -0.1337  0.5261
   44DOPE  H17X 5671   3.934   1.522  14.347  0.2059  0.7263  0.6524
   44DOPE  H17Y 5672   4.027   1.417  14.246  0.3493 -0.5534  2.6277
   44DOPE  C318 5673   4.144   1.578  14.318 -0.8544  0.2430  0.5881
   44DOPE  H18X 5674   4.126   1.684  14.345 -0.0990  0.8512 -1.1289
   44DOPE  H18Y 5675   4.183   1.512  14.399  1.4177  1.7559  0.8372
   44DOPE  H18Z 5676   4.212   1.603  14.234 -2.7389 -1.3343 -1.5087
   45DOPE     N 5677   3.350   0.710  12.412  0.0401  0.3993  0.4365
   45DOPE   HN1 5678   3.262   0.662  12.381 -0.9025  1.8140  0.8316
   45DOPE   HN2 5679   3.414   0.647  12.464  0.6908  2.9232  2.8871
   45DOPE   HN3 5680   3.333   0.786  12.480  1.5326  1.0710  0.0857
   45DOPE   C12 5681   3.416   0.770  12.294 -0.4208  0.2919  0.8406
   45DOPE  H12A 5682   3.503   0.827  12.332  2.4767 -4.2364  1.8723
   45DOPE  H12B 5683   3.335   0.823  12.240 -1.0280 -2.9526 -1.7587
   45DOPE   C11 5684   3.485   0.666  12.198  0.5787  0.0387 -0.3868
   45DOPE  H11A 5685   3.515   0.732  12.113 -0.8692 -0.0657 -1.0061
   45DOPE  H11B 5686   3.411   0.591  12.164  1.0845  0.3402 -2.2718
   45DOPE     P 5687   3.711   0.551  12.197  0.0315  0.0366 -0.1120
   45DOPE   O13 5688   3.692   0.590  12.054 -0.4144 -0.5241  0.1628
   45DOPE   O14 5689   3.725   0.408  12.225  0.8908  0.2796  0.4985
   45DOPE   O11 5690   3.840   0.624  12.253 -0.2404 -0.5457  0.3815
   45DOPE   O12 5691   3.587   0.604  12.275  0.0367 -0.0600  0.2689
   45DOPE    C1 5692   3.829   0.758  12.304  0.6810 -0.3237  0.1992
   45DOPE    HA 5693   3.741   0.811  12.262  1.2472  0.5107  0.0411
   45DOPE    HB 5694   3.914   0.828  12.287 -0.3540  1.3880  1.6117
   45DOPE    C2 5695   3.793   0.771  12.453  0.5074 -0.6141 -0.1072
   45DOPE    HS 5696   3.694   0.724  12.471  1.2242 -1.5737  1.5862
   45DOPE   O21 5697   3.779   0.917  12.478 -0.3698  0.6923  0.2286
   45DOPE   C21 5698   3.667   0.958  12.531 -0.0684 -0.0258 -0.0110
   45DOPE   O22 5699   3.565   0.893  12.551 -0.0710 -0.0403  0.0811
   45DOPE   C22 5700   3.684   1.092  12.600  0.1405 -0.1510 -0.3725
   45DOPE   H2R 5701   3.707   1.159  12.514 -1.4727  0.8486 -0.0674
   45DOPE   H2S 5702   3.776   1.091  12.661 -1.6408  0.4734  2.5331
   45DOPE    C3 5703   3.893   0.721  12.559  0.5568  0.3342 -0.4968
   45DOPE    HX 5704   3.884   0.611  12.557  1.4320  0.1261  2.4277
   45DOPE    HY 5705   3.850   0.751  12.657  2.8441  0.3884  0.5459
   45DOPE   O31 5706   4.024   0.767  12.544 -0.4873 -0.1736 -0.1971
   45DOPE   C31 5707   4.114   0.698  12.617 -0.7515 -0.1560  0.0459
   45DOPE   O32 5708   4.087   0.591  12.672  0.4406  0.2356 -0.7506
   45DOPE   C32 5709   4.235   0.782  12.650  1.2315 -0.4824 -0.2924
   45DOPE   H2X 5710   4.295   0.735  12.731  0.8073 -1.9434 -0.7936
   45DOPE   H2Y 5711   4.295   0.806  12.560 -1.3024  2.4149 -1.3904
   45DOPE   C23 5712   3.573   1.150  12.681  0.2107 -0.0835 -0.2193
   45DOPE   H3R 5713   3.568   1.100  12.780 -1.3747  3.5569  1.7640
   45DOPE   H3S 5714   3.472   1.135  12.637  0.1202 -0.0803 -0.0168
   45DOPE   C24 5715   3.586   1.301  12.709 -0.0980 -0.3360  0.6968
   45DOPE   H4R 5716   3.504   1.333  12.777  0.9926  1.9457  1.0426
   45DOPE   H4S 5717   3.563   1.362  12.619 -0.2108  1.0893  1.6678
   45DOPE   C25 5718   3.721   1.347  12.766  0.8689 -0.3456 -0.3798
   45DOPE   H5R 5719   3.707   1.452  12.797 -1.9728 -1.2256  1.6657
   45DOPE   H5S 5720   3.800   1.354  12.688  1.8140  0.8837  0.6401
   45DOPE   C26 5721   3.765   1.279  12.899 -0.0081 -0.3186  0.0858
   45DOPE   H6R 5722   3.793   1.173  12.885  1.2415 -0.0715  0.6361
   45DOPE   H6S 5723   3.674   1.277  12.963  0.4472  0.3676  0.7693
   45DOPE   C27 5724   3.882   1.356  12.964 -0.8514 -0.6368 -0.8878
   45DOPE   H7R 5725   3.845   1.460  12.980 -0.6008 -0.4166 -1.6760
   45DOPE   H7S 5726   3.967   1.361  12.892  0.5994  0.0340  0.7873
   45DOPE   C28 5727   3.941   1.300  13.101  0.7135  0.1950  1.3772
   45DOPE   H8R 5728   3.853   1.274  13.162  0.3467 -0.1733  0.7039
   45DOPE   H8S 5729   4.003   1.389  13.128  0.9193  1.8594 -3.4788
   45DOPE   C29 5730   4.032   1.183  13.075  0.2126 -0.2642  0.2199
   45DOPE   H9R 5731   4.053   1.160  12.969 -2.7839 -1.3152 -0.2682
   45DOPE  C210 5732   4.077   1.097  13.164 -0.0802  0.3181 -0.1479
   45DOPE  H10R 5733   4.140   1.011  13.137 -2.1238 -0.7033 -1.9902
   45DOPE  C211 5734   4.071   1.120  13.310  0.4229 -0.1208 -0.6919
   45DOPE  H11R 5735   4.088   1.228  13.333 -2.0518  0.2116 -0.0290
   45DOPE  H11S 5736   4.153   1.072  13.368  1.4369  2.8525  0.5555
   45DOPE  C212 5737   3.931   1.095  13.372  0.9935  0.0036  0.1577
   45DOPE  H12R 5738   3.854   1.153  13.317  0.5625  0.0332  0.7805
   45DOPE  H12S 5739   3.934   1.127  13.478 -0.1054 -0.0937  0.2344
   45DOPE  C213 5740   3.891   0.945  13.355 -0.0290  0.2519 -0.2975
   45DOPE  H13R 5741   3.976   0.880  13.386  0.4051  1.4699  1.1989
   45DOPE  H13S 5742   3.875   0.914  13.250 -0.1169 -1.1301  0.0926
   45DOPE  C214 5743   3.773   0.885  13.444  0.4336  0.1197 -0.4237
   45DOPE  H14R 5744   3.771   0.776  13.419  1.7846  0.1140 -0.6056
   45DOPE  H14S 5745   3.683   0.935  13.401  0.8773 -0.1891 -1.7804
   45DOPE  C215 5746   3.802   0.910  13.591  0.4514  0.1152  0.0383
   45DOPE  H15R 5747   3.800   1.017  13.622  0.1283  0.5068 -1.2529
   45DOPE  H15S 5748   3.907   0.879  13.610  1.2343  1.7860 -1.2398
   45DOPE  C216 5749   3.711   0.829  13.693  0.1811 -0.3865  1.2217
   45DOPE  H16R 5750   3.714   0.727  13.651 -0.2461  0.0768  0.0107
   45DOPE  H16S 5751   3.607   0.869  13.694  0.4437  0.4518 -0.5711
   45DOPE  C217 5752   3.768   0.826  13.833 -0.5845 -0.0555  0.1324
   45DOPE  H17R 5753   3.874   0.793  13.829 -0.0586  1.4707  0.9249
   45DOPE  H17S 5754   3.715   0.749  13.892  2.1134 -2.0584  0.1110
   45DOPE  C218 5755   3.760   0.960  13.912  0.3466 -0.0183  0.0883
   45DOPE  H18R 5756   3.811   1.041  13.855  2.2453 -2.0247 -1.2351
   45DOPE  H18S 5757   3.807   0.935  14.010 -0.7971 -0.2543  0.5956
   45DOPE  H18T 5758   3.654   0.987  13.929 -0.3506 -2.3931 -0.1142
   45DOPE   C33 5759   4.193   0.924  12.683 -0.0079 -0.5451  0.5398
   45DOPE   H3X 5760   4.127   0.921  12.772 -0.8784 -1.9964 -0.1169
   45DOPE   H3Y 5761   4.136   0.974  12.603  1.2003  2.5894  1.5053
   45DOPE   C34 5762   4.309   1.019  12.719 -0.1304 -0.0341 -0.7165
   45DOPE   H4X 5763   4.381   1.007  12.635 -1.1038 -2.1694 -1.2924
   45DOPE   H4Y 5764   4.261   1.118  12.735  0.5322  0.3973 -1.3086
   45DOPE   C35 5765   4.375   0.980  12.855  0.6281 -0.3077 -0.6851
   45DOPE   H5X 5766   4.408   0.874  12.855  0.6852 -0.3055  0.2835
   45DOPE   H5Y 5767   4.300   0.996  12.936 -0.4168 -0.2573 -1.6307
   45DOPE   C36 5768   4.500   1.064  12.874 -0.1840  0.4686  0.2299
   45DOPE   H6X 5769   4.473   1.172  12.872  0.8180  0.7213 -0.1451
   45DOPE   H6Y 5770   4.565   1.041  12.787 -0.5142 -2.1738  0.6097
   45DOPE   C37 5771   4.588   1.037  13.003  0.1319  0.0743 -0.1263
   45DOPE   H7X 5772   4.679   1.099  13.014  1.0428 -0.9649 -1.4060
   45DOPE   H7Y 5773   4.520   1.066  13.086 -3.0488 -2.3481 -1.6747
   45DOPE   C38 5774   4.633   0.890  13.032 -0.5890  0.1856  0.2190
   45DOPE   H8X 5775   4.539   0.831  13.025 -2.3294  2.8869 -1.0459
   45DOPE   H8Y 5776   4.666   0.888  13.138 -2.0597  1.1363  0.7278
   45DOPE   C39 5777   4.728   0.824  12.933 -0.2170 -0.1402  0.2542
   45DOPE   H9X 5778   4.718   0.870  12.834 -1.1206 -1.8145 -0.4640
   45DOPE  C310 5779   4.808   0.719  12.953 -0.7402 -0.4471 -0.0203
   45DOPE  H10X 5780   4.858   0.690  12.859  1.0717  1.8911  0.1417
   45DOPE  C311 5781   4.838   0.651  13.085  0.1570  0.5609  0.5442
   45DOPE  H11X 5782   4.743   0.659  13.142 -0.2600  3.1085 -0.3660
   45DOPE  H11Y 5783   4.855   0.543  13.069 -0.7766  0.5534 -0.5402
   45DOPE  C312 5784   4.956   0.692  13.173 -0.3408  0.6109 -0.5257
   45DOPE  H12X 5785   5.058   0.684  13.130  0.0576 -1.5928  0.6881
   45DOPE  H12Y 5786   4.947   0.620  13.257  0.1506 -1.1814 -1.9261
   45DOPE  C313 5787   4.931   0.830  13.238  0.3356  0.5579 -0.0942
   45DOPE  H13X 5788   4.952   0.903  13.157 -1.8127  1.1534 -0.1907
   45DOPE  H13Y 5789   4.831   0.841  13.285 -0.0118  2.5309 -1.2272
   45DOPE  C314 5790   5.035   0.861  13.347  0.3779 -0.3413  0.2622
   45DOPE  H14X 5791   5.047   0.765  13.402  0.9440 -0.5096 -0.1509
   45DOPE  H14Y 5792   4.999   0.941  13.416 -1.3210 -1.6332  0.9364
   45DOPE  C315 5793   5.174   0.897  13.287  0.0150 -0.3980 -0.4079
   45DOPE  H15X 5794   5.181   0.990  13.227 -0.6319 -0.2635 -0.2847
   45DOPE  H15Y 5795   5.196   0.812  13.219 -0.5566 -0.7489 -0.1575
   45DOPE  C316 5796   5.290   0.884  13.390  0.3848 -0.4216  0.1716
   45DOPE  H16X 5797   5.383   0.856  13.337  0.1303 -2.2986  0.6410
   45DOPE  H16Y 5798   5.264   0.802  13.461 -0.1379 -2.4032 -2.1676
   45DOPE  C317 5799   5.302   1.021  13.454  0.0918 -0.0778  0.4587
   45DOPE  H17X 5800   5.324   1.095  13.374 -1.9276 -1.0687 -1.1236
   45DOPE  H17Y 5801   5.214   1.063  13.508  0.3513 -2.0409  2.5151
   45DOPE  C318 5802   5.415   1.026  13.549 -0.3897 -0.0894  0.1141
   45DOPE  H18X 5803   5.430   1.125  13.597 -1.1000  0.3752 -0.6175
   45DOPE  H18Y 5804   5.415   0.950  13.631  0.3095  0.1023  0.3029
   45DOPE  H18Z 5805   5.507   1.005  13.491 -0.9581 -0.3930 -0.6931
   46DOPE     N 5806   4.994   5.615  12.432 -0.4192  0.5288 -0.6030
   46DOPE   HN1 5807   5.092   5.638  12.402 -1.2967  2.9260 -1.9408
   46DOPE   HN2 5808   4.962   5.524  12.393  0.4163  0.1832 -0.5040
   46DOPE   HN3 5809   4.937   5.686  12.382 -0.0196  0.1234 -1.6811
   46DOPE   C12 5810   4.973   5.623  12.580 -0.1781 -0.1182  0.1913
   46DOPE  H12A 5811   5.039   5.548  12.630 -0.5632 -1.0424 -0.6495
   46DOPE  H12B 5812   4.868   5.605  12.611  0.0533  1.4908  2.1076
   46DOPE   C11 5813   5.013   5.764  12.631  0.4747  0.6393 -0.1359
   46DOPE  H11A 5814   5.122   5.773  12.613  0.5058  1.9939  0.5951
   46DOPE  H11B 5815   5.007   5.779  12.741  2.7513  1.9770 -0.1392
   46DOPE     P 5816   4.982   6.003  12.537 -0.3018 -0.2923 -0.0598
   46DOPE   O13 5817   4.883   6.071  12.456 -0.3448 -0.2588 -0.4344
   46DOPE   O14 5818   5.125   6.003  12.485 -0.2263 -0.7073 -0.1305
   46DOPE   O11 5819   4.978   6.054  12.684 -0.0202 -0.3669 -0.6727
   46DOPE   O12 5820   4.937   5.857  12.552  0.2826 -0.2110  0.3085
   46DOPE    C1 5821   4.888   6.022  12.784 -0.1266  0.3065 -0.7125
   46DOPE    HA 5822   4.958   6.013  12.871  0.2463 -0.9875 -1.1313
   46DOPE    HB 5823   4.825   5.933  12.764  1.1833 -1.5591  2.5595
   46DOPE    C2 5824   4.796   6.133  12.831  0.0644  0.1896 -0.3280
   46DOPE    HS 5825   4.742   6.170  12.741  1.1239 -2.5346 -2.2123
   46DOPE   O21 5826   4.870   6.238  12.891 -0.3452  0.4068  0.4517
   46DOPE   C21 5827   4.863   6.362  12.843 -0.3708 -0.6157  0.0707
   46DOPE   O22 5828   4.776   6.402  12.764 -0.0699 -0.2663  0.4890
   46DOPE   C22 5829   4.975   6.451  12.895  0.2104  0.3338  0.0849
   46DOPE   H2R 5830   5.018   6.491  12.800  0.1454 -0.6980 -0.3986
   46DOPE   H2S 5831   5.055   6.388  12.939  0.9346  1.0452 -0.1915
   46DOPE    C3 5832   4.696   6.096  12.943  0.3810  0.2054  0.0795
   46DOPE    HX 5833   4.628   6.177  12.976 -1.3121 -1.6603  1.4396
   46DOPE    HY 5834   4.765   6.076  13.028 -0.8552 -0.8350  0.8673
   46DOPE   O31 5835   4.612   5.986  12.912  0.1254 -0.4649  0.0974
   46DOPE   C31 5836   4.532   6.007  12.802  0.0384  0.3648  0.4436
   46DOPE   O32 5837   4.532   6.110  12.738  0.3028  0.3510  1.1184
   46DOPE   C32 5838   4.433   5.896  12.784 -1.1412 -0.7000  0.3961
   46DOPE   H2X 5839   4.391   5.894  12.681  0.1770  0.2793 -0.2043
   46DOPE   H2Y 5840   4.505   5.811  12.789  0.8849  0.8930 -0.1299
   46DOPE   C23 5841   4.911   6.559  12.981  0.0250 -0.5049 -0.1641
   46DOPE   H3R 5842   4.836   6.616  12.923  0.3073  0.5388  0.4821
   46DOPE   H3S 5843   4.984   6.633  13.020 -0.3952 -0.7882  1.2274
   46DOPE   C24 5844   4.852   6.484  13.100 -0.2670 -0.4447 -0.8420
   46DOPE   H4R 5845   4.929   6.428  13.157 -1.7277  0.5119  2.3224
   46DOPE   H4S 5846   4.773   6.421  13.056  0.6399 -0.1224 -3.0456
   46DOPE   C25 5847   4.776   6.586  13.186  0.2256 -0.1439 -0.6387
   46DOPE   H5R 5848   4.683   6.608  13.128 -0.8575  1.3429  1.5189
   46DOPE   H5S 5849   4.833   6.680  13.202  2.8742 -1.6344 -0.7854
   46DOPE   C26 5850   4.727   6.535  13.321 -0.1904  0.4891  0.4416
   46DOPE   H6R 5851   4.661   6.446  13.312 -0.7227  0.7445  1.6942
   46DOPE   H6S 5852   4.664   6.608  13.376  2.0074  1.3753  1.8918
   46DOPE   C27 5853   4.851   6.491  13.399  0.8873 -0.3596 -0.4887
   46DOPE   H7R 5854   4.924   6.575  13.392 -1.9229  2.4885  1.2748
   46DOPE   H7S 5855   4.888   6.395  13.357 -2.2890 -2.1358  0.4435
   46DOPE   C28 5856   4.815   6.468  13.551  0.2035 -0.1141  0.2110
   46DOPE   H8R 5857   4.726   6.402  13.557 -1.0527  1.3701 -1.1772
   46DOPE   H8S 5858   4.775   6.564  13.591  1.0756  0.4744 -0.2971
   46DOPE   C29 5859   4.933   6.417  13.630  0.1570 -0.2296  0.2136
   46DOPE   H9R 5860   4.993   6.496  13.680  1.0321 -1.0716  0.5163
   46DOPE  C210 5861   4.952   6.292  13.677 -0.6793  0.3122 -0.6878
   46DOPE  H10R 5862   5.039   6.277  13.742 -0.8938  0.6867 -0.3055
   46DOPE  C211 5863   4.874   6.167  13.641  0.0632 -0.2442 -0.4572
   46DOPE  H11R 5864   4.912   6.105  13.557 -3.6934 -1.2587 -1.5979
   46DOPE  H11S 5865   4.769   6.190  13.614  0.0117  3.1331  2.0113
   46DOPE  C212 5866   4.860   6.074  13.770 -0.5586  0.3455 -0.2053
   46DOPE  H12R 5867   4.766   6.015  13.763 -1.4994  1.8414 -0.7414
   46DOPE  H12S 5868   4.851   6.138  13.861  3.2837  0.4512  0.2560
   46DOPE  C213 5869   4.984   5.976  13.772  0.1722 -0.4196 -0.2760
   46DOPE  H13R 5870   5.071   6.045  13.763 -0.7154  0.4565 -3.4634
   46DOPE  H13S 5871   4.976   5.902  13.690  0.5142 -1.5321  0.6723
   46DOPE  C214 5872   5.000   5.893  13.898  0.0256  0.1814 -0.0927
   46DOPE  H14R 5873   4.919   5.818  13.892  0.0411  0.2751 -2.9049
   46DOPE  H14S 5874   4.985   5.962  13.983 -1.0871  1.4026 -1.2304
   46DOPE  C215 5875   5.134   5.822  13.894  0.8896  0.5552  0.1445
   46DOPE  H15R 5876   5.211   5.901  13.910  2.3019 -0.5191 -1.0503
   46DOPE  H15S 5877   5.133   5.762  13.800 -4.2621  0.2971  0.1066
   46DOPE  C216 5878   5.146   5.721  14.007 -0.5133 -0.1380 -0.0739
   46DOPE  H16R 5879   5.059   5.652  14.008 -2.5005  2.1866  1.7519
   46DOPE  H16S 5880   5.139   5.779  14.102  0.6748  1.6441 -1.0145
   46DOPE  C217 5881   5.278   5.644  14.008  0.1144  0.8892 -0.0268
   46DOPE  H17R 5882   5.366   5.711  14.009  1.0290 -0.2534  1.9793
   46DOPE  H17S 5883   5.277   5.596  13.907 -3.3629 -0.4973  0.5107
   46DOPE  C218 5884   5.274   5.546  14.126  0.3255  0.3456  0.1737
   46DOPE  H18R 5885   5.258   5.601  14.220 -2.8116  0.5733 -0.3850
   46DOPE  H18S 5886   5.367   5.485  14.122 -0.0978 -0.2994 -0.1708
   46DOPE  H18T 5887   5.182   5.483  14.122 -0.5234  1.5624 -3.1936
   46DOPE   C33 5888   4.328   5.884  12.897 -0.8646 -0.0449  0.0082
   46DOPE   H3X 5889   4.371   5.909  12.996 -0.2542  2.2587 -0.7787
   46DOPE   H3Y 5890   4.313   5.775  12.912  0.6282 -0.4366 -1.0961
   46DOPE   C34 5891   4.197   5.964  12.878  0.4657  0.9564  0.5729
   46DOPE   H4X 5892   4.155   5.915  12.787  0.9752 -0.3695  1.0352
   46DOPE   H4Y 5893   4.129   5.941  12.962 -0.8077  1.8774 -0.1531
   46DOPE   C35 5894   4.206   6.114  12.851 -0.1066  0.2759  0.1067
   46DOPE   H5X 5895   4.105   6.158  12.834  0.2799  0.2340 -2.7049
   46DOPE   H5Y 5896   4.272   6.131  12.764  0.0952 -0.2595  0.1533
   46DOPE   C36 5897   4.271   6.181  12.972  0.7954  0.4346 -0.5054
   46DOPE   H6X 5898   4.358   6.121  13.006  0.4385 -0.5303 -1.2454
   46DOPE   H6Y 5899   4.203   6.193  13.060 -1.5312  1.1074 -2.2945
   46DOPE   C37 5900   4.298   6.327  12.924  0.8309 -0.8660  0.1165
   46DOPE   H7X 5901   4.359   6.328  12.831 -1.6343  2.3216 -1.6698
   46DOPE   H7Y 5902   4.200   6.371  12.895  1.4086 -0.0221 -0.6218
   46DOPE   C38 5903   4.371   6.419  13.027 -0.8394 -0.2474 -0.1720
   46DOPE   H8X 5904   4.462   6.363  13.054 -1.3492 -0.6817  0.6790
   46DOPE   H8Y 5905   4.314   6.439  13.120  0.1821  0.0290  0.4068
   46DOPE   C39 5906   4.408   6.553  12.969 -0.1299 -0.5773 -0.9746
   46DOPE   H9X 5907   4.507   6.565  12.922  0.3370  0.7835  0.3077
   46DOPE  C310 5908   4.338   6.667  12.985  0.4338  0.5911 -0.2440
   46DOPE  H10X 5909   4.366   6.765  12.944  0.3572  1.1734  1.0558
   46DOPE  C311 5910   4.202   6.666  13.061  0.1334  0.1215  0.0457
   46DOPE  H11X 5911   4.143   6.740  13.001  0.5045 -0.2282 -0.7689
   46DOPE  H11Y 5912   4.143   6.572  13.059  0.9570 -0.3955 -0.0697
   46DOPE  C312 5913   4.212   6.722  13.206 -0.0774 -0.0792  0.2866
   46DOPE  H12X 5914   4.306   6.685  13.251  0.0106  1.0600  1.0734
   46DOPE  H12Y 5915   4.131   6.696  13.277  0.8146 -0.0642  1.3253
   46DOPE  C313 5916   4.223   6.878  13.207  0.1793 -0.4089 -0.1691
   46DOPE  H13X 5917   4.308   6.902  13.139 -0.7300  1.4045 -0.7312
   46DOPE  H13Y 5918   4.134   6.923  13.159 -0.3006  0.4312  1.4413
   46DOPE  C314 5919   4.258   6.937  13.342  0.8037  0.2996  0.4089
   46DOPE  H14X 5920   4.274   7.046  13.328 -0.7447  0.4647 -0.2200
   46DOPE  H14Y 5921   4.355   6.898  13.379  0.8480  0.8964  0.9533
   46DOPE  C315 5922   4.156   6.902  13.455  0.3457  0.7920 -0.5483
   46DOPE  H15X 5923   4.193   6.959  13.542 -0.7500 -1.1733  1.3228
   46DOPE  H15Y 5924   4.152   6.794  13.483 -1.4464  1.5897  2.8101
   46DOPE  C316 5925   4.006   6.933  13.414 -0.2538  0.4445 -0.8058
   46DOPE  H16X 5926   3.965   6.873  13.330 -0.4157  1.3655 -1.3972
   46DOPE  H16Y 5927   4.004   7.040  13.383 -0.7995  0.6068 -0.2109
   46DOPE  C317 5928   3.908   6.940  13.534 -0.6064  0.0972 -0.3335
   46DOPE  H17X 5929   3.952   7.001  13.617 -0.1683  0.7935 -1.0568
   46DOPE  H17Y 5930   3.815   6.985  13.492 -0.2932 -2.9672 -4.9614
   46DOPE  C318 5931   3.869   6.801  13.587 -0.1972 -0.7027 -0.3429
   46DOPE  H18X 5932   3.958   6.734  13.589  1.2978  1.1855 -0.9429
   46DOPE  H18Y 5933   3.804   6.816  13.675 -0.4255 -0.3024 -0.5768
   46DOPE  H18Z 5934   3.798   6.763  13.510 -1.1548  2.0133 -0.8898
   47DOPE     N 5935   1.727   5.114  12.577 -0.4534 -0.0373 -0.1890
   47DOPE   HN1 5936   1.687   5.187  12.640  1.9927  0.8429  0.4515
   47DOPE   HN2 5937   1.758   5.037  12.640 -0.7841 -1.9096 -2.2034
   47DOPE   HN3 5938   1.804   5.157  12.523  2.6872 -2.1857  2.1724
   47DOPE   C12 5939   1.615   5.064  12.495  0.4709 -0.7831  0.1953
   47DOPE  H12A 5940   1.560   4.997  12.564 -0.9366  0.1784  0.0452
   47DOPE  H12B 5941   1.653   5.015  12.403  0.1354  1.3645 -1.1501
   47DOPE   C11 5942   1.516   5.178  12.455  0.3007 -0.2230 -0.5940
   47DOPE  H11A 5943   1.431   5.127  12.406 -0.0566  0.6413 -0.8827
   47DOPE  H11B 5944   1.564   5.248  12.384 -0.2645  1.2340  0.4307
   47DOPE     P 5945   1.335   5.236  12.646 -0.7127  0.1916  0.3830
   47DOPE   O13 5946   1.306   5.098  12.682  0.3306 -0.0071  1.1220
   47DOPE   O14 5947   1.237   5.304  12.558 -0.7196 -0.2077 -0.0151
   47DOPE   O11 5948   1.356   5.315  12.777  0.6162 -0.2919 -0.2449
   47DOPE   O12 5949   1.479   5.255  12.573  0.8384 -0.0966 -0.0431
   47DOPE    C1 5950   1.429   5.438  12.783 -0.0860 -0.0942 -0.3669
   47DOPE    HA 5951   1.378   5.505  12.855  0.7562 -0.0652  0.2223
   47DOPE    HB 5952   1.412   5.495  12.689 -3.0409  0.5678  0.4789
   47DOPE    C2 5953   1.578   5.419  12.822 -0.2388  0.8386  0.1012
   47DOPE    HS 5954   1.621   5.352  12.744 -0.5942  0.1387  0.4938
   47DOPE   O21 5955   1.579   5.347  12.949 -0.6329 -0.1336 -0.4081
   47DOPE   C21 5956   1.631   5.225  12.949 -0.4267  0.2694 -0.0170
   47DOPE   O22 5957   1.687   5.174  12.852  0.6756  0.3280  0.6219
   47DOPE   C22 5958   1.604   5.149  13.077 -0.3219  0.9932 -0.0538
   47DOPE   H2R 5959   1.562   5.213  13.157 -0.5046  0.5864  0.1784
   47DOPE   H2S 5960   1.698   5.117  13.126  0.0080  2.1364  0.0877
   47DOPE    C3 5961   1.660   5.550  12.833  0.2428 -0.0355 -0.4331
   47DOPE    HX 5962   1.602   5.606  12.909 -1.1509  1.2788 -2.3679
   47DOPE    HY 5963   1.629   5.598  12.738  1.3256 -0.8552 -1.2089
   47DOPE   O31 5964   1.802   5.540  12.857 -0.4858  0.2798 -0.2095
   47DOPE   C31 5965   1.877   5.521  12.755  0.1535  0.1934 -0.4813
   47DOPE   O32 5966   1.840   5.490  12.641  0.2181 -0.4023  0.3653
   47DOPE   C32 5967   2.024   5.556  12.781  0.0190 -0.2316  0.0361
   47DOPE   H2X 5968   2.071   5.456  12.791  3.2119  1.2776  1.5042
   47DOPE   H2Y 5969   2.066   5.594  12.685  0.9865  0.2168  0.6201
   47DOPE   C23 5970   1.513   5.027  13.063 -0.2020  0.4942  0.3827
   47DOPE   H3R 5971   1.509   4.962  13.153 -2.0447 -2.5725 -1.7123
   47DOPE   H3S 5972   1.545   4.954  12.986 -0.9575 -0.3062  0.8106
   47DOPE   C24 5973   1.371   5.045  13.020  0.3844 -0.3728  0.4658
   47DOPE   H4R 5974   1.366   5.098  12.923  0.6465 -1.3688 -0.1054
   47DOPE   H4S 5975   1.313   5.118  13.082  1.1938  0.7808 -0.0981
   47DOPE   C25 5976   1.284   4.915  13.006 -0.1368  0.1082 -0.1351
   47DOPE   H5R 5977   1.344   4.854  12.935  1.5112  1.9033 -0.3878
   47DOPE   H5S 5978   1.180   4.932  12.972 -0.7223 -3.4536 -0.5308
   47DOPE   C26 5979   1.268   4.841  13.135 -0.0222 -0.1243 -0.7667
   47DOPE   H6R 5980   1.226   4.913  13.208 -0.8695 -1.1259 -0.2272
   47DOPE   H6S 5981   1.370   4.823  13.175 -0.1694  1.1915  0.2745
   47DOPE   C27 5982   1.164   4.730  13.130  0.1680 -0.2880  0.3248
   47DOPE   H7R 5983   1.183   4.665  13.042  2.3206  0.1656  0.4000
   47DOPE   H7S 5984   1.060   4.768  13.123  0.4916  0.9843  1.9180
   47DOPE   C28 5985   1.179   4.629  13.242 -0.6633  0.4656 -0.4981
   47DOPE   H8R 5986   1.280   4.595  13.272 -1.0557  0.6870  1.1277
   47DOPE   H8S 5987   1.114   4.541  13.221  1.8658 -2.2257  2.0480
   47DOPE   C29 5988   1.136   4.682  13.381 -0.3989 -0.0911 -0.1606
   47DOPE   H9R 5989   1.027   4.693  13.390 -0.4402 -0.5068 -0.1065
   47DOPE  C210 5990   1.215   4.686  13.490  0.8822 -0.1755  0.9235
   47DOPE  H10R 5991   1.185   4.739  13.582  1.6446 -1.5329  1.9923
   47DOPE  C211 5992   1.359   4.653  13.499 -0.8623 -0.5566 -0.5517
   47DOPE  H11R 5993   1.411   4.748  13.525  0.3839 -1.6161  1.0554
   47DOPE  H11S 5994   1.413   4.619  13.407  1.1997 -0.2033  0.4618
   47DOPE  C212 5995   1.393   4.551  13.613  0.2451 -0.3649 -0.6446
   47DOPE  H12R 5996   1.503   4.535  13.621  0.0164 -1.2133  2.2184
   47DOPE  H12S 5997   1.355   4.447  13.602 -0.6035  0.1013 -2.4739
   47DOPE  C213 5998   1.353   4.613  13.744 -0.0531 -0.3968  0.2551
   47DOPE  H13R 5999   1.245   4.628  13.763  0.3725  1.6592  1.3589
   47DOPE  H13S 6000   1.392   4.717  13.744  0.4405 -0.5375  2.1823
   47DOPE  C214 6001   1.406   4.535  13.865 -0.4998  0.9330 -0.6162
   47DOPE  H14R 6002   1.416   4.604  13.952  0.1409 -2.9525  2.6635
   47DOPE  H14S 6003   1.511   4.508  13.840 -0.5207 -2.3625  2.1096
   47DOPE  C215 6004   1.334   4.410  13.907 -0.1863  0.1946  0.0383
   47DOPE  H15R 6005   1.332   4.332  13.829  1.8715  1.1987 -1.0976
   47DOPE  H15S 6006   1.231   4.442  13.932 -0.4264 -0.4304 -0.1415
   47DOPE  C216 6007   1.373   4.353  14.044 -0.6797 -0.4561 -0.5754
   47DOPE  H16R 6008   1.374   4.428  14.126 -1.9301  0.1474 -1.0863
   47DOPE  H16S 6009   1.475   4.313  14.025  0.2004  1.3184  0.2322
   47DOPE  C217 6010   1.292   4.235  14.080  0.2345  0.1212  1.0260
   47DOPE  H17R 6011   1.271   4.158  14.002 -0.5370  0.6442  0.7055
   47DOPE  H17S 6012   1.188   4.265  14.104  0.3197  0.9534  0.4014
   47DOPE  C218 6013   1.359   4.157  14.193  0.5330  0.1493  0.3449
   47DOPE  H18R 6014   1.309   4.066  14.234  0.4352  0.1690  0.2722
   47DOPE  H18S 6015   1.370   4.222  14.282 -2.2364  1.7508 -0.3651
   47DOPE  H18T 6016   1.457   4.119  14.157  0.1839 -0.0490 -0.4108
   47DOPE   C33 6017   2.074   5.649  12.891  0.0957 -0.9234 -0.1710
   47DOPE   H3X 6018   2.015   5.742  12.902  0.5352 -0.4363 -1.7018
   47DOPE   H3Y 6019   2.176   5.684  12.865  0.0736  1.1488  2.1293
   47DOPE   C34 6020   2.075   5.590  13.027  0.6655 -0.2318 -0.6850
   47DOPE   H4X 6021   2.089   5.666  13.107 -1.9084 -1.2840  0.8737
   47DOPE   H4Y 6022   1.972   5.558  13.053  1.0826 -0.4890  0.6998
   47DOPE   C35 6023   2.169   5.470  13.046  0.0304  0.0403  0.2104
   47DOPE   H5X 6024   2.277   5.496  13.050 -0.2110  1.9778 -2.4418
   47DOPE   H5Y 6025   2.170   5.398  12.961  2.2249 -0.4378  0.5883
   47DOPE   C36 6026   2.126   5.395  13.169 -0.1520 -0.2326  0.7396
   47DOPE   H6X 6027   2.088   5.457  13.252 -0.1193 -2.4178  2.4595
   47DOPE   H6Y 6028   2.210   5.333  13.208 -1.0256 -1.6172  0.5086
   47DOPE   C37 6029   2.015   5.291  13.130  0.6638 -0.1368 -0.3076
   47DOPE   H7X 6030   1.937   5.287  13.210  1.2843  2.3195  0.5052
   47DOPE   H7Y 6031   1.965   5.334  13.041 -0.7760 -0.5806  0.2570
   47DOPE   C38 6032   2.069   5.149  13.095  0.0211 -0.4517 -0.6478
   47DOPE   H8X 6033   2.127   5.114  13.184  0.2087 -0.8549 -0.9273
   47DOPE   H8Y 6034   2.143   5.151  13.012  0.2175  0.8979 -0.4754
   47DOPE   C39 6035   1.976   5.035  13.053  0.5691  0.1385 -0.1713
   47DOPE   H9X 6036   1.960   5.033  12.944  0.3849 -0.1044 -0.1402
   47DOPE  C310 6037   1.921   4.941  13.129 -0.3668  0.1283 -0.7457
   47DOPE  H10X 6038   1.853   4.865  13.087 -0.4791 -0.0297 -0.2916
   47DOPE  C311 6039   1.933   4.929  13.279 -1.2907  0.4261 -0.0414
   47DOPE  H11X 6040   2.037   4.953  13.311 -0.5062 -1.3908 -1.1059
   47DOPE  H11Y 6041   1.861   5.008  13.310 -1.3985  0.6537 -0.8517
   47DOPE  C312 6042   1.886   4.792  13.339  0.0170 -0.6357  0.8802
   47DOPE  H12X 6043   1.948   4.711  13.294 -1.2465 -1.6518  0.9267
   47DOPE  H12Y 6044   1.780   4.777  13.312 -0.0543  0.9469  0.1854
   47DOPE  C313 6045   1.900   4.798  13.487  0.0954  0.4033  1.0803
   47DOPE  H13X 6046   1.999   4.842  13.510  0.5649  0.4912 -0.9399
   47DOPE  H13Y 6047   1.825   4.864  13.537  1.4901  1.5248  1.7592
   47DOPE  C314 6048   1.883   4.656  13.543  0.1926 -0.3187  0.1986
   47DOPE  H14X 6049   1.945   4.584  13.486 -1.5861 -2.0133  0.2828
   47DOPE  H14Y 6050   1.777   4.626  13.529  0.7447 -2.3681  0.1254
   47DOPE  C315 6051   1.925   4.657  13.693  0.7920  0.8663  0.5145
   47DOPE  H15X 6052   1.845   4.700  13.758 -0.8875 -0.0423 -0.8713
   47DOPE  H15Y 6053   2.020   4.712  13.709  0.1040  2.4749 -0.5527
   47DOPE  C316 6054   1.946   4.518  13.748 -0.3849 -0.2216  0.2487
   47DOPE  H16X 6055   2.012   4.449  13.692  1.5210 -0.2350  2.3358
   47DOPE  H16Y 6056   1.848   4.465  13.752 -0.9109  0.7209 -0.0093
   47DOPE  C317 6057   1.994   4.522  13.896  0.7047 -0.2305 -0.0377
   47DOPE  H17X 6058   2.088   4.579  13.904  1.2192 -0.8372 -1.4362
   47DOPE  H17Y 6059   1.906   4.561  13.952  1.0707 -1.1050  1.2136
   47DOPE  C318 6060   2.011   4.380  13.944  0.3430 -0.6153 -0.7935
   47DOPE  H18X 6061   1.910   4.339  13.921  0.2126 -0.0143 -1.2889
   47DOPE  H18Y 6062   2.093   4.329  13.888  1.6830  1.9470 -1.2762
   47DOPE  H18Z 6063   2.036   4.380  14.052 -1.4001  2.5590 -0.2877
   48DOPE     N 6064   6.682   3.000  12.403  0.4201  0.1755  0.4989
   48DOPE   HN1 6065   6.772   2.986  12.454  0.8573  1.6514  0.1779
   48DOPE   HN2 6066   6.696   3.094  12.362  0.5963  0.3750  1.0109
   48DOPE   HN3 6067   6.592   3.007  12.455  0.2136  5.6175  0.0017
   48DOPE   C12 6068   6.667   2.899  12.296  0.1809  0.5986 -0.3549
   48DOPE  H12A 6069   6.755   2.920  12.231  1.2856 -0.3803  0.7649
   48DOPE  H12B 6070   6.569   2.915  12.246 -0.7342 -1.9646  0.4566
   48DOPE   C11 6071   6.662   2.758  12.353 -0.0855  0.7125 -0.2946
   48DOPE  H11A 6072   6.645   2.694  12.264  1.5672  2.0703 -1.6494
   48DOPE  H11B 6073   6.580   2.732  12.424 -0.0455  2.4074  0.4271
   48DOPE     P 6074   6.866   2.606  12.385  0.0678  0.2201  0.0010
   48DOPE   O13 6075   6.958   2.572  12.497 -0.0849 -0.1204  0.2838
   48DOPE   O14 6076   6.931   2.629  12.254 -0.1542 -0.1991 -0.1535
   48DOPE   O11 6077   6.758   2.490  12.373 -0.3682 -0.0098  0.1819
   48DOPE   O12 6078   6.777   2.732  12.424 -0.1076  0.4205 -0.5104
   48DOPE    C1 6079   6.702   2.457  12.499  0.5149 -0.3385 -0.0449
   48DOPE    HA 6080   6.593   2.439  12.487 -0.1459  3.1199 -0.2275
   48DOPE    HB 6081   6.706   2.524  12.588 -1.5921 -1.0136  0.6104
   48DOPE    C2 6082   6.763   2.317  12.533  0.3570  0.2952  0.4499
   48DOPE    HS 6083   6.873   2.325  12.531  0.3304  0.6497  0.3502
   48DOPE   O21 6084   6.712   2.219  12.441 -0.4073 -0.2105  0.2661
   48DOPE   C21 6085   6.796   2.140  12.381  0.6328 -0.5932  0.1705
   48DOPE   O22 6086   6.919   2.126  12.400  0.1659  0.1277  0.2631
   48DOPE   C22 6087   6.726   2.078  12.260 -0.3823  0.1775  0.0786
   48DOPE   H2R 6088   6.765   2.122  12.166  1.8233  0.6849  1.1849
   48DOPE   H2S 6089   6.616   2.094  12.264 -0.2792  0.9246  0.0621
   48DOPE    C3 6090   6.724   2.277  12.675 -0.3507  0.4103 -0.0629
   48DOPE    HX 6091   6.614   2.268  12.667 -0.1780 -0.6856 -1.6737
   48DOPE    HY 6092   6.754   2.362  12.740  1.6435 -0.0736 -0.2808
   48DOPE   O31 6093   6.785   2.154  12.717  0.3819  0.8691  0.1824
   48DOPE   C31 6094   6.912   2.165  12.753  1.0032 -0.3770 -0.2014
   48DOPE   O32 6095   6.969   2.272  12.764 -0.7399  0.6865  0.0521
   48DOPE   C32 6096   6.972   2.038  12.797  0.7281  0.7562  0.0245
   48DOPE   H2X 6097   6.903   1.954  12.775 -1.9401  2.3515  1.7095
   48DOPE   H2Y 6098   7.068   2.016  12.746  1.6081  0.3928  1.7658
   48DOPE   C23 6099   6.747   1.929  12.277 -0.2291 -0.1190  0.2017
   48DOPE   H3R 6100   6.845   1.899  12.321  0.1607  0.1527 -0.4803
   48DOPE   H3S 6101   6.747   1.878  12.178 -1.9248  0.9173 -0.3689
   48DOPE   C24 6102   6.639   1.865  12.366 -0.9272 -0.1044 -0.3992
   48DOPE   H4R 6103   6.565   1.864  12.284 -0.6784 -0.0138 -0.6282
   48DOPE   H4S 6104   6.598   1.930  12.446  2.2567 -0.2030  1.4738
   48DOPE   C25 6105   6.674   1.734  12.436 -0.6009 -0.3681 -0.1093
   48DOPE   H5R 6106   6.723   1.659  12.370  1.8545 -0.4339  1.6703
   48DOPE   H5S 6107   6.584   1.691  12.484 -3.2420  3.6848 -0.9715
   48DOPE   C26 6108   6.779   1.763  12.548 -0.3324  0.0260 -0.5238
   48DOPE   H6R 6109   6.736   1.838  12.619  2.6755  1.4262 -0.0476
   48DOPE   H6S 6110   6.873   1.806  12.508  0.0819  0.2153  0.6049
   48DOPE   C27 6111   6.813   1.638  12.630 -0.6115  0.2836 -0.5689
   48DOPE   H7R 6112   6.844   1.571  12.548  0.3988  1.1611 -0.9114
   48DOPE   H7S 6113   6.735   1.581  12.685  0.3863 -0.0790  0.5112
   48DOPE   C28 6114   6.919   1.669  12.742 -0.0044 -0.4800  0.0634
   48DOPE   H8R 6115   6.869   1.707  12.834  1.5163  1.1422  0.2833
   48DOPE   H8S 6116   6.974   1.753  12.695 -2.3078  0.0702 -1.8529
   48DOPE   C29 6117   7.004   1.546  12.771  0.6169  0.3406  0.0462
   48DOPE   H9R 6118   6.964   1.450  12.735  1.8922 -0.8069  1.5073
   48DOPE  C210 6119   7.126   1.552  12.823 -0.1115 -0.0821 -0.0057
   48DOPE  H10R 6120   7.175   1.453  12.822 -1.2119 -0.6891 -2.9089
   48DOPE  C211 6121   7.209   1.666  12.868  0.8136  0.4549 -0.0853
   48DOPE  H11R 6122   7.151   1.759  12.885 -0.4502 -0.1244 -1.1092
   48DOPE  H11S 6123   7.285   1.682  12.789  1.6338  0.3518  0.6624
   48DOPE  C212 6124   7.282   1.634  12.997  0.7444  0.1649 -0.3300
   48DOPE  H12R 6125   7.370   1.573  12.969 -0.0916 -1.2932  0.0945
   48DOPE  H12S 6126   7.204   1.578  13.053 -1.1610  2.0354 -0.9510
   48DOPE  C213 6127   7.318   1.758  13.083 -0.0112  0.0758  0.1852
   48DOPE  H13R 6128   7.234   1.831  13.088  0.0363  0.1601 -0.1669
   48DOPE  H13S 6129   7.399   1.812  13.028 -0.2860  1.5121  1.1476
   48DOPE  C214 6130   7.377   1.736  13.221  0.4208  0.0870  0.2830
   48DOPE  H14R 6131   7.471   1.676  13.219 -0.1013 -0.7394 -0.0432
   48DOPE  H14S 6132   7.315   1.673  13.288  2.2467 -0.9798  1.0673
   48DOPE  C215 6133   7.408   1.864  13.297  0.9602 -0.2294  0.0751
   48DOPE  H15R 6134   7.308   1.903  13.324  0.1728 -1.2930 -1.1436
   48DOPE  H15S 6135   7.457   1.943  13.237  0.5240  1.1681  1.4969
   48DOPE  C216 6136   7.485   1.830  13.427  0.1043 -0.1022  0.1160
   48DOPE  H16R 6137   7.556   1.746  13.414 -0.6070 -0.7135  0.0932
   48DOPE  H16S 6138   7.412   1.796  13.504 -2.6705 -0.6580 -2.6020
   48DOPE  C217 6139   7.557   1.951  13.477  0.4696 -0.1314  1.2876
   48DOPE  H17R 6140   7.482   2.018  13.524  1.5767  1.9628  0.2380
   48DOPE  H17S 6141   7.611   2.002  13.394  0.6936 -3.0105 -0.4653
   48DOPE  C218 6142   7.661   1.923  13.593  0.2618 -0.3787  0.2291
   48DOPE  H18R 6143   7.605   1.906  13.687  1.5748 -1.9746  0.7842
   48DOPE  H18S 6144   7.734   2.006  13.606  1.0299 -0.9796 -0.1360
   48DOPE  H18T 6145   7.719   1.834  13.559 -0.8729 -0.9825 -0.1731
   48DOPE   C33 6146   7.013   2.040  12.950 -0.0380  0.4170 -0.1921
   48DOPE   H3X 6147   7.048   2.140  12.983 -0.8258  0.6809 -0.1496
   48DOPE   H3Y 6148   7.093   1.966  12.974  0.1688  0.3166 -1.1560
   48DOPE   C34 6149   6.891   1.993  13.022  0.0606 -0.9297 -0.9353
   48DOPE   H4X 6150   6.802   2.056  13.004 -0.5452 -0.7799  2.0524
   48DOPE   H4Y 6151   6.868   1.889  12.989 -0.3332 -1.4780  0.9463
   48DOPE   C35 6152   6.918   1.999  13.172 -0.0215  0.5188 -0.0223
   48DOPE   H5X 6153   7.013   1.945  13.193  0.3899  1.4596  0.6096
   48DOPE   H5Y 6154   6.840   1.943  13.227 -1.2078  1.9861 -0.1574
   48DOPE   C36 6155   6.928   2.135  13.243  0.1526 -0.0782 -0.1285
   48DOPE   H6X 6156   6.830   2.186  13.257  0.9507  1.2625  0.8917
   48DOPE   H6Y 6157   6.983   2.210  13.182 -0.0460  2.5213  2.6114
   48DOPE   C37 6158   6.995   2.126  13.377 -0.1013  0.0381  0.3823
   48DOPE   H7X 6159   7.097   2.082  13.372 -0.1666  0.0079 -1.9001
   48DOPE   H7Y 6160   6.993   2.222  13.433 -1.8238 -0.4134  1.1621
   48DOPE   C38 6161   6.913   2.042  13.481 -0.4433 -0.2263  0.0855
   48DOPE   H8X 6162   6.928   1.939  13.443 -0.0386 -0.3646  0.6053
   48DOPE   H8Y 6163   6.804   2.059  13.472 -0.3453  0.0232 -0.6746
   48DOPE   C39 6164   6.968   2.047  13.620 -0.4295  0.1889 -0.2553
   48DOPE   H9X 6165   7.049   1.974  13.637  0.5022  1.5448  1.4617
   48DOPE  C310 6166   6.942   2.137  13.717  0.3896  0.9810 -0.2346
   48DOPE  H10X 6167   6.989   2.124  13.816 -1.0772 -0.5437  0.3060
   48DOPE  C311 6168   6.836   2.241  13.700 -0.4365 -0.6786 -0.1584
   48DOPE  H11X 6169   6.769   2.219  13.613 -1.6442  3.8310 -0.5929
   48DOPE  H11Y 6170   6.768   2.251  13.787  0.1901 -1.1227  0.3880
   48DOPE  C312 6171   6.900   2.383  13.675 -0.0574  0.1693  0.2358
   48DOPE  H12X 6172   6.983   2.371  13.603 -1.3352 -1.1660 -1.0638
   48DOPE  H12Y 6173   6.944   2.410  13.774 -2.1934 -1.1818  1.6671
   48DOPE  C313 6174   6.796   2.491  13.642  0.3537  0.0771 -0.4158
   48DOPE  H13X 6175   6.693   2.452  13.623 -0.3369  2.8253 -3.1018
   48DOPE  H13Y 6176   6.795   2.567  13.723  2.2583  0.2393 -0.5001
   48DOPE  C314 6177   6.815   2.555  13.507 -0.2017  0.8484  0.4665
   48DOPE  H14X 6178   6.924   2.576  13.498  0.3480 -1.4268  1.2470
   48DOPE  H14Y 6179   6.754   2.643  13.478 -1.7911 -0.3941 -0.0959
   48DOPE  C315 6180   6.790   2.473  13.374 -0.2138  0.6966  0.1727
   48DOPE  H15X 6181   6.679   2.469  13.372 -0.1868 -0.2648 -0.1368
   48DOPE  H15Y 6182   6.826   2.367  13.377  1.3793  1.2044  2.9069
   48DOPE  C316 6183   6.862   2.541  13.253  0.3182 -0.8780  0.2632
   48DOPE  H16X 6184   6.972   2.529  13.259  0.6671  1.7656  0.5713
   48DOPE  H16Y 6185   6.838   2.649  13.266  1.8127 -0.7381  2.5596
   48DOPE  C317 6186   6.805   2.493  13.124  0.2773 -0.6905  0.9499
   48DOPE  H17X 6187   6.823   2.386  13.102 -1.1177 -0.2880 -2.9322
   48DOPE  H17Y 6188   6.694   2.506  13.122  0.2886 -0.6491 -0.6628
   48DOPE  C318 6189   6.868   2.572  13.002  0.2785  0.8065 -0.1806
   48DOPE  H18X 6190   6.816   2.539  12.910 -0.5773  1.3022  0.1162
   48DOPE  H18Y 6191   6.854   2.681  13.017  0.5401  0.8313 -0.1124
   48DOPE  H18Z 6192   6.974   2.541  12.986 -0.4765 -2.1671 -0.0136
   49DOPE     N 6193   1.732   5.618  12.326  0.6015 -0.1265 -0.4443
   49DOPE   HN1 6194   1.822   5.571  12.349  0.6064 -0.3802 -0.9763
   49DOPE   HN2 6195   1.651   5.558  12.350 -0.5755  0.7744 -2.0079
   49DOPE   HN3 6196   1.737   5.653  12.228 -1.1043  0.8949 -0.2050
   49DOPE   C12 6197   1.717   5.732  12.425 -0.2484  0.1792  0.1299
   49DOPE  H12A 6198   1.723   5.678  12.521  1.8593  2.5037  1.4191
   49DOPE  H12B 6199   1.620   5.782  12.404 -0.7772  0.1223  2.2451
   49DOPE   C11 6200   1.829   5.832  12.411 -0.2527 -1.0928 -0.1230
   49DOPE  H11A 6201   1.816   5.900  12.498 -0.4166 -0.7997 -0.3726
   49DOPE  H11B 6202   1.816   5.887  12.315 -1.0369  0.5871  0.8917
   49DOPE     P 6203   2.086   5.866  12.433 -0.1112 -0.6056  0.2079
   49DOPE   O13 6204   2.118   5.934  12.307 -0.4948  0.0061  0.3584
   49DOPE   O14 6205   2.198   5.783  12.479  0.2773 -0.6040 -0.3605
   49DOPE   O11 6206   2.042   5.978  12.537 -0.3897  0.0011  0.6487
   49DOPE   O12 6207   1.958   5.779  12.416  0.5903 -0.2727 -0.1335
   49DOPE    C1 6208   2.040   5.960  12.674  0.6489  0.3639 -0.2849
   49DOPE    HA 6209   2.080   5.862  12.708  0.0771 -0.2083 -1.2198
   49DOPE    HB 6210   1.936   5.959  12.712  0.1843  1.2896 -1.4681
   49DOPE    C2 6211   2.121   6.067  12.751  0.9154 -0.6240  0.1394
   49DOPE    HS 6212   2.221   6.070  12.703  0.2277 -0.8988 -1.3649
   49DOPE   O21 6213   2.134   6.028  12.893  0.1616  0.0900  0.0161
   49DOPE   C21 6214   2.260   6.028  12.940  0.5115  0.3653 -0.2523
   49DOPE   O22 6215   2.359   6.072  12.888 -0.3584 -0.3185  0.8865
   49DOPE   C22 6216   2.255   5.975  13.086 -0.5420  0.1719  0.2990
   49DOPE   H2R 6217   2.204   5.877  13.092  1.4582 -0.8339  2.5167
   49DOPE   H2S 6218   2.191   6.039  13.149 -1.8136  0.4616 -1.2300
   49DOPE    C3 6219   2.049   6.207  12.739 -0.3607 -0.0355 -0.1708
   49DOPE    HX 6220   1.941   6.207  12.765 -0.4960  2.1564 -0.5704
   49DOPE    HY 6221   2.039   6.245  12.635  0.0536 -0.4025 -0.3483
   49DOPE   O31 6222   2.115   6.301  12.827  0.0135 -0.1106 -0.3192
   49DOPE   C31 6223   2.224   6.361  12.775 -0.1071  0.3761 -0.6901
   49DOPE   O32 6224   2.276   6.332  12.673  0.4950 -0.1814  0.2294
   49DOPE   C32 6225   2.288   6.450  12.883  0.6667  0.7530 -0.1084
   49DOPE   H2X 6226   2.267   6.556  12.857  0.1200  0.7058  0.1221
   49DOPE   H2Y 6227   2.240   6.425  12.980 -2.1893  3.8850 -0.5069
   49DOPE   C23 6228   2.397   5.961  13.159 -0.2870  0.0938  0.3730
   49DOPE   H3R 6229   2.438   6.064  13.160 -1.7806  0.7133 -0.0587
   49DOPE   H3S 6230   2.459   5.901  13.089  1.0590 -0.3046  1.8484
   49DOPE   C24 6231   2.404   5.882  13.291  0.1858  0.0582 -0.9844
   49DOPE   H4R 6232   2.328   5.937  13.351 -1.2970 -2.3175 -0.5475
   49DOPE   H4S 6233   2.507   5.894  13.332 -0.1116  1.7382 -0.6590
   49DOPE   C25 6234   2.370   5.733  13.287  0.6750 -0.3382  0.1465
   49DOPE   H5R 6235   2.428   5.689  13.202  0.3694  2.3421 -1.5680
   49DOPE   H5S 6236   2.261   5.722  13.274  0.7698 -0.8611 -0.2359
   49DOPE   C26 6237   2.417   5.662  13.415  0.3150  0.3946  0.0979
   49DOPE   H6R 6238   2.327   5.660  13.480  0.8491 -0.7603  0.8355
   49DOPE   H6S 6239   2.499   5.710  13.472  0.9285 -0.2912 -0.1962
   49DOPE   C27 6240   2.457   5.518  13.386 -0.1586 -0.5305 -0.1217
   49DOPE   H7R 6241   2.535   5.515  13.307 -1.1885  0.1244 -1.2000
   49DOPE   H7S 6242   2.370   5.472  13.333 -1.4158  1.0924  0.4305
   49DOPE   C28 6243   2.475   5.429  13.515 -0.0731  0.3867 -0.3115
   49DOPE   H8R 6244   2.395   5.440  13.591 -0.9550 -1.8839 -0.8428
   49DOPE   H8S 6245   2.572   5.459  13.560  0.0102  1.1078 -0.9458
   49DOPE   C29 6246   2.498   5.285  13.476  0.4429 -0.5107 -0.0726
   49DOPE   H9R 6247   2.596   5.256  13.434  0.3060 -0.5746 -0.3427
   49DOPE  C210 6248   2.406   5.187  13.495 -0.5084 -0.1078  0.3445
   49DOPE  H10R 6249   2.436   5.082  13.487  2.5142  0.4637  2.3430
   49DOPE  C211 6250   2.266   5.215  13.545 -0.2116  1.0226  0.1468
   49DOPE  H11R 6251   2.202   5.145  13.486  0.8462  0.1692 -0.0167
   49DOPE  H11S 6252   2.244   5.323  13.530  2.7295  1.5052 -1.1839
   49DOPE  C212 6253   2.243   5.171  13.696 -0.0688 -0.6216  0.5829
   49DOPE  H12R 6254   2.152   5.225  13.729  1.7869  2.1562  1.5264
   49DOPE  H12S 6255   2.326   5.216  13.755  0.4337  1.1237 -1.3324
   49DOPE  C213 6256   2.249   5.018  13.731 -0.2626 -0.5085 -0.2902
   49DOPE  H13R 6257   2.341   4.970  13.692  0.5732  0.4473  0.4424
   49DOPE  H13S 6258   2.161   4.967  13.686 -0.0136 -0.9078 -0.3192
   49DOPE  C214 6259   2.249   4.993  13.880  0.2687  0.3462  0.2359
   49DOPE  H14R 6260   2.333   5.056  13.915  2.5730 -1.1779 -2.1708
   49DOPE  H14S 6261   2.287   4.889  13.892 -2.1521 -0.6986 -0.4661
   49DOPE  C215 6262   2.107   5.008  13.946  0.5618 -0.2099  0.9653
   49DOPE  H15R 6263   2.024   4.960  13.891 -0.2230  1.0096  1.0675
   49DOPE  H15S 6264   2.075   5.114  13.939  0.1319 -0.4465 -1.5350
   49DOPE  C216 6265   2.108   4.953  14.089  0.4599  0.1059 -1.0176
   49DOPE  H16R 6266   2.178   5.018  14.145 -0.5270  1.7041 -1.5891
   49DOPE  H16S 6267   2.158   4.854  14.090 -0.3341 -0.3059 -1.1038
   49DOPE  C217 6268   1.966   4.931  14.151 -0.0527  0.3005 -0.0109
   49DOPE  H17R 6269   1.902   5.022  14.143 -1.1284 -0.2907  1.4944
   49DOPE  H17S 6270   1.980   4.902  14.257 -0.1666 -0.5841 -0.2339
   49DOPE  C218 6271   1.888   4.814  14.096 -0.5706 -0.7879  0.2248
   49DOPE  H18R 6272   1.942   4.719  14.114  0.5925 -0.4946 -1.4717
   49DOPE  H18S 6273   1.879   4.829  13.986 -1.0860 -0.9406  0.2411
   49DOPE  H18T 6274   1.781   4.814  14.126 -1.2922  0.9284 -2.0111
   49DOPE   C33 6275   2.441   6.425  12.900  0.3499  0.4677  0.2815
   49DOPE   H3X 6276   2.493   6.438  12.803  0.1277  0.1254  0.1167
   49DOPE   H3Y 6277   2.449   6.317  12.926  1.2709  0.0880 -1.4419
   49DOPE   C34 6278   2.521   6.498  13.018  0.4523 -0.1363  0.9170
   49DOPE   H4X 6279   2.625   6.459  13.011  0.0534 -1.1340  0.4932
   49DOPE   H4Y 6280   2.516   6.603  12.980  2.5144 -1.0659 -2.3295
   49DOPE   C35 6281   2.463   6.480  13.159 -0.1935 -0.6248  0.7812
   49DOPE   H5X 6282   2.469   6.371  13.180  3.2175 -0.9609 -1.1209
   49DOPE   H5Y 6283   2.356   6.510  13.162  0.6342  2.6406  0.7944
   49DOPE   C36 6284   2.525   6.574  13.271 -0.8532  0.7838 -0.1485
   49DOPE   H6X 6285   2.532   6.675  13.226  0.8928  1.8930  2.3948
   49DOPE   H6Y 6286   2.627   6.531  13.282 -1.1080  0.6614  1.9883
   49DOPE   C37 6287   2.455   6.574  13.403 -0.0352  0.2005  0.0677
   49DOPE   H7X 6288   2.533   6.619  13.468  0.7454 -1.4990  0.3733
   49DOPE   H7Y 6289   2.364   6.638  13.401  0.4029  0.8346  0.2245
   49DOPE   C38 6290   2.422   6.439  13.453  0.5001 -0.2897  0.3766
   49DOPE   H8X 6291   2.520   6.390  13.471 -0.5461 -2.7360 -0.1609
   49DOPE   H8Y 6292   2.355   6.384  13.384  0.0713  0.9408 -0.2193
   49DOPE   C39 6293   2.334   6.446  13.574 -0.1249  0.3493 -0.3420
   49DOPE   H9X 6294   2.245   6.509  13.571 -0.7963 -0.5386  0.3620
   49DOPE  C310 6295   2.374   6.400  13.690  0.2605  0.1565  0.0817
   49DOPE  H10X 6296   2.319   6.428  13.781 -0.1279 -0.2876 -0.0191
   49DOPE  C311 6297   2.493   6.314  13.723 -0.1569 -0.0676  0.4842
   49DOPE  H11X 6298   2.536   6.258  13.637 -0.8274 -1.0813  0.7893
   49DOPE  H11Y 6299   2.573   6.384  13.755  0.1677  0.0227 -0.4997
   49DOPE  C312 6300   2.470   6.211  13.838  0.2890 -0.4338 -0.4557
   49DOPE  H12X 6301   2.400   6.261  13.909 -0.6992 -0.9481 -1.0364
   49DOPE  H12Y 6302   2.569   6.175  13.873  0.5029 -0.1338 -0.7598
   49DOPE  C313 6303   2.381   6.099  13.783  0.4754  0.2144 -0.0791
   49DOPE  H13X 6304   2.290   6.151  13.746  0.5356 -0.3606 -1.0823
   49DOPE  H13Y 6305   2.431   6.055  13.694 -0.0690  1.1594 -0.8721
   49DOPE  C314 6306   2.345   5.991  13.880  0.4799  0.0455  0.1872
   49DOPE  H14X 6307   2.323   6.032  13.980 -1.1541  1.7031 -0.7850
   49DOPE  H14Y 6308   2.427   5.916  13.882  2.4617  2.0986 -0.0577
   49DOPE  C315 6309   2.213   5.919  13.840 -0.4434  1.1493 -0.1336
   49DOPE  H15X 6310   2.175   5.936  13.737 -1.8195 -0.6249  0.0395
   49DOPE  H15Y 6311   2.130   5.940  13.911 -0.1860  3.1343 -0.3549
   49DOPE  C316 6312   2.240   5.763  13.853 -0.5601 -0.2585 -0.4948
   49DOPE  H16X 6313   2.284   5.734  13.951 -0.3988  2.2265  0.2471
   49DOPE  H16Y 6314   2.308   5.728  13.772  1.2178  0.7509  0.4959
   49DOPE  C317 6315   2.109   5.686  13.848 -0.7066 -0.1898  0.7109
   49DOPE  H17X 6316   2.065   5.699  13.949 -1.1384 -0.5355  0.5695
   49DOPE  H17Y 6317   2.040   5.715  13.766 -1.4743 -3.6519 -0.0327
   49DOPE  C318 6318   2.138   5.541  13.819  0.1130 -0.9620 -0.5616
   49DOPE  H18X 6319   2.204   5.489  13.891  2.2021  0.9903 -0.9547
   49DOPE  H18Y 6320   2.041   5.488  13.809  1.0531 -3.1643  1.2282
   49DOPE  H18Z 6321   2.179   5.521  13.717 -0.8573  1.8574 -1.6063
   50DOPE     N 6322   7.597   5.189  11.798 -0.0791  0.2392 -0.2981
   50DOPE   HN1 6323   7.690   5.151  11.774 -0.4879  0.4071 -2.2938
   50DOPE   HN2 6324   7.529   5.133  11.743 -1.0629 -0.5984  1.6481
   50DOPE   HN3 6325   7.601   5.289  11.768 -1.2182  0.8965  1.5250
   50DOPE   C12 6326   7.570   5.166  11.944  0.1905 -0.5217 -0.1557
   50DOPE  H12A 6327   7.480   5.226  11.969  0.1228 -0.1953 -1.1472
   50DOPE  H12B 6328   7.658   5.208  11.997  0.4472 -0.2018 -0.8155
   50DOPE   C11 6329   7.539   5.017  11.974 -0.6500 -0.2334  0.0524
   50DOPE  H11A 6330   7.457   4.994  11.902  0.2775 -1.6156 -0.6013
   50DOPE  H11B 6331   7.497   4.993  12.073  1.3311 -1.2978  0.6851
   50DOPE     P 6332   7.775   4.907  12.022  0.0066 -0.0162 -0.1087
   50DOPE   O13 6333   7.832   5.034  12.075  0.2127  0.7265 -0.2014
   50DOPE   O14 6334   7.866   4.821  11.950 -0.2403  1.1798  0.5387
   50DOPE   O11 6335   7.723   4.827  12.153 -0.4658  0.4521 -0.2066
   50DOPE   O12 6336   7.651   4.934  11.930 -0.2583 -0.2879 -0.7112
   50DOPE    C1 6337   7.629   4.721  12.133 -0.0425  0.3521  0.2040
   50DOPE    HA 6338   7.640   4.671  12.035 -1.1933 -1.0829  0.7741
   50DOPE    HB 6339   7.526   4.763  12.136  0.3187  1.2120  0.9547
   50DOPE    C2 6340   7.652   4.622  12.248  0.9575 -0.0898  0.8510
   50DOPE    HS 6341   7.602   4.530  12.212  0.5073 -0.0137  1.2583
   50DOPE   O21 6342   7.587   4.674  12.368 -0.6896 -0.1379 -0.2116
   50DOPE   C21 6343   7.559   4.582  12.460  0.1307  0.4969  0.8354
   50DOPE   O22 6344   7.558   4.461  12.432 -0.0285 -0.1771  0.1461
   50DOPE   C22 6345   7.524   4.650  12.594 -0.3553  0.2673 -0.1712
   50DOPE   H2R 6346   7.413   4.660  12.594 -0.6298 -1.5873  2.5177
   50DOPE   H2S 6347   7.579   4.746  12.601  0.5086 -0.3423  2.6296
   50DOPE    C3 6348   7.802   4.588  12.276 -0.5282 -0.1703 -0.1591
   50DOPE    HX 6349   7.847   4.686  12.304 -2.0590  0.5188  0.0342
   50DOPE    HY 6350   7.856   4.569  12.181 -1.5941  1.3453 -1.1224
   50DOPE   O31 6351   7.821   4.474  12.360 -0.0488 -0.7608 -0.2632
   50DOPE   C31 6352   7.891   4.501  12.474  0.6731 -0.7226 -0.1020
   50DOPE   O32 6353   7.934   4.612  12.507  0.1358  0.7166  0.0983
   50DOPE   C32 6354   7.883   4.381  12.566 -0.3289  0.3406  0.1699
   50DOPE   H2X 6355   7.790   4.394  12.625 -0.6580 -1.8383  0.2334
   50DOPE   H2Y 6356   7.872   4.295  12.496 -0.2718  1.8977 -1.8386
   50DOPE   C23 6357   7.554   4.558  12.714 -0.3145 -0.6222 -0.0352
   50DOPE   H3R 6358   7.660   4.527  12.707 -0.0566  0.0136  0.8161
   50DOPE   H3S 6359   7.488   4.469  12.705 -2.5046  0.7222  1.5987
   50DOPE   C24 6360   7.529   4.622  12.852 -0.2565  0.1856 -0.0485
   50DOPE   H4R 6361   7.427   4.665  12.846 -1.3476 -2.0394  1.3236
   50DOPE   H4S 6362   7.596   4.710  12.860 -2.1546  1.6939 -0.0646
   50DOPE   C25 6363   7.537   4.523  12.970 -0.3396 -0.1922  0.2592
   50DOPE   H5R 6364   7.638   4.478  12.965 -0.2877  0.0923 -2.0537
   50DOPE   H5S 6365   7.464   4.442  12.950 -0.9387  0.4795 -0.3240
   50DOPE   C26 6366   7.516   4.592  13.108 -0.7294  0.0516 -0.4276
   50DOPE   H6R 6367   7.410   4.625  13.117 -1.3498 -2.1419  1.7432
   50DOPE   H6S 6368   7.595   4.669  13.116  0.3324 -0.8476 -1.8893
   50DOPE   C27 6369   7.537   4.493  13.228 -0.2112  0.0176  0.7077
   50DOPE   H7R 6370   7.643   4.468  13.253  0.0971  0.0851 -0.4738
   50DOPE   H7S 6371   7.487   4.394  13.218  1.3532 -0.8313  0.9982
   50DOPE   C28 6372   7.480   4.552  13.363  0.2411  0.2958 -0.5287
   50DOPE   H8R 6373   7.524   4.485  13.440 -2.8361 -0.0446  1.0725
   50DOPE   H8S 6374   7.376   4.516  13.346 -0.0670  0.5092  0.8550
   50DOPE   C29 6375   7.504   4.697  13.398 -0.4277  0.2814  0.4422
   50DOPE   H9R 6376   7.607   4.724  13.370 -0.0341 -2.4117 -0.9194
   50DOPE  C210 6377   7.417   4.792  13.437 -0.1385 -0.3736 -0.3497
   50DOPE  H10R 6378   7.450   4.893  13.464  0.7641 -1.0736  1.2693
   50DOPE  C211 6379   7.266   4.782  13.440 -0.0610  0.5903  0.0882
   50DOPE  H11R 6380   7.232   4.701  13.372 -0.6399  1.2936 -0.4881
   50DOPE  H11S 6381   7.214   4.877  13.412 -1.9787 -0.7904 -1.2683
   50DOPE  C212 6382   7.207   4.747  13.577 -0.1844  0.9301 -0.4566
   50DOPE  H12R 6383   7.234   4.821  13.655 -1.4515 -0.0645  0.9844
   50DOPE  H12S 6384   7.257   4.653  13.610 -1.0432 -0.1464 -2.0399
   50DOPE  C213 6385   7.054   4.736  13.591  0.4913  0.5530 -0.1766
   50DOPE  H13R 6386   7.039   4.647  13.526  2.0823 -1.3853  1.9539
   50DOPE  H13S 6387   7.001   4.825  13.551 -0.4517 -1.1656 -3.0195
   50DOPE  C214 6388   7.005   4.701  13.733 -0.1221 -0.1230 -0.5766
   50DOPE  H14R 6389   6.894   4.698  13.735 -0.1279 -0.7117  2.9236
   50DOPE  H14S 6390   7.041   4.780  13.802  0.7449 -0.0818 -1.0508
   50DOPE  C215 6391   7.047   4.564  13.781 -0.4952  0.2336  0.1251
   50DOPE  H15R 6392   7.134   4.576  13.849 -0.6109  2.1522 -0.0068
   50DOPE  H15S 6393   7.086   4.506  13.695 -0.6936 -2.3774  1.6945
   50DOPE  C216 6394   6.939   4.485  13.862  0.5035  0.3105 -0.4642
   50DOPE  H16R 6395   6.888   4.556  13.930  0.9727  1.2313 -1.0511
   50DOPE  H16S 6396   7.002   4.419  13.925  2.5626  1.7812 -0.8697
   50DOPE  C217 6397   6.829   4.414  13.778 -0.7501 -0.7474  0.3022
   50DOPE  H17R 6398   6.881   4.336  13.718  0.2397  0.7252 -0.8089
   50DOPE  H17S 6399   6.773   4.481  13.710  1.4527 -0.2498 -1.1222
   50DOPE  C218 6400   6.739   4.336  13.871  0.3459  0.0274 -0.5073
   50DOPE  H18R 6401   6.790   4.243  13.904 -0.6104  0.0099  0.9851
   50DOPE  H18S 6402   6.637   4.313  13.832 -0.3295  2.8709 -0.6294
   50DOPE  H18T 6403   6.718   4.383  13.969 -0.7479 -2.0951  0.3602
   50DOPE   C33 6404   8.010   4.357  12.652  0.3488  0.2606  0.6638
   50DOPE   H3X 6405   8.023   4.451  12.710  0.1257 -0.2289  1.5155
   50DOPE   H3Y 6406   8.100   4.338  12.590  0.0061  2.0664 -0.4400
   50DOPE   C34 6407   7.993   4.248  12.757  0.5976  0.3409 -0.3337
   50DOPE   H4X 6408   7.967   4.151  12.711  0.2310  0.0460  0.4830
   50DOPE   H4Y 6409   8.085   4.239  12.818  0.3361  2.1480  0.4007
   50DOPE   C35 6410   7.877   4.275  12.853 -0.1296  0.0013 -0.4838
   50DOPE   H5X 6411   7.784   4.281  12.792 -0.3047  0.8759 -0.1502
   50DOPE   H5Y 6412   7.895   4.376  12.895 -2.0842  0.2954 -0.2624
   50DOPE   C36 6413   7.866   4.187  12.984 -0.6225 -0.4874  0.4861
   50DOPE   H6X 6414   7.956   4.219  13.041 -2.1590 -0.7935  3.3021
   50DOPE   H6Y 6415   7.869   4.079  12.961 -1.0141 -0.3309 -0.3515
   50DOPE   C37 6416   7.752   4.211  13.079  0.2761  0.0908 -0.7203
   50DOPE   H7X 6417   7.747   4.317  13.114  0.3861  0.2626 -1.2093
   50DOPE   H7Y 6418   7.659   4.190  13.023  0.0906 -0.4432 -0.2211
   50DOPE   C38 6419   7.736   4.110  13.193 -0.2468  0.4797 -0.1781
   50DOPE   H8X 6420   7.737   4.007  13.151 -1.9062  1.0267 -1.7055
   50DOPE   H8Y 6421   7.641   4.136  13.244  0.7223  1.9921  0.9271
   50DOPE   C39 6422   7.853   4.117  13.289 -0.1105 -0.0485  0.1520
   50DOPE   H9X 6423   7.954   4.120  13.247 -0.4680 -2.4446 -0.9958
   50DOPE  C310 6424   7.838   4.159  13.415  0.0078  0.2821  0.2899
   50DOPE  H10X 6425   7.928   4.170  13.477 -0.4746  0.0396  1.0518
   50DOPE  C311 6426   7.704   4.182  13.479  0.0734  0.5056  0.7924
   50DOPE  H11X 6427   7.645   4.256  13.419 -1.5955 -1.3651  0.0335
   50DOPE  H11Y 6428   7.656   4.082  13.477  1.0081  0.0186 -2.0632
   50DOPE  C312 6429   7.714   4.235  13.622  0.0961 -0.5063  0.1485
   50DOPE  H12X 6430   7.621   4.292  13.642  0.6602 -0.4554  3.2207
   50DOPE  H12Y 6431   7.798   4.307  13.633  0.9651 -1.7527  2.3329
   50DOPE  C313 6432   7.723   4.121  13.729 -0.1560 -0.0096 -0.3204
   50DOPE  H13X 6433   7.632   4.059  13.715 -0.4616 -0.1562  2.0051
   50DOPE  H13Y 6434   7.813   4.061  13.704 -0.6229 -1.3909  1.1864
   50DOPE  C314 6435   7.718   4.171  13.874 -1.6612 -0.2057 -0.9037
   50DOPE  H14X 6436   7.631   4.237  13.895 -0.9692  0.2425  0.7156
   50DOPE  H14Y 6437   7.813   4.226  13.890 -3.3199  3.3430 -1.9771
   50DOPE  C315 6438   7.707   4.059  13.979  0.2150 -0.2135 -0.3722
   50DOPE  H15X 6439   7.793   3.992  13.958  1.5998  1.1772  0.6278
   50DOPE  H15Y 6440   7.610   4.009  13.958 -1.4890  3.4450 -2.0797
   50DOPE  C316 6441   7.707   4.105  14.126 -0.0444  0.0775 -0.0954
   50DOPE  H16X 6442   7.642   4.193  14.143  2.0752  1.4818  1.2236
   50DOPE  H16Y 6443   7.810   4.144  14.143 -0.0857 -0.0026  0.3441
   50DOPE  C317 6444   7.677   4.008  14.234  0.6977  0.3012 -0.4629
   50DOPE  H17X 6445   7.703   4.058  14.330  1.1437  0.6305 -0.7504
   50DOPE  H17Y 6446   7.573   3.970  14.236  0.8400 -0.1801  2.5674
   50DOPE  C318 6447   7.767   3.881  14.235  1.0523 -0.2632 -0.2387
   50DOPE  H18X 6448   7.875   3.909  14.240  0.6058  1.6306 -0.4497
   50DOPE  H18Y 6449   7.733   3.826  14.326  2.3817 -0.8667 -0.0751
   50DOPE  H18Z 6450   7.759   3.814  14.147  1.2582 -1.8079  0.8777
   51DOPE     N 6451   4.504   7.042  12.643 -0.2973  0.3300 -0.4025
   51DOPE   HN1 6452   4.528   7.073  12.547  0.6244  1.3550  0.1386
   51DOPE   HN2 6453   4.595   7.034  12.693  0.1755 -5.2165 -1.5829
   51DOPE   HN3 6454   4.473   6.943  12.633 -1.3543  0.8254 -2.5180
   51DOPE   C12 6455   4.412   7.133  12.723  0.0081 -0.1375  0.1187
   51DOPE  H12A 6456   4.366   7.201  12.648  1.2650  0.5821 -0.0276
   51DOPE  H12B 6457   4.483   7.200  12.777  2.0824  0.2163 -2.8212
   51DOPE   C11 6458   4.306   7.058  12.811 -0.5795  0.0843  0.0451
   51DOPE  H11A 6459   4.223   7.129  12.833  0.9210  1.7644  0.5530
   51DOPE  H11B 6460   4.347   7.019  12.906  1.6501  0.2613 -0.7761
   51DOPE     P 6461   4.140   6.948  12.637  0.2180  0.1234  0.2662
   51DOPE   O13 6462   4.062   6.823  12.635  0.5418  0.1896  0.1463
   51DOPE   O14 6463   4.192   6.978  12.505  0.0004  0.1617  0.3461
   51DOPE   O11 6464   4.059   7.066  12.699 -0.2594  0.9065 -0.4187
   51DOPE   O12 6465   4.260   6.940  12.744 -0.1246 -0.0895  0.2854
   51DOPE    C1 6466   3.948   7.046  12.792  0.7148 -0.2088 -0.3119
   51DOPE    HA 6467   3.942   7.128  12.867 -1.5390 -1.7558  1.3390
   51DOPE    HB 6468   3.949   6.948  12.844 -4.6681  0.0621  0.8884
   51DOPE    C2 6469   3.813   7.040  12.717  0.4500 -0.0337  0.4766
   51DOPE    HS 6470   3.823   6.984  12.621  0.3291  1.9750 -0.7752
   51DOPE   O21 6471   3.757   7.176  12.706 -0.6065  0.3740  0.0043
   51DOPE   C21 6472   3.796   7.229  12.593  0.3547 -0.3925  0.5849
   51DOPE   O22 6473   3.871   7.173  12.516  0.0247 -0.2527  0.0691
   51DOPE   C22 6474   3.727   7.368  12.579  0.3017  0.9821  0.6056
   51DOPE   H2R 6475   3.619   7.362  12.600 -0.3306  1.3266 -2.1548
   51DOPE   H2S 6476   3.730   7.400  12.473  0.4573  2.4284  1.0238
   51DOPE    C3 6477   3.705   6.959  12.790  0.3580  0.5916  0.1264
   51DOPE    HX 6478   3.731   6.852  12.782 -0.7298  0.0855  2.4822
   51DOPE    HY 6479   3.617   6.971  12.723  0.9036 -0.7572 -0.8850
   51DOPE   O31 6480   3.679   6.996  12.929  0.1881 -0.1716 -0.1343
   51DOPE   C31 6481   3.552   7.005  12.969  0.3008  0.2597 -0.1066
   51DOPE   O32 6482   3.455   6.978  12.904  0.4672  0.0346 -0.4228
   51DOPE   C32 6483   3.564   7.044  13.116  0.1906  0.6122 -0.1502
   51DOPE   H2X 6484   3.616   6.963  13.173  1.1369  0.9757 -0.4777
   51DOPE   H2Y 6485   3.625   7.136  13.107  0.5501  0.2935 -0.9983
   51DOPE   C23 6486   3.797   7.489  12.655  0.6320  0.5253 -0.0916
   51DOPE   H3R 6487   3.751   7.588  12.633  0.0269  0.6363  1.5414
   51DOPE   H3S 6488   3.900   7.502  12.614 -0.1291  1.8872 -1.6545
   51DOPE   C24 6489   3.782   7.479  12.811 -0.8892  0.2814  0.3505
   51DOPE   H4R 6490   3.826   7.566  12.865 -0.1224  0.5282 -0.6433
   51DOPE   H4S 6491   3.834   7.387  12.843  0.8191  1.3356  0.7412
   51DOPE   C25 6492   3.637   7.479  12.859  0.4429  0.1508  0.7359
   51DOPE   H5R 6493   3.589   7.379  12.846 -0.8278  0.8702 -0.3850
   51DOPE   H5S 6494   3.588   7.545  12.784  1.2999 -0.7282 -0.6246
   51DOPE   C26 6495   3.633   7.534  12.999 -0.0741 -0.2416 -0.1374
   51DOPE   H6R 6496   3.530   7.512  13.036  0.5091 -0.0103  1.7449
   51DOPE   H6S 6497   3.645   7.644  13.004 -1.3963 -0.1310  1.2193
   51DOPE   C27 6498   3.729   7.458  13.091 -0.2830  0.1300 -0.4487
   51DOPE   H7R 6499   3.830   7.503  13.096  0.0801 -0.7437  0.8237
   51DOPE   H7S 6500   3.739   7.353  13.057 -1.2801 -0.1890  0.1883
   51DOPE   C28 6501   3.669   7.443  13.234 -0.3321 -0.0067 -1.0156
   51DOPE   H8R 6502   3.561   7.418  13.228 -0.5339  0.7029 -0.4678
   51DOPE   H8S 6503   3.665   7.547  13.271 -2.2554 -0.2740 -0.3804
   51DOPE   C29 6504   3.754   7.346  13.317  0.4684 -0.0536  0.0310
   51DOPE   H9R 6505   3.771   7.249  13.269  3.5790 -0.5849  1.9019
   51DOPE  C210 6506   3.804   7.378  13.436  0.2223 -0.5792 -0.4282
   51DOPE  H10R 6507   3.879   7.318  13.490 -0.4839 -0.9936  0.1211
   51DOPE  C211 6508   3.784   7.504  13.509 -0.6062  0.0326 -0.2898
   51DOPE  H11R 6509   3.694   7.561  13.477 -0.2563 -0.0300 -1.4537
   51DOPE  H11S 6510   3.870   7.572  13.495 -1.5395  0.9815 -1.7127
   51DOPE  C212 6511   3.772   7.482  13.661  0.2640 -0.4218  0.1904
   51DOPE  H12R 6512   3.770   7.581  13.711 -0.5612  0.3103 -1.2542
   51DOPE  H12S 6513   3.861   7.430  13.704  0.0703 -2.6473 -1.8869
   51DOPE  C213 6514   3.656   7.389  13.698 -0.7078  0.2055  0.2839
   51DOPE  H13R 6515   3.631   7.304  13.630 -1.6978  0.7292 -0.0324
   51DOPE  H13S 6516   3.572   7.461  13.699 -0.8393  0.1198  2.8510
   51DOPE  C214 6517   3.674   7.343  13.840 -0.3092  0.4931 -0.1817
   51DOPE  H14R 6518   3.704   7.430  13.902  0.3066  1.0233 -1.1930
   51DOPE  H14S 6519   3.763   7.277  13.838 -1.3269 -0.9690  0.9264
   51DOPE  C215 6520   3.558   7.268  13.908  0.5066 -0.5574  0.4284
   51DOPE  H15R 6521   3.514   7.186  13.848 -3.7997 -0.1413  2.5939
   51DOPE  H15S 6522   3.481   7.344  13.932 -0.1508 -0.5703 -1.4776
   51DOPE  C216 6523   3.619   7.212  14.036  0.5537  0.1828  0.4651
   51DOPE  H16R 6524   3.661   7.298  14.092  1.0431  1.7071 -2.0940
   51DOPE  H16S 6525   3.700   7.138  14.024 -0.3267 -0.5978 -0.7833
   51DOPE  C217 6526   3.499   7.137  14.102 -0.5901 -0.5878  0.3045
   51DOPE  H17R 6527   3.496   7.037  14.055  3.2298 -0.7131  0.0541
   51DOPE  H17S 6528   3.398   7.184  14.099 -1.6616 -2.3607  3.4319
   51DOPE  C218 6529   3.530   7.104  14.251  0.9216  0.7338  1.5667
   51DOPE  H18R 6530   3.637   7.077  14.261  0.3106 -1.3811  3.1652
   51DOPE  H18S 6531   3.468   7.020  14.288  0.8026  0.0029 -0.2112
   51DOPE  H18T 6532   3.513   7.198  14.308 -1.2379  1.2658  0.1655
   51DOPE   C33 6533   3.436   7.072  13.188 -0.4264 -0.5859 -0.4157
   51DOPE   H3X 6534   3.370   6.986  13.161 -0.8918 -0.0201 -1.1180
   51DOPE   H3Y 6535   3.380   7.161  13.152 -0.4522 -1.0805 -1.6684
   51DOPE   C34 6536   3.445   7.088  13.340 -0.3695  0.3251  0.6806
   51DOPE   H4X 6537   3.494   6.998  13.381  0.1149  0.5812  0.6768
   51DOPE   H4Y 6538   3.510   7.172  13.373 -0.1382  0.6080 -0.4467
   51DOPE   C35 6539   3.307   7.106  13.396  0.3538 -0.1175  0.0854
   51DOPE   H5X 6540   3.241   7.017  13.384  1.6062 -1.1338  0.3765
   51DOPE   H5Y 6541   3.258   7.184  13.334 -0.8808 -1.1986 -0.3525
   51DOPE   C36 6542   3.304   7.143  13.547 -0.0129 -0.2540  0.5361
   51DOPE   H6X 6543   3.382   7.218  13.571 -0.0656  0.4550 -1.3435
   51DOPE   H6Y 6544   3.323   7.052  13.608 -2.0851 -1.0557  0.0548
   51DOPE   C37 6545   3.175   7.206  13.590 -0.1044  0.6428  0.1193
   51DOPE   H7X 6546   3.175   7.317  13.580 -1.1023  0.5688 -0.8080
   51DOPE   H7Y 6547   3.094   7.159  13.529 -0.1223  0.1466  0.5170
   51DOPE   C38 6548   3.131   7.173  13.732  0.7726 -0.2618 -0.4063
   51DOPE   H8X 6549   3.213   7.191  13.806  0.0424 -2.5717  1.0655
   51DOPE   H8Y 6550   3.112   7.064  13.743  3.5070 -0.6045  2.6537
   51DOPE   C39 6551   3.002   7.246  13.761  0.1115 -0.2504 -0.3343
   51DOPE   H9X 6552   2.912   7.189  13.732 -1.6570  0.7175  2.7509
   51DOPE  C310 6553   2.984   7.361  13.832  0.4917 -0.2967 -0.4727
   51DOPE  H10X 6554   2.881   7.398  13.845 -0.1008 -0.8490 -3.0039
   51DOPE  C311 6555   3.088   7.461  13.880  0.2667  0.5443 -0.7893
   51DOPE  H11X 6556   3.193   7.432  13.861  0.4645  0.7875 -0.0680
   51DOPE  H11Y 6557   3.047   7.557  13.840 -1.0669  0.1289 -0.4758
   51DOPE  C312 6558   3.074   7.471  14.041  0.2173 -0.5116  0.1932
   51DOPE  H12X 6559   2.975   7.506  14.076 -0.0986  2.4745 -3.1118
   51DOPE  H12Y 6560   3.133   7.562  14.065 -0.6389  0.5746 -1.6265
   51DOPE  C313 6561   3.123   7.359  14.111 -0.0913  0.1885 -0.3863
   51DOPE  H13X 6562   3.035   7.292  14.100  1.0793 -1.4461 -0.1834
   51DOPE  H13Y 6563   3.211   7.319  14.058  0.4699  0.0348  0.6417
   51DOPE  C314 6564   3.152   7.382  14.270 -0.1988 -1.0454 -0.5872
   51DOPE  H14X 6565   3.047   7.399  14.304 -0.6706 -3.1600 -0.8705
   51DOPE  H14Y 6566   3.215   7.472  14.288 -1.3140 -0.2220 -0.6638
   51DOPE  C315 6567   3.192   7.254  14.341 -0.4961 -0.4629 -0.0091
   51DOPE  H15X 6568   3.301   7.242  14.325 -0.3614 -0.1282  0.6392
   51DOPE  H15Y 6569   3.152   7.162  14.293 -0.2370  0.2082 -1.6036
   51DOPE  C316 6570   3.143   7.242  14.492 -0.5533 -0.9667  0.1179
   51DOPE  H16X 6571   3.031   7.242  14.494 -0.5740 -0.1701 -0.5338
   51DOPE  H16Y 6572   3.181   7.334  14.541 -0.3600 -0.5957 -0.7102
   51DOPE  C317 6573   3.193   7.115  14.562 -0.4879  0.1269 -0.3946
   51DOPE  H17X 6574   3.166   7.029  14.496  1.7445  0.2190 -1.5274
   51DOPE  H17Y 6575   3.303   7.116  14.579 -0.8318 -1.1168  2.3355
   51DOPE  C318 6576   3.127   7.098  14.703  0.3022  0.0461  0.4375
   51DOPE  H18X 6577   3.018   7.083  14.688  0.0729  2.7293 -1.2230
   51DOPE  H18Y 6578   3.170   7.020  14.770  0.7374  0.5885  0.7958
   51DOPE  H18Z 6579   3.134   7.191  14.763  1.5023  0.8934 -0.9584
   52DOPE     N 6580   0.393   5.559  12.315  0.1622 -0.1931 -0.3709
   52DOPE   HN1 6581   0.353   5.636  12.257 -1.6800 -1.1636 -0.4820
   52DOPE   HN2 6582   0.495   5.574  12.309  0.0533  1.2038  0.8034
   52DOPE   HN3 6583   0.366   5.466  12.275  2.3793 -1.4845  0.9157
   52DOPE   C12 6584   0.324   5.593  12.447 -0.2840 -0.4032 -0.5648
   52DOPE  H12A 6585   0.382   5.683  12.475 -0.6485 -0.3082 -0.1048
   52DOPE  H12B 6586   0.322   5.499  12.506 -1.6795  0.5015  0.9342
   52DOPE   C11 6587   0.175   5.640  12.427 -1.0020 -0.6342 -0.6212
   52DOPE  H11A 6588   0.135   5.684  12.521 -1.0760  0.3394 -1.0966
   52DOPE  H11B 6589   0.103   5.559  12.406 -0.9696 -1.7397  2.8077
   52DOPE     P 6590   0.098   5.868  12.319  0.2133  0.0564 -0.0479
   52DOPE   O13 6591   0.043   5.897  12.181  0.0633 -0.2908 -0.1502
   52DOPE   O14 6592   0.188   5.971  12.368 -0.2779 -0.1983 -0.3555
   52DOPE   O11 6593  -0.026   5.839  12.419 -0.1989 -0.2743  0.3144
   52DOPE   O12 6594   0.169   5.731  12.316 -0.2789 -0.8977  0.0554
   52DOPE    C1 6595  -0.138   5.765  12.368  0.2677  0.1061 -0.1367
   52DOPE    HA 6596  -0.111   5.662  12.334 -1.4716 -0.8660  1.2952
   52DOPE    HB 6597  -0.175   5.811  12.274  0.9771  0.4405 -0.2599
   52DOPE    C2 6598  -0.244   5.743  12.476 -0.3176  0.2282 -0.5461
   52DOPE    HS 6599  -0.278   5.843  12.511 -2.1805 -0.9795  1.3024
   52DOPE   O21 6600  -0.174   5.665  12.573  1.1605 -0.7189  0.1164
   52DOPE   C21 6601  -0.183   5.708  12.703 -0.0459 -0.0011  0.6583
   52DOPE   O22 6602  -0.238   5.809  12.738 -0.1012 -0.4222 -0.0930
   52DOPE   C22 6603  -0.108   5.614  12.790  0.0134 -0.5331  0.7404
   52DOPE   H2R 6604   0.001   5.607  12.771  0.0315 -0.3902  0.7865
   52DOPE   H2S 6605  -0.153   5.516  12.765 -1.6701  0.3200  0.2353
   52DOPE    C3 6606  -0.373   5.665  12.428 -0.3683 -0.5283 -0.3510
   52DOPE    HX 6607  -0.356   5.585  12.354  0.4194  0.1945 -0.9803
   52DOPE    HY 6608  -0.434   5.733  12.365  0.5673 -1.1162 -1.9404
   52DOPE   O31 6609  -0.450   5.610  12.536  0.1004 -0.0290 -0.1110
   52DOPE   C31 6610  -0.412   5.495  12.587 -0.2263 -0.4378  0.4949
   52DOPE   O32 6611  -0.315   5.427  12.557 -0.0521  0.3188  0.2242
   52DOPE   C32 6612  -0.503   5.476  12.709  0.2253  1.0937 -0.2546
   52DOPE   H2X 6613  -0.517   5.571  12.764  0.5243  2.7583 -2.8780
   52DOPE   H2Y 6614  -0.602   5.443  12.670 -1.0201  1.5377  2.3163
   52DOPE   C23 6615  -0.130   5.645  12.939 -0.0407 -0.3566 -0.4985
   52DOPE   H3R 6616  -0.239   5.632  12.960 -0.0602 -0.6389 -0.7717
   52DOPE   H3S 6617  -0.094   5.750  12.939  0.9930 -0.7019  0.0084
   52DOPE   C24 6618  -0.044   5.569  13.040  0.6536 -0.2974  0.6482
   52DOPE   H4R 6619   0.064   5.595  13.039  1.2062 -2.4232  0.0384
   52DOPE   H4S 6620  -0.042   5.462  13.009  0.5613  0.1111 -0.8189
   52DOPE   C25 6621  -0.092   5.579  13.183 -0.3265  0.5599 -0.6089
   52DOPE   H5R 6622  -0.124   5.684  13.201 -2.0625 -0.1595  0.9036
   52DOPE   H5S 6623  -0.008   5.546  13.248  0.7969 -1.7903 -3.0511
   52DOPE   C26 6624  -0.207   5.483  13.207  0.0430 -0.4077 -0.0570
   52DOPE   H6R 6625  -0.183   5.378  13.178  4.3195  0.7037 -1.2437
   52DOPE   H6S 6626  -0.294   5.532  13.159 -0.7448  0.5027  2.1656
   52DOPE   C27 6627  -0.245   5.483  13.362 -0.1584 -0.2254  0.6610
   52DOPE   H7R 6628  -0.270   5.589  13.386 -1.6444 -0.1894 -0.8619
   52DOPE   H7S 6629  -0.154   5.444  13.412  1.6881  2.0545 -0.7348
   52DOPE   C28 6630  -0.371   5.396  13.388 -0.4328  1.1420  0.6129
   52DOPE   H8R 6631  -0.358   5.286  13.384 -0.6690  1.1244  0.3439
   52DOPE   H8S 6632  -0.450   5.419  13.313  0.5377  0.9056 -0.5187
   52DOPE   C29 6633  -0.424   5.446  13.522  0.9480 -0.1101  0.1448
   52DOPE   H9R 6634  -0.367   5.530  13.563 -1.1200  0.7998  1.2565
   52DOPE  C210 6635  -0.509   5.380  13.601 -0.5379 -0.7807 -0.8996
   52DOPE  H10R 6636  -0.523   5.419  13.702 -0.4369 -1.0096 -0.7972
   52DOPE  C211 6637  -0.572   5.247  13.575 -0.2936  0.2556 -0.5741
   52DOPE  H11R 6638  -0.608   5.241  13.470 -0.2186  1.1074 -0.6556
   52DOPE  H11S 6639  -0.646   5.232  13.657  2.2963 -1.2817  1.6537
   52DOPE  C212 6640  -0.482   5.125  13.597  0.3288 -0.2871 -0.5613
   52DOPE  H12R 6641  -0.412   5.125  13.511 -1.6044  0.9114 -2.2317
   52DOPE  H12S 6642  -0.553   5.040  13.584  0.0340  0.0471 -1.1967
   52DOPE  C213 6643  -0.404   5.107  13.727 -0.6364  0.1308  0.2184
   52DOPE  H13R 6644  -0.353   5.201  13.759 -2.3555  1.7900 -1.6371
   52DOPE  H13S 6645  -0.326   5.028  13.724 -0.7649  0.0150 -2.5820
   52DOPE  C214 6646  -0.495   5.050  13.839  0.3300  0.3969  0.3302
   52DOPE  H14R 6647  -0.547   4.960  13.800 -0.1673  0.3842  0.9958
   52DOPE  H14S 6648  -0.569   5.131  13.856 -1.0081  0.2401 -3.7636
   52DOPE  C215 6649  -0.405   5.008  13.952  0.0970 -0.2069  0.4507
   52DOPE  H15R 6650  -0.355   5.103  13.982 -0.4667  0.4280 -0.5810
   52DOPE  H15S 6651  -0.323   4.945  13.912 -0.0949  0.6700 -1.4539
   52DOPE  C216 6652  -0.485   4.949  14.067  0.2704 -0.3753  0.4391
   52DOPE  H16R 6653  -0.553   4.867  14.034  1.9610 -1.6782  0.0237
   52DOPE  H16S 6654  -0.547   5.032  14.107 -0.5401 -0.3451 -0.8298
   52DOPE  C217 6655  -0.398   4.885  14.178  0.0284 -0.4849 -0.6103
   52DOPE  H17R 6656  -0.360   4.787  14.143  2.0291 -0.3263  0.9163
   52DOPE  H17S 6657  -0.460   4.854  14.265  0.0243  3.6781  1.1419
   52DOPE  C218 6658  -0.290   4.979  14.224  0.1700 -0.5726  0.3766
   52DOPE  H18R 6659  -0.212   5.007  14.150 -0.3143  3.0374  1.0403
   52DOPE  H18S 6660  -0.337   5.075  14.253 -0.9196 -0.2202 -2.2207
   52DOPE  H18T 6661  -0.235   4.936  14.310  2.9346  0.7097 -0.5991
   52DOPE   C33 6662  -0.454   5.354  12.789  0.0060 -0.2109  0.7953
   52DOPE   H3X 6663  -0.359   5.385  12.837  0.4038  1.0631 -0.7180
   52DOPE   H3Y 6664  -0.438   5.264  12.726 -0.5458  0.2827 -0.0660
   52DOPE   C34 6665  -0.545   5.307  12.905  0.2047 -0.3456 -0.3216
   52DOPE   H4X 6666  -0.580   5.401  12.951 -0.8678 -1.1472  0.5545
   52DOPE   H4Y 6667  -0.639   5.258  12.870  0.1104 -0.6791  0.3906
   52DOPE   C35 6668  -0.467   5.231  13.014 -0.1637 -0.1793  0.4582
   52DOPE   H5X 6669  -0.387   5.301  13.043 -0.0451  0.2871 -0.9138
   52DOPE   H5Y 6670  -0.424   5.134  12.980  0.7378 -0.0193  1.1151
   52DOPE   C36 6671  -0.548   5.202  13.140  0.3730 -0.0406 -0.7622
   52DOPE   H6X 6672  -0.623   5.281  13.161  0.5677 -0.1318  0.3267
   52DOPE   H6Y 6673  -0.483   5.209  13.229  0.1786  1.6779 -0.7196
   52DOPE   C37 6674  -0.618   5.061  13.144  0.5785  0.5041 -0.4014
   52DOPE   H7X 6675  -0.689   5.063  13.058  0.9468 -1.8870 -0.8291
   52DOPE   H7Y 6676  -0.546   4.980  13.120  0.7689  0.9109 -1.2379
   52DOPE   C38 6677  -0.698   5.039  13.270  0.2792 -0.1927 -0.7315
   52DOPE   H8X 6678  -0.768   5.123  13.290 -0.2710 -0.2440 -2.3661
   52DOPE   H8Y 6679  -0.621   5.044  13.351 -1.8761  1.1899  1.3557
   52DOPE   C39 6680  -0.759   4.910  13.267  0.1290  0.0788 -0.4050
   52DOPE   H9X 6681  -0.687   4.827  13.276  1.3986  1.0868 -0.9425
   52DOPE  C310 6682  -0.890   4.874  13.276 -0.1338  0.5199  0.3794
   52DOPE  H10X 6683  -0.914   4.769  13.256 -0.6944  0.5400  0.9119
   52DOPE  C311 6684  -0.999   4.982  13.287 -0.0476  0.2946  0.0883
   52DOPE  H11X 6685  -0.969   5.084  13.255 -0.2702 -0.4625 -2.8908
   52DOPE  H11Y 6686  -1.082   4.951  13.219  0.0719 -0.1055  0.1205
   52DOPE  C312 6687  -1.056   4.990  13.431 -0.3600  0.7842 -0.0690
   52DOPE  H12X 6688  -1.125   4.905  13.450  2.6591 -1.8838 -0.2015
   52DOPE  H12Y 6689  -1.118   5.082  13.431 -0.8776  0.4400 -0.7326
   52DOPE  C313 6690  -0.950   4.987  13.548  0.2489  0.2642 -0.0320
   52DOPE  H13X 6691  -0.916   4.884  13.572 -0.8793  0.1598  1.2167
   52DOPE  H13Y 6692  -0.868   5.054  13.515 -0.0180 -0.1287 -1.5877
   52DOPE  C314 6693  -0.999   5.048  13.677 -0.9087 -0.4508 -0.4584
   52DOPE  H14X 6694  -1.099   5.006  13.703 -0.1898 -0.5135  2.5657
   52DOPE  H14Y 6695  -0.997   5.157  13.659 -0.5415 -0.5238 -0.8540
   52DOPE  C315 6696  -0.906   5.020  13.798 -0.2401 -0.3201  0.0605
   52DOPE  H15X 6697  -0.819   5.088  13.797 -0.2762 -0.0442 -4.5079
   52DOPE  H15Y 6698  -0.880   4.912  13.790  1.0668 -0.1103  1.1397
   52DOPE  C316 6699  -0.972   5.033  13.940  0.1278  0.2892  0.1102
   52DOPE  H16X 6700  -0.893   4.993  14.007  1.5103  2.5567 -0.0700
   52DOPE  H16Y 6701  -1.059   4.970  13.969 -1.1851  2.6273  1.5027
   52DOPE  C317 6702  -1.012   5.171  13.976 -0.4549 -0.6695 -0.1763
   52DOPE  H17X 6703  -0.921   5.235  13.966 -1.8580  1.5712  0.6086
   52DOPE  H17Y 6704  -1.083   5.211  13.901  0.7471 -2.0318 -2.1539
   52DOPE  C318 6705  -1.063   5.204  14.115  0.1348  0.5222  0.3353
   52DOPE  H18X 6706  -1.156   5.151  14.145 -0.7239  1.7250 -0.1278
   52DOPE  H18Y 6707  -0.986   5.176  14.190  0.8022 -1.1794 -0.9096
   52DOPE  H18Z 6708  -1.096   5.310  14.123 -1.8000  0.1170 -1.3774
   53DOPE     N 6709   6.008   7.031  12.351 -0.0306  0.3915 -0.4169
   53DOPE   HN1 6710   5.909   6.998  12.357  0.1432 -0.8901 -3.2828
   53DOPE   HN2 6711   6.026   7.129  12.319  2.6694  0.4250  0.9451
   53DOPE   HN3 6712   6.048   6.977  12.272  0.4921 -0.3523  0.3348
   53DOPE   C12 6713   6.072   6.994  12.484  0.0008  0.0334 -0.0844
   53DOPE  H12A 6714   6.005   7.040  12.559 -1.4912 -1.8127 -0.2078
   53DOPE  H12B 6715   6.173   7.041  12.479 -0.5582  1.4530  1.2759
   53DOPE   C11 6716   6.075   6.843  12.512  0.2861  0.4257 -0.3999
   53DOPE  H11A 6717   6.102   6.828  12.619 -0.7237  2.1003  0.1381
   53DOPE  H11B 6718   6.151   6.799  12.444  1.4160  0.6433  0.6919
   53DOPE     P 6719   5.910   6.650  12.515  0.4921  0.6359 -0.2114
   53DOPE   O13 6720   6.010   6.555  12.467 -0.0328  0.2256  0.3170
   53DOPE   O14 6721   5.778   6.632  12.460  0.2987 -0.1407  0.2410
   53DOPE   O11 6722   5.905   6.660  12.671  0.2643 -0.0657 -0.1315
   53DOPE   O12 6723   5.951   6.797  12.486  0.1776  0.3036 -0.3621
   53DOPE    C1 6724   5.813   6.758  12.736 -0.2320  0.0735  1.0586
   53DOPE    HA 6725   5.718   6.760  12.678  0.4601 -1.7732 -0.2251
   53DOPE    HB 6726   5.858   6.859  12.732  1.6221 -0.7563 -0.1826
   53DOPE    C2 6727   5.790   6.721  12.886  0.8306 -0.8867  0.1766
   53DOPE    HS 6728   5.888   6.733  12.937  0.8105 -0.8908  0.2164
   53DOPE   O21 6729   5.742   6.585  12.906 -0.4247 -0.2399 -0.4374
   53DOPE   C21 6730   5.842   6.495  12.927 -0.8374 -0.4288  0.1713
   53DOPE   O22 6731   5.959   6.520  12.953  0.0620 -0.6581 -0.1614
   53DOPE   C22 6732   5.790   6.350  12.916 -0.0016  0.2293 -0.3732
   53DOPE   H2R 6733   5.868   6.274  12.940 -0.8977 -0.0785  1.7515
   53DOPE   H2S 6734   5.748   6.341  12.813  0.9452  1.1105 -0.8639
   53DOPE    C3 6735   5.699   6.833  12.953  0.3422 -0.1807  0.5604
   53DOPE    HX 6736   5.602   6.820  12.901  0.1287  1.4830  0.4996
   53DOPE    HY 6737   5.732   6.933  12.919  0.5591 -0.4535 -0.0452
   53DOPE   O31 6738   5.675   6.817  13.096 -0.6867  0.9316 -0.1943
   53DOPE   C31 6739   5.760   6.879  13.179 -0.1623 -0.4804  0.6475
   53DOPE   O32 6740   5.858   6.947  13.143  0.1135 -0.0443 -0.7582
   53DOPE   C32 6741   5.731   6.832  13.317  0.7435 -0.5017  0.9629
   53DOPE   H2X 6742   5.766   6.908  13.390 -0.1311 -0.3518  1.2263
   53DOPE   H2Y 6743   5.621   6.820  13.326  0.6589  1.1189  2.4180
   53DOPE   C23 6744   5.686   6.322  13.025  0.0399 -0.4675  0.1789
   53DOPE   H3R 6745   5.627   6.236  12.987 -0.6052  0.4539 -0.9767
   53DOPE   H3S 6746   5.604   6.397  13.021 -1.9294 -2.5537 -0.3698
   53DOPE   C24 6747   5.749   6.299  13.167 -0.4476 -0.4548  0.7828
   53DOPE   H4R 6748   5.763   6.402  13.207  0.2971  0.0399 -0.7099
   53DOPE   H4S 6749   5.853   6.261  13.170 -0.3306 -0.1850  3.6939
   53DOPE   C25 6750   5.658   6.223  13.261  0.0752  0.2805 -0.2122
   53DOPE   H5R 6751   5.659   6.120  13.219  1.1654 -0.0265  0.5184
   53DOPE   H5S 6752   5.554   6.261  13.253 -1.1722 -2.0683  2.7468
   53DOPE   C26 6753   5.695   6.218  13.406 -1.0450 -0.6556  0.8085
   53DOPE   H6R 6754   5.804   6.202  13.411 -0.6413  1.3045 -0.5766
   53DOPE   H6S 6755   5.647   6.130  13.454  0.8730 -2.0354  0.3353
   53DOPE   C27 6756   5.661   6.346  13.489  0.0081 -0.4590 -0.1017
   53DOPE   H7R 6757   5.553   6.334  13.513 -0.1441 -0.3368 -0.6956
   53DOPE   H7S 6758   5.677   6.436  13.425 -2.7353 -1.1276 -1.9123
   53DOPE   C28 6759   5.736   6.365  13.616 -0.1468  1.2861 -0.2997
   53DOPE   H8R 6760   5.701   6.467  13.642 -2.0863  0.3662  0.9017
   53DOPE   H8S 6761   5.847   6.355  13.610 -0.2916 -1.0286 -0.2666
   53DOPE   C29 6762   5.690   6.268  13.723 -0.4567 -0.7048 -0.5548
   53DOPE   H9R 6763   5.580   6.264  13.721 -0.4579 -1.0209 -0.0560
   53DOPE  C210 6764   5.761   6.183  13.805 -0.1740  0.0562 -0.4187
   53DOPE  H10R 6765   5.704   6.108  13.861  2.0261 -2.0632 -0.8595
   53DOPE  C211 6766   5.907   6.160  13.832 -0.2313 -0.8107 -0.4938
   53DOPE  H11R 6767   5.938   6.196  13.932  1.8421 -1.5897 -0.8043
   53DOPE  H11S 6768   5.963   6.228  13.764  2.3104  0.4231  2.6263
   53DOPE  C212 6769   5.953   6.016  13.807 -0.4371  1.0095  0.1429
   53DOPE  H12R 6770   6.061   6.022  13.780 -0.9834  0.5325 -2.3350
   53DOPE  H12S 6771   5.915   5.979  13.710  3.1260  0.5842 -1.2513
   53DOPE  C213 6772   5.942   5.923  13.927 -0.4574  0.4109 -0.1838
   53DOPE  H13R 6773   5.984   5.977  14.015 -0.1344  1.6252 -1.0678
   53DOPE  H13S 6774   6.014   5.839  13.917  0.5453  0.8385  2.5130
   53DOPE  C214 6775   5.802   5.865  13.960 -0.0875  0.5854  0.3191
   53DOPE  H14R 6776   5.751   5.857  13.862  0.0631  1.3699  0.1769
   53DOPE  H14S 6777   5.738   5.935  14.017  0.0784 -0.7844  2.3049
   53DOPE  C215 6778   5.800   5.732  14.038 -0.8421 -0.2283 -0.6057
   53DOPE  H15R 6779   5.696   5.723  14.075 -1.9182  5.1546 -1.4982
   53DOPE  H15S 6780   5.859   5.743  14.131  2.3600 -1.0336 -2.3807
   53DOPE  C216 6781   5.837   5.603  13.953 -0.0676 -0.8469 -0.0108
   53DOPE  H16R 6782   5.947   5.609  13.942 -0.0997  0.8062  0.3585
   53DOPE  H16S 6783   5.790   5.613  13.852  0.2146  0.8802 -0.0118
   53DOPE  C217 6784   5.797   5.470  14.013  0.1423  0.1117 -0.3758
   53DOPE  H17R 6785   5.688   5.458  14.035  0.3314  2.0565  2.1687
   53DOPE  H17S 6786   5.846   5.455  14.112 -0.8078  0.6715  0.2053
   53DOPE  C218 6787   5.845   5.352  13.936 -0.0728  0.3982 -0.1442
   53DOPE  H18R 6788   5.956   5.356  13.932  0.1015 -1.8354  0.7789
   53DOPE  H18S 6789   5.808   5.354  13.831 -0.0412 -0.9994 -0.2049
   53DOPE  H18T 6790   5.836   5.253  13.986  0.9238  0.2161 -0.3002
   53DOPE   C33 6791   5.774   6.690  13.342 -0.1118 -0.7481 -0.2279
   53DOPE   H3X 6792   5.746   6.623  13.258 -0.3494  0.4024 -1.0759
   53DOPE   H3Y 6793   5.724   6.648  13.433  0.6215 -0.7260  0.1906
   53DOPE   C34 6794   5.923   6.697  13.346  0.1439  1.0463  0.1005
   53DOPE   H4X 6795   5.953   6.718  13.241  1.9477  0.3242  0.4444
   53DOPE   H4Y 6796   5.957   6.769  13.423  0.3252 -1.3113  2.3737
   53DOPE   C35 6797   5.986   6.557  13.374  0.6890 -0.7764  1.0204
   53DOPE   H5X 6798   5.962   6.478  13.300 -1.9523 -1.8269  2.8576
   53DOPE   H5Y 6799   5.947   6.519  13.471 -0.0024 -0.0134  1.0486
   53DOPE   C36 6800   6.141   6.571  13.388  0.2078 -0.2540  0.2781
   53DOPE   H6X 6801   6.174   6.475  13.434 -2.1870 -1.1612  0.2617
   53DOPE   H6Y 6802   6.163   6.655  13.458 -0.2988  1.1470 -1.1888
   53DOPE   C37 6803   6.212   6.596  13.252 -0.0235  0.0879  0.0614
   53DOPE   H7X 6804   6.286   6.515  13.236  0.8158  0.3044  2.4034
   53DOPE   H7Y 6805   6.142   6.583  13.167  0.7167 -1.9601 -0.2967
   53DOPE   C38 6806   6.293   6.724  13.220  0.9414  0.5465 -0.1296
   53DOPE   H8X 6807   6.339   6.723  13.118 -0.5864 -1.2279 -0.8542
   53DOPE   H8Y 6808   6.379   6.707  13.288  1.6525 -0.6957 -1.2720
   53DOPE   C39 6809   6.241   6.863  13.253 -0.2803  0.0603  0.3354
   53DOPE   H9X 6810   6.152   6.890  13.194  0.4263  0.0890 -0.7403
   53DOPE  C310 6811   6.290   6.949  13.341  0.6222 -0.2811 -0.4372
   53DOPE  H10X 6812   6.247   7.050  13.349 -1.4314 -1.1256 -0.2380
   53DOPE  C311 6813   6.420   6.935  13.419  0.9088  0.7438  0.0043
   53DOPE  H11X 6814   6.494   6.882  13.355 -2.0216 -3.2094 -0.4886
   53DOPE  H11Y 6815   6.469   7.034  13.432  2.9689 -0.2164 -0.2314
   53DOPE  C312 6816   6.400   6.865  13.555  0.7408  0.0289 -0.2726
   53DOPE  H12X 6817   6.492   6.863  13.617  0.8849 -0.3742 -0.4904
   53DOPE  H12Y 6818   6.366   6.759  13.550 -1.2124  0.4330  2.1655
   53DOPE  C313 6819   6.291   6.925  13.646  0.6169  0.3269 -0.0485
   53DOPE  H13X 6820   6.312   7.033  13.653 -0.4488  0.8209 -3.2211
   53DOPE  H13Y 6821   6.187   6.915  13.607 -0.8988 -2.3586  3.9359
   53DOPE  C314 6822   6.274   6.856  13.787 -0.0031 -0.3697  0.9249
   53DOPE  H14X 6823   6.262   6.750  13.754  0.3989 -0.0932 -0.1666
   53DOPE  H14Y 6824   6.177   6.900  13.818 -0.3406  0.3022 -0.9913
   53DOPE  C315 6825   6.393   6.883  13.873 -0.3498 -0.2930 -0.2553
   53DOPE  H15X 6826   6.407   6.993  13.863 -0.5705 -0.3892 -1.7807
   53DOPE  H15Y 6827   6.484   6.836  13.831  0.4946  0.6969  0.4213
   53DOPE  C316 6828   6.383   6.852  14.028  0.7425  0.6208  0.4338
   53DOPE  H16X 6829   6.381   6.743  14.047 -1.0275  0.4205 -0.7018
   53DOPE  H16Y 6830   6.280   6.886  14.052 -0.3137 -1.3321 -1.0794
   53DOPE  C317 6831   6.481   6.926  14.117 -0.0740  0.7376 -0.6122
   53DOPE  H17X 6832   6.577   6.896  14.070  0.1596 -0.7615  0.7115
   53DOPE  H17Y 6833   6.465   7.034  14.097 -0.1694  0.7338 -0.5602
   53DOPE  C318 6834   6.483   6.879  14.260 -0.0473 -0.8150 -0.2765
   53DOPE  H18X 6835   6.547   6.954  14.311 -2.7033  2.5625 -1.5372
   53DOPE  H18Y 6836   6.379   6.879  14.299 -0.4102 -1.5651 -1.1917
   53DOPE  H18Z 6837   6.511   6.773  14.280  0.3834 -0.8886 -1.2269
   54DOPE     N 6838   7.523   3.433  12.158  0.0378 -0.2397  0.3342
   54DOPE   HN1 6839   7.476   3.340  12.166 -2.4569  1.0836  1.9796
   54DOPE   HN2 6840   7.526   3.465  12.059 -0.4636 -3.0797 -0.6999
   54DOPE   HN3 6841   7.624   3.417  12.180  0.2877  0.7983 -0.0310
   54DOPE   C12 6842   7.455   3.528  12.253  0.6069  0.1695 -0.5070
   54DOPE  H12A 6843   7.346   3.507  12.248  0.6647 -0.0254 -1.0798
   54DOPE  H12B 6844   7.471   3.632  12.216 -0.8335  0.9262  0.8614
   54DOPE   C11 6845   7.498   3.517  12.403  0.5028 -0.0754  0.7137
   54DOPE  H11A 6846   7.475   3.412  12.431  1.1489 -0.4698 -0.1934
   54DOPE  H11B 6847   7.439   3.594  12.458  2.4772  2.1379 -0.1042
   54DOPE     P 6848   7.688   3.690  12.445  0.0408 -0.3528  0.4569
   54DOPE   O13 6849   7.687   3.768  12.316  0.3622 -0.1607  0.1062
   54DOPE   O14 6850   7.816   3.685  12.516  0.4793  0.1987  0.0493
   54DOPE   O11 6851   7.582   3.750  12.541  0.1110 -0.5068  0.6380
   54DOPE   O12 6852   7.635   3.542  12.413 -0.1971 -0.0036 -0.1537
   54DOPE    C1 6853   7.491   3.853  12.498  0.1026 -0.8654  0.1987
   54DOPE    HA 6854   7.438   3.832  12.403 -0.2507  0.0494  0.1862
   54DOPE    HB 6855   7.553   3.944  12.483 -0.7277 -0.3063  0.1055
   54DOPE    C2 6856   7.381   3.882  12.603 -0.5631 -0.3937 -0.7443
   54DOPE    HS 6857   7.298   3.940  12.558 -0.2392  2.1670  1.7380
   54DOPE   O21 6858   7.440   3.968  12.701 -0.2946 -0.0409  0.3546
   54DOPE   C21 6859   7.362   4.038  12.779 -0.1184  0.7847  0.2918
   54DOPE   O22 6860   7.245   4.060  12.763  0.0831 -0.3787 -0.4780
   54DOPE   C22 6861   7.459   4.094  12.890  0.6440  0.1913 -0.4490
   54DOPE   H2R 6862   7.495   4.197  12.869  0.0046  0.7429  1.0196
   54DOPE   H2S 6863   7.550   4.032  12.904  0.9764  0.8325  0.3642
   54DOPE    C3 6864   7.314   3.748  12.670 -0.7425 -0.5019  0.9834
   54DOPE    HX 6865   7.403   3.696  12.712 -0.7685 -1.6604 -0.3175
   54DOPE    HY 6866   7.280   3.685  12.585 -0.8322 -1.7239  1.8962
   54DOPE   O31 6867   7.225   3.775  12.779 -0.0313  0.1049  0.3989
   54DOPE   C31 6868   7.101   3.782  12.744 -0.2334 -0.5402 -0.5302
   54DOPE   O32 6869   7.059   3.772  12.632  0.2919  0.4757  0.6581
   54DOPE   C32 6870   7.019   3.807  12.874  0.3437  0.1685 -0.5215
   54DOPE   H2X 6871   7.085   3.799  12.963 -0.5764  2.4424  0.4360
   54DOPE   H2Y 6872   6.986   3.913  12.868 -0.6072 -0.1466 -1.0722
   54DOPE   C23 6873   7.397   4.095  13.031  0.0734  0.1776 -0.3208
   54DOPE   H3R 6874   7.298   4.144  13.029 -0.5625 -0.5369  4.2209
   54DOPE   H3S 6875   7.467   4.152  13.096 -0.8453 -0.8752  1.6691
   54DOPE   C24 6876   7.378   3.951  13.076 -0.2965  0.5747  0.4710
   54DOPE   H4R 6877   7.474   3.909  13.113 -2.1227 -1.2022  3.5992
   54DOPE   H4S 6878   7.341   3.889  12.991  1.7752 -0.1086  0.0127
   54DOPE   C25 6879   7.299   3.938  13.208 -0.0572  0.1853  0.0415
   54DOPE   H5R 6880   7.262   3.834  13.223 -1.1261  0.2179 -2.0555
   54DOPE   H5S 6881   7.199   3.987  13.202  0.0521  0.6469  1.5622
   54DOPE   C26 6882   7.360   4.008  13.331 -0.5861 -0.6790 -0.8377
   54DOPE   H6R 6883   7.381   4.115  13.312 -1.7979  0.2194  2.3381
   54DOPE   H6S 6884   7.455   3.955  13.356 -0.5192 -0.7336 -1.2009
   54DOPE   C27 6885   7.281   4.006  13.465 -0.2501  0.6010 -0.2393
   54DOPE   H7R 6886   7.310   3.915  13.522 -1.5077  0.0450 -0.4521
   54DOPE   H7S 6887   7.172   3.990  13.449 -0.1662 -1.2943  0.8120
   54DOPE   C28 6888   7.299   4.123  13.556 -0.5755  0.1463  0.0487
   54DOPE   H8R 6889   7.292   4.213  13.492 -0.0046 -1.2575 -2.1072
   54DOPE   H8S 6890   7.406   4.129  13.587 -0.3184  4.0987 -1.0217
   54DOPE   C29 6891   7.202   4.137  13.665  0.3067  0.6794 -1.0588
   54DOPE   H9R 6892   7.107   4.184  13.636  0.1901  1.0014 -0.1761
   54DOPE  C210 6893   7.206   4.102  13.799 -0.0843 -0.1184  0.3618
   54DOPE  H10R 6894   7.118   4.124  13.861 -2.1449 -2.1899 -1.6348
   54DOPE  C211 6895   7.325   4.046  13.870 -0.7500 -0.9769 -0.4114
   54DOPE  H11R 6896   7.341   4.101  13.965 -0.6386 -0.6182 -0.6392
   54DOPE  H11S 6897   7.421   4.054  13.814  0.7893 -2.1213  1.9264
   54DOPE  C212 6898   7.329   3.902  13.907  0.2754 -0.1603 -0.4174
   54DOPE  H12R 6899   7.246   3.873  13.975  0.6016  0.0046  0.0527
   54DOPE  H12S 6900   7.423   3.887  13.965 -0.5956 -0.5447  0.9326
   54DOPE  C213 6901   7.328   3.795  13.799  0.7776 -0.5332  0.1907
   54DOPE  H13R 6902   7.408   3.840  13.736  2.4314 -1.0428  1.8179
   54DOPE  H13S 6903   7.233   3.785  13.742  2.3542 -0.6019 -2.6279
   54DOPE  C214 6904   7.366   3.653  13.843 -0.4993 -0.0602  0.3329
   54DOPE  H14R 6905   7.301   3.638  13.931 -1.0347 -0.1890 -0.0777
   54DOPE  H14S 6906   7.470   3.659  13.880 -0.4552 -2.2370  0.6747
   54DOPE  C215 6907   7.341   3.554  13.732  0.4498 -0.2875 -0.1721
   54DOPE  H15R 6908   7.358   3.588  13.628 -0.3212 -0.3053 -0.3119
   54DOPE  H15S 6909   7.231   3.536  13.740  0.0588  1.7279 -0.5539
   54DOPE  C216 6910   7.422   3.432  13.753 -0.5419  1.0323 -0.4277
   54DOPE  H16R 6911   7.399   3.388  13.852  2.1904  4.7049  2.1081
   54DOPE  H16S 6912   7.531   3.451  13.763 -0.8399  2.3476  0.6092
   54DOPE  C217 6913   7.402   3.323  13.643  0.4391 -0.7280 -0.5238
   54DOPE  H17R 6914   7.452   3.358  13.550  0.4679 -0.2591 -0.3336
   54DOPE  H17S 6915   7.293   3.304  13.632  0.2842  0.9763 -2.7431
   54DOPE  C218 6916   7.473   3.189  13.677 -0.1049  0.3036  0.5636
   54DOPE  H18R 6917   7.579   3.210  13.702  0.8992 -1.3776 -1.9061
   54DOPE  H18S 6918   7.474   3.115  13.594  0.6572 -0.7296  1.4621
   54DOPE  H18T 6919   7.423   3.134  13.760 -1.3858 -1.0115 -1.0067
   54DOPE   C33 6920   6.891   3.711  12.895  0.5738 -0.0280 -0.2006
   54DOPE   H3X 6921   6.897   3.621  12.830 -4.5093  0.8214 -2.3564
   54DOPE   H3Y 6922   6.800   3.763  12.858  0.4763 -0.7165 -0.9582
   54DOPE   C34 6923   6.874   3.668  13.043  0.0249 -0.1030 -1.2462
   54DOPE   H4X 6924   6.941   3.581  13.061 -1.3041 -0.9624 -0.2247
   54DOPE   H4Y 6925   6.898   3.746  13.118 -2.0132  0.3153 -0.9865
   54DOPE   C35 6926   6.731   3.619  13.065 -0.0207  0.0674 -0.5774
   54DOPE   H5X 6927   6.704   3.531  13.002 -1.2721  0.9263 -1.2983
   54DOPE   H5Y 6928   6.660   3.698  13.031 -2.1140 -0.8409  1.4079
   54DOPE   C36 6929   6.698   3.575  13.205 -0.3988 -1.3290  1.6565
   54DOPE   H6X 6930   6.741   3.657  13.266  3.2042 -1.3630 -0.5447
   54DOPE   H6Y 6931   6.740   3.473  13.220  0.1828 -2.1586 -3.6825
   54DOPE   C37 6932   6.545   3.568  13.245  0.1163 -0.2307  0.1871
   54DOPE   H7X 6933   6.493   3.659  13.210 -1.3105 -1.3881 -0.8520
   54DOPE   H7Y 6934   6.503   3.484  13.185 -1.0877  1.2067 -1.0513
   54DOPE   C38 6935   6.528   3.538  13.394 -0.8352  1.1369 -0.0997
   54DOPE   H8X 6936   6.613   3.472  13.419 -0.8867  0.6198 -1.2259
   54DOPE   H8Y 6937   6.427   3.493  13.405 -0.3022 -0.5812 -1.6582
   54DOPE   C39 6938   6.546   3.673  13.462  0.1253 -0.1221 -0.1084
   54DOPE   H9X 6939   6.577   3.762  13.406 -0.1719 -0.5518 -0.9652
   54DOPE  C310 6940   6.515   3.686  13.592 -0.4196 -0.2988  0.0453
   54DOPE  H10X 6941   6.522   3.787  13.635 -0.7907 -1.0352  1.9261
   54DOPE  C311 6942   6.479   3.576  13.683 -0.4866  0.2606 -0.7495
   54DOPE  H11X 6943   6.379   3.535  13.655  0.1517 -0.4364 -2.0620
   54DOPE  H11Y 6944   6.540   3.485  13.663 -1.0390 -0.8800  2.1601
   54DOPE  C312 6945   6.483   3.602  13.840 -0.2769  0.8543  0.2972
   54DOPE  H12X 6946   6.409   3.683  13.860 -0.7896  0.3264  0.5882
   54DOPE  H12Y 6947   6.580   3.648  13.869  0.9186  0.2582 -2.4378
   54DOPE  C313 6948   6.441   3.482  13.926 -0.3615 -0.4069 -0.4359
   54DOPE  H13X 6949   6.350   3.425  13.900 -2.0824  0.7439  2.5878
   54DOPE  H13Y 6950   6.518   3.402  13.933  0.1275  0.0833 -0.1106
   54DOPE  C314 6951   6.413   3.528  14.071 -0.0929  0.2046 -0.2984
   54DOPE  H14X 6952   6.308   3.564  14.078 -1.0764 -2.7023  1.6567
   54DOPE  H14Y 6953   6.484   3.611  14.091  1.3114 -1.2333  1.0014
   54DOPE  C315 6954   6.436   3.421  14.180  0.3045 -0.2119 -0.0439
   54DOPE  H15X 6955   6.544   3.396  14.180  0.6544  1.1655 -1.0667
   54DOPE  H15Y 6956   6.374   3.330  14.161  1.0716 -0.8543  0.4785
   54DOPE  C316 6957   6.399   3.495  14.310 -0.1101  0.1092 -0.3728
   54DOPE  H16X 6958   6.301   3.549  14.318  0.0908  0.5150 -0.5943
   54DOPE  H16Y 6959   6.485   3.556  14.345  1.2841 -1.6998 -0.5682
   54DOPE  C317 6960   6.370   3.391  14.425 -0.4122 -0.3499  0.3336
   54DOPE  H17X 6961   6.277   3.335  14.404 -0.4372 -0.1953  0.0263
   54DOPE  H17Y 6962   6.452   3.316  14.422  1.1913  1.3484 -0.4347
   54DOPE  C318 6963   6.357   3.444  14.566  0.1458 -0.1433  0.4741
   54DOPE  H18X 6964   6.279   3.522  14.579  0.5620  0.1848  1.0152
   54DOPE  H18Y 6965   6.340   3.361  14.637  2.5634 -1.3151 -0.2039
   54DOPE  H18Z 6966   6.456   3.483  14.600 -0.7859  1.2687  1.6661
   55DOPE     N 6967   1.137   6.469  12.457 -0.5147  0.7268 -0.2705
   55DOPE   HN1 6968   1.235   6.503  12.445 -0.9564  2.1344 -0.0867
   55DOPE   HN2 6969   1.102   6.430  12.367  1.0308 -0.0271 -0.5791
   55DOPE   HN3 6970   1.078   6.554  12.469 -0.7489  0.6343 -0.7325
   55DOPE   C12 6971   1.117   6.388  12.579  0.4449 -0.6090  0.9095
   55DOPE  H12A 6972   1.009   6.372  12.600  0.3207  0.3955  1.0670
   55DOPE  H12B 6973   1.141   6.449  12.669 -1.2478  0.7186  0.5031
   55DOPE   C11 6974   1.180   6.247  12.580 -0.7622 -0.7252  0.0323
   55DOPE  H11A 6975   1.144   6.200  12.674  1.7874  0.3857  1.6633
   55DOPE  H11B 6976   1.289   6.259  12.597 -1.0657  0.5696  1.2134
   55DOPE     P 6977   1.209   6.038  12.428  0.1028 -0.0758  0.4175
   55DOPE   O13 6978   1.353   6.052  12.424  0.2168 -0.2534 -0.0723
   55DOPE   O14 6979   1.146   5.982  12.312  0.2931  1.3638 -0.0758
   55DOPE   O11 6980   1.176   5.958  12.552  0.1099  0.6282  0.6577
   55DOPE   O12 6981   1.152   6.182  12.454 -0.1646  0.0029 -0.5533
   55DOPE    C1 6982   1.038   5.940  12.588 -0.3033 -0.7475  0.5454
   55DOPE    HA 6983   0.981   5.902  12.500 -0.0424  2.1743 -1.0131
   55DOPE    HB 6984   0.994   6.038  12.617  3.1538  0.9500  0.4858
   55DOPE    C2 6985   1.026   5.839  12.702  0.1715  0.0833  0.2744
   55DOPE    HS 6986   0.918   5.825  12.724  0.0170  0.7872  0.0043
   55DOPE   O21 6987   1.088   5.894  12.816  0.7685  0.3399  0.4488
   55DOPE   C21 6988   1.023   5.987  12.885 -0.7363 -0.1825  0.4547
   55DOPE   O22 6989   0.907   6.018  12.863  0.4907 -0.3332 -0.1324
   55DOPE   C22 6990   1.120   6.067  12.977  0.4856 -0.5682 -0.1111
   55DOPE   H2R 6991   1.070   6.165  12.984 -2.0302 -1.8232  0.5098
   55DOPE   H2S 6992   1.221   6.077  12.931  1.0331 -0.7463  1.0043
   55DOPE    C3 6993   1.096   5.703  12.662  0.6508  0.1000  0.3703
   55DOPE    HX 6994   1.200   5.724  12.630 -0.0474  2.4442 -0.5277
   55DOPE    HY 6995   1.043   5.668  12.570 -0.5233  0.6676  0.8028
   55DOPE   O31 6996   1.096   5.612  12.767  0.2453 -0.1765  0.3298
   55DOPE   C31 6997   1.004   5.518  12.767 -0.0081 -1.0549  0.0977
   55DOPE   O32 6998   0.907   5.516  12.686 -0.1161 -0.5500 -0.3579
   55DOPE   C32 6999   1.031   5.414  12.869  0.3272  0.8285 -0.1545
   55DOPE   H2X 7000   1.133   5.374  12.849  0.2873  1.1444 -1.0283
   55DOPE   H2Y 7001   1.039   5.464  12.967  1.9336 -2.3565  1.4892
   55DOPE   C23 7002   1.120   6.016  13.125 -0.1880  0.0290  0.1718
   55DOPE   H3R 7003   1.018   6.019  13.169 -0.8687  0.7282 -1.3654
   55DOPE   H3S 7004   1.189   6.084  13.179  0.6361  0.2476 -1.1213
   55DOPE   C24 7005   1.162   5.867  13.141  0.0848 -0.3752 -0.2860
   55DOPE   H4R 7006   1.078   5.803  13.109 -0.6660 -0.3428  1.4840
   55DOPE   H4S 7007   1.152   5.856  13.252 -0.9872  0.7243 -0.2495
   55DOPE   C25 7008   1.294   5.822  13.080 -0.4694 -0.7416  0.2557
   55DOPE   H5R 7009   1.378   5.883  13.120 -0.4193  0.7983 -1.9839
   55DOPE   H5S 7010   1.287   5.826  12.969  0.5767 -0.5550  0.1886
   55DOPE   C26 7011   1.336   5.676  13.109 -0.6830 -0.0312 -0.2615
   55DOPE   H6R 7012   1.409   5.651  13.029 -0.1857 -0.8502  0.4320
   55DOPE   H6S 7013   1.258   5.602  13.083  0.9257 -1.4192 -1.3120
   55DOPE   C27 7014   1.401   5.657  13.244  0.3322  0.0747  0.0074
   55DOPE   H7R 7015   1.340   5.688  13.332  1.3711 -0.9719  1.1318
   55DOPE   H7S 7016   1.493   5.720  13.249  1.3128 -1.2909 -0.2264
   55DOPE   C28 7017   1.444   5.511  13.272  0.1773  0.1984  0.1625
   55DOPE   H8R 7018   1.498   5.515  13.369  0.9731  1.0316 -0.2953
   55DOPE   H8S 7019   1.526   5.479  13.203  1.7850  0.5128  1.8425
   55DOPE   C29 7020   1.330   5.414  13.276  0.6375  0.8259  0.4019
   55DOPE   H9R 7021   1.251   5.435  13.203  1.2508  1.1723 -0.1831
   55DOPE  C210 7022   1.315   5.315  13.367 -1.2009  0.3345  0.4348
   55DOPE  H10R 7023   1.243   5.235  13.346  0.1134 -0.9701  0.7336
   55DOPE  C211 7024   1.420   5.265  13.466  0.1483  0.4646  0.2154
   55DOPE  H11R 7025   1.492   5.340  13.507  1.7888 -1.4717  1.0247
   55DOPE  H11S 7026   1.488   5.195  13.413  0.7939  1.9101 -0.9593
   55DOPE  C212 7027   1.361   5.211  13.598  0.0167 -0.3540  1.7770
   55DOPE  H12R 7028   1.289   5.290  13.629 -0.4514  0.1512 -0.3898
   55DOPE  H12S 7029   1.437   5.198  13.677 -0.7204  0.0835  2.5835
   55DOPE  C213 7030   1.292   5.064  13.575  0.5796 -0.4768 -0.3146
   55DOPE  H13R 7031   1.374   4.995  13.548  2.6321 -0.0568  3.9200
   55DOPE  H13S 7032   1.214   5.072  13.497  2.4184 -0.6297 -2.2395
   55DOPE  C214 7033   1.218   5.025  13.702 -0.3335 -0.0833  0.7152
   55DOPE  H14R 7034   1.172   4.924  13.694 -0.3212  0.0547 -1.9024
   55DOPE  H14S 7035   1.137   5.100  13.719 -2.4591 -2.5370  2.1064
   55DOPE  C215 7036   1.312   5.028  13.831  0.6603  0.4448 -0.4344
   55DOPE  H15R 7037   1.336   5.134  13.855  0.8221  0.0656  1.1518
   55DOPE  H15S 7038   1.408   4.980  13.804 -0.3628 -1.1301 -1.4529
   55DOPE  C216 7039   1.239   4.959  13.949  0.0046 -0.3604  0.5005
   55DOPE  H16R 7040   1.210   4.859  13.910  1.2967 -0.1681 -1.0721
   55DOPE  H16S 7041   1.147   5.017  13.972  1.0399  0.7682  1.9691
   55DOPE  C217 7042   1.318   4.960  14.079 -0.2633  0.0806  0.4890
   55DOPE  H17R 7043   1.255   4.940  14.168 -0.9618 -2.5236 -0.5000
   55DOPE  H17S 7044   1.362   5.062  14.074  3.9620 -1.4683  1.6037
   55DOPE  C218 7045   1.421   4.849  14.082 -0.6951 -0.1228 -0.0823
   55DOPE  H18R 7046   1.371   4.751  14.065 -0.1698  0.0297 -3.0243
   55DOPE  H18S 7047   1.478   4.834  14.176  0.8112 -0.0901 -0.9470
   55DOPE  H18T 7048   1.487   4.845  13.993 -0.5683 -1.9619  0.0600
   55DOPE   C33 7049   0.918   5.306  12.873  0.0475  0.6859 -0.4373
   55DOPE   H3X 7050   0.905   5.274  12.768  0.4182  0.4139 -0.3987
   55DOPE   H3Y 7051   0.816   5.342  12.901 -0.3106 -0.1805 -0.5990
   55DOPE   C34 7052   0.947   5.177  12.952  0.1258 -0.6308  0.8974
   55DOPE   H4X 7053   0.858   5.110  12.946  1.0239 -1.6949 -2.7082
   55DOPE   H4Y 7054   1.041   5.126  12.923 -0.9732 -2.0741 -0.2704
   55DOPE   C35 7055   0.967   5.208  13.100  0.2950 -0.0973  0.0324
   55DOPE   H5X 7056   0.906   5.298  13.126  1.0062  0.3482  0.1709
   55DOPE   H5Y 7057   1.071   5.244  13.109  0.5894  0.1145 -2.9697
   55DOPE   C36 7058   0.928   5.087  13.184  0.5115 -0.2043 -0.2357
   55DOPE   H6X 7059   0.987   4.998  13.154 -1.4561 -1.2222 -1.2704
   55DOPE   H6Y 7060   0.818   5.075  13.175  0.5617 -1.5423  0.6801
   55DOPE   C37 7061   0.946   5.113  13.337 -0.2700  0.0601  0.1738
   55DOPE   H7X 7062   1.050   5.144  13.356  0.1114 -1.4641  0.7250
   55DOPE   H7Y 7063   0.887   5.200  13.376  0.7334 -0.2473  2.5508
   55DOPE   C38 7064   0.934   4.989  13.422  0.4449 -0.5639 -0.0955
   55DOPE   H8X 7065   0.976   5.006  13.524 -1.0867  1.4941  0.2454
   55DOPE   H8Y 7066   1.003   4.918  13.370  2.1130  0.0731  1.1454
   55DOPE   C39 7067   0.793   4.947  13.430 -0.3706  0.1088  0.9011
   55DOPE   H9X 7068   0.751   4.923  13.331  0.5306  0.3158  0.4539
   55DOPE  C310 7069   0.712   4.955  13.532 -0.6566  0.4203  0.0715
   55DOPE  H10X 7070   0.608   4.921  13.526  0.2988 -3.0633  0.8724
   55DOPE  C311 7071   0.747   5.006  13.667 -0.9303  0.0172 -0.1466
   55DOPE  H11X 7072   0.785   4.916  13.721  0.3982 -0.0279 -1.1002
   55DOPE  H11Y 7073   0.826   5.083  13.674  0.3608 -1.3798  1.6797
   55DOPE  C312 7074   0.636   5.053  13.758  0.1695 -0.5224 -0.4836
   55DOPE  H12X 7075   0.549   4.985  13.744 -0.7805  0.5199  0.1914
   55DOPE  H12Y 7076   0.610   5.151  13.713  0.2233 -0.6970 -0.8983
   55DOPE  C313 7077   0.696   5.067  13.902  0.1815  0.4972 -0.1223
   55DOPE  H13X 7078   0.737   4.971  13.941 -1.0229 -1.2842 -2.9010
   55DOPE  H13Y 7079   0.789   5.128  13.897  2.3227 -2.0580  3.5034
   55DOPE  C314 7080   0.603   5.137  14.007 -0.2784  0.2262  0.0406
   55DOPE  H14X 7081   0.640   5.106  14.107  2.2837 -0.2971 -0.9901
   55DOPE  H14Y 7082   0.497   5.102  14.007 -0.2975  0.1890 -1.4598
   55DOPE  C315 7083   0.615   5.286  13.994  0.3331 -0.2322  0.1682
   55DOPE  H15X 7084   0.585   5.341  13.902  3.7407  0.3042 -0.7669
   55DOPE  H15Y 7085   0.723   5.310  14.000  0.4501  0.1017 -2.2805
   55DOPE  C316 7086   0.547   5.356  14.113  0.2087 -0.2905 -0.4594
   55DOPE  H16X 7087   0.541   5.294  14.205 -2.7500 -0.3304 -0.5756
   55DOPE  H16Y 7088   0.438   5.371  14.096  0.2849  0.5304 -0.2850
   55DOPE  C317 7089   0.602   5.490  14.155 -0.5987  0.6108  0.8777
   55DOPE  H17X 7090   0.703   5.461  14.191  0.3715 -1.0315 -2.7110
   55DOPE  H17Y 7091   0.619   5.563  14.073  1.6837  0.5962  1.2758
   55DOPE  C318 7092   0.513   5.559  14.263 -0.3822  0.3684  0.3029
   55DOPE  H18X 7093   0.555   5.638  14.329  0.3676 -1.1420  1.7199
   55DOPE  H18Y 7094   0.429   5.607  14.210  0.8149  2.2578  0.0292
   55DOPE  H18Z 7095   0.472   5.478  14.328 -1.2000  1.4679  1.2083
   56DOPE     N 7096   0.566   6.953  12.552 -0.2838  0.1320 -0.2552
   56DOPE   HN1 7097   0.561   7.019  12.632  0.1561  0.4783 -0.5033
   56DOPE   HN2 7098   0.479   6.897  12.562 -0.4011  0.3516 -0.0316
   56DOPE   HN3 7099   0.651   6.893  12.553  1.0321  1.8573 -1.9706
   56DOPE   C12 7100   0.572   7.017  12.410  0.3755  0.4798 -0.0463
   56DOPE  H12A 7101   0.473   7.067  12.396  0.9869  1.7417  0.0200
   56DOPE  H12B 7102   0.572   6.928  12.343  2.1008 -0.0163  0.5748
   56DOPE   C11 7103   0.686   7.111  12.383  0.4055  0.6678  0.0476
   56DOPE  H11A 7104   0.677   7.200  12.449 -2.4579 -0.2270  1.0109
   56DOPE  H11B 7105   0.675   7.157  12.283 -2.3288  1.4786  0.6569
   56DOPE     P 7106   0.951   7.101  12.387  0.2929 -0.4926  0.3451
   56DOPE   O13 7107   0.924   7.238  12.335 -0.0221  0.1671  0.8094
   56DOPE   O14 7108   1.042   7.023  12.304 -0.2976 -0.3148  0.2901
   56DOPE   O11 7109   1.004   7.113  12.535  0.1033 -0.1879  0.6500
   56DOPE   O12 7110   0.810   7.033  12.400  0.0893 -0.7122  0.4058
   56DOPE    C1 7111   0.916   7.145  12.648 -0.0245  0.7947 -0.1841
   56DOPE    HA 7112   0.961   7.099  12.739  0.0590 -1.1568 -1.1479
   56DOPE    HB 7113   0.814   7.102  12.634  1.0114 -1.7061 -0.7107
   56DOPE    C2 7114   0.905   7.300  12.674  0.0219  0.3285 -0.0807
   56DOPE    HS 7115   0.928   7.363  12.585  2.0872  4.1717  2.8780
   56DOPE   O21 7116   1.002   7.338  12.768 -0.1625 -0.4112 -0.0373
   56DOPE   C21 7117   1.025   7.468  12.784 -0.3363 -0.3074 -0.0534
   56DOPE   O22 7118   0.979   7.554  12.708 -0.0126 -0.0651 -0.2456
   56DOPE   C22 7119   1.121   7.503  12.899  0.1996  0.6135 -0.3361
   56DOPE   H2R 7120   1.204   7.565  12.859  0.1594  0.7558 -0.2018
   56DOPE   H2S 7121   1.167   7.405  12.924 -2.8799 -0.4213  1.8713
   56DOPE    C3 7122   0.758   7.330  12.726 -0.6260  0.2810  0.1376
   56DOPE    HX 7123   0.682   7.303  12.649  0.6716 -0.2183 -1.0235
   56DOPE    HY 7124   0.757   7.441  12.725  0.1726  0.4029 -3.5261
   56DOPE   O31 7125   0.722   7.278  12.853  0.1530  0.2547  0.1603
   56DOPE   C31 7126   0.652   7.163  12.859 -0.2848 -0.1617 -0.3310
   56DOPE   O32 7127   0.612   7.094  12.771  0.1164 -0.2451  0.1161
   56DOPE   C32 7128   0.645   7.120  13.009 -0.0796 -0.3776  0.2551
   56DOPE   H2X 7129   0.613   7.215  13.057  1.2114  0.4132 -0.3792
   56DOPE   H2Y 7130   0.569   7.039  13.014 -0.2933 -0.1056  1.8016
   56DOPE   C23 7131   1.053   7.576  13.017 -0.2879 -0.2945 -0.0148
   56DOPE   H3R 7132   1.035   7.680  12.983  0.0313  0.0590  0.8778
   56DOPE   H3S 7133   1.122   7.577  13.104 -1.1846 -3.3448  0.8568
   56DOPE   C24 7134   0.930   7.502  13.064  0.0586  0.0307  0.3131
   56DOPE   H4R 7135   0.950   7.396  13.037 -1.8156 -1.0929  2.9016
   56DOPE   H4S 7136   0.836   7.531  13.011  0.1912 -0.2729 -0.0865
   56DOPE   C25 7137   0.919   7.518  13.209  0.3135  0.3179 -0.3421
   56DOPE   H5R 7138   0.912   7.627  13.230 -1.8588  0.3702 -1.0564
   56DOPE   H5S 7139   1.005   7.472  13.262  0.2160 -0.1796 -0.6088
   56DOPE   C26 7140   0.796   7.447  13.269  0.3438 -0.0409  0.6613
   56DOPE   H6R 7141   0.819   7.338  13.268  0.4911 -0.0114  0.7716
   56DOPE   H6S 7142   0.704   7.476  13.215 -0.0488  4.1960  3.1519
   56DOPE   C27 7143   0.758   7.504  13.414  0.4806 -0.8487  0.1755
   56DOPE   H7R 7144   0.695   7.594  13.396 -1.8898 -2.4208  0.0907
   56DOPE   H7S 7145   0.852   7.538  13.462 -0.5468  2.5432  0.0338
   56DOPE   C28 7146   0.668   7.411  13.506 -0.4535 -0.0607 -0.0300
   56DOPE   H8R 7147   0.737   7.341  13.557  0.7401  0.9472 -0.2108
   56DOPE   H8S 7148   0.606   7.347  13.440 -1.5674  1.0093 -0.0592
   56DOPE   C29 7149   0.576   7.492  13.600  0.7855  0.2352  0.1717
   56DOPE   H9R 7150   0.470   7.485  13.570  0.9088 -0.4464 -0.1203
   56DOPE  C210 7151   0.606   7.549  13.720 -0.5193  0.2840  0.1107
   56DOPE  H10R 7152   0.537   7.614  13.776 -0.3868  0.0865  0.5075
   56DOPE  C211 7153   0.744   7.549  13.785  0.1411  0.2195 -0.1188
   56DOPE  H11R 7154   0.788   7.648  13.761  0.0164  0.7014  1.5335
   56DOPE  H11S 7155   0.800   7.462  13.746  0.6951 -0.3814  1.9033
   56DOPE  C212 7156   0.750   7.554  13.936  0.1623  0.9123 -0.3635
   56DOPE  H12R 7157   0.712   7.648  13.982 -1.1375  0.0050  0.4548
   56DOPE  H12S 7158   0.857   7.543  13.961 -0.8199 -2.9100  3.0898
   56DOPE  C213 7159   0.685   7.431  14.008  0.2412  0.4760 -0.7158
   56DOPE  H13R 7160   0.730   7.332  13.988 -0.8367 -0.3791  0.8394
   56DOPE  H13S 7161   0.580   7.406  13.981  0.1024  0.3038 -0.0336
   56DOPE  C214 7162   0.677   7.448  14.165  0.4354  0.7718 -0.1249
   56DOPE  H14R 7163   0.612   7.535  14.188  2.3321  1.9693  0.9732
   56DOPE  H14S 7164   0.782   7.465  14.198  1.0511  0.2354 -1.6684
   56DOPE  C215 7165   0.622   7.319  14.231 -0.7039 -0.2707  0.2924
   56DOPE  H15R 7166   0.646   7.227  14.173 -0.4906 -0.0631  0.0505
   56DOPE  H15S 7167   0.511   7.322  14.231 -0.6962  1.2056 -0.8398
   56DOPE  C216 7168   0.673   7.297  14.371  0.1813  0.5795 -1.3447
   56DOPE  H16R 7169   0.605   7.223  14.419  1.3213 -0.9517 -1.9840
   56DOPE  H16S 7170   0.662   7.391  14.428 -0.5089  0.0360 -0.5531
   56DOPE  C217 7171   0.804   7.229  14.378 -0.9028  0.0044  1.0803
   56DOPE  H17R 7172   0.885   7.302  14.355 -2.0493  0.6995 -0.9716
   56DOPE  H17S 7173   0.815   7.152  14.298 -2.1030  1.4034 -0.4897
   56DOPE  C218 7174   0.848   7.161  14.513  0.0598  0.1210  0.2880
   56DOPE  H18R 7175   0.955   7.132  14.501 -0.3829 -1.9328  0.7935
   56DOPE  H18S 7176   0.786   7.071  14.532  0.6372 -0.3857 -0.1715
   56DOPE  H18T 7177   0.851   7.237  14.594  0.4324  1.0132 -0.5459
   56DOPE   C33 7178   0.787   7.085  13.064  0.2328 -0.0653  0.4796
   56DOPE   H3X 7179   0.860   7.168  13.057  1.4646 -0.8601  2.9395
   56DOPE   H3Y 7180   0.825   7.000  13.003  1.5549  1.6923 -1.2591
   56DOPE   C34 7181   0.791   7.036  13.213  0.9648 -0.4875 -0.3774
   56DOPE   H4X 7182   0.720   7.094  13.275  1.1712  0.8216 -1.3247
   56DOPE   H4Y 7183   0.742   6.936  13.219 -0.3355  0.1696  0.2444
   56DOPE   C35 7184   0.925   7.056  13.279  0.5855 -0.4962  0.4118
   56DOPE   H5X 7185   0.914   7.026  13.385  0.3613 -0.8116  0.3049
   56DOPE   H5Y 7186   0.942   7.165  13.281 -2.0276 -0.0355  1.2847
   56DOPE   C36 7187   1.027   6.965  13.211 -0.3505  0.0408 -0.1127
   56DOPE   H6X 7188   1.029   7.007  13.108  1.1462  1.3997  0.4394
   56DOPE   H6Y 7189   0.999   6.858  13.226 -1.2162  0.3919  0.9573
   56DOPE   C37 7190   1.167   6.987  13.275 -0.1678  0.4326  0.5243
   56DOPE   H7X 7191   1.184   7.097  13.285 -2.0321  0.7053  1.2049
   56DOPE   H7Y 7192   1.181   6.946  13.377  1.5524  0.4312  0.3185
   56DOPE   C38 7193   1.267   6.927  13.183 -0.2262  0.0790 -0.4202
   56DOPE   H8X 7194   1.231   6.941  13.079 -0.1512 -0.9122 -0.5949
   56DOPE   H8Y 7195   1.275   6.817  13.203  1.5459  0.3504  0.6000
   56DOPE   C39 7196   1.403   6.987  13.210 -0.4953 -1.0373 -0.0145
   56DOPE   H9X 7197   1.391   7.092  13.180  0.5554 -1.4395 -1.9630
   56DOPE  C310 7198   1.517   6.949  13.270  0.2133  0.2005  0.0385
   56DOPE  H10X 7199   1.602   7.019  13.265  0.2197  0.3419  1.6382
   56DOPE  C311 7200   1.548   6.816  13.323 -0.0655  0.3315 -0.2017
   56DOPE  H11X 7201   1.463   6.747  13.305  0.1680 -0.1508  0.4553
   56DOPE  H11Y 7202   1.634   6.768  13.270 -1.7301 -0.9110 -1.9003
   56DOPE  C312 7203   1.575   6.833  13.468  0.1424 -0.0320  0.0985
   56DOPE  H12X 7204   1.483   6.862  13.525 -0.8007 -1.4349 -0.6483
   56DOPE  H12Y 7205   1.650   6.914  13.472  0.7659 -0.5711 -0.4491
   56DOPE  C313 7206   1.641   6.703  13.531  0.5305 -0.2272  0.3576
   56DOPE  H13X 7207   1.567   6.619  13.530  1.0843 -0.7645 -1.6478
   56DOPE  H13Y 7208   1.716   6.660  13.460 -0.6192 -1.7218 -0.0293
   56DOPE  C314 7209   1.680   6.720  13.683 -0.1483 -0.6357  0.0953
   56DOPE  H14X 7210   1.709   6.826  13.699 -0.5973 -0.1216 -2.0729
   56DOPE  H14Y 7211   1.769   6.654  13.692  0.3364 -0.2360 -1.4342
   56DOPE  C315 7212   1.569   6.675  13.775 -0.9225  0.3058  0.5222
   56DOPE  H15X 7213   1.535   6.572  13.752  1.1623 -0.6208  1.3454
   56DOPE  H15Y 7214   1.489   6.746  13.745  0.5702  1.1276 -1.7964
   56DOPE  C316 7215   1.611   6.689  13.915 -0.7340 -0.5406  0.6163
   56DOPE  H16X 7216   1.668   6.781  13.940 -1.4524  0.1641 -0.2426
   56DOPE  H16Y 7217   1.679   6.602  13.929 -0.8503 -0.3850  2.3205
   56DOPE  C317 7218   1.494   6.695  14.021 -0.1610  0.2246  0.3080
   56DOPE  H17X 7219   1.451   6.594  14.040  1.2619 -0.7538 -1.2938
   56DOPE  H17Y 7220   1.536   6.715  14.122 -0.7891  0.4367  0.5289
   56DOPE  C318 7221   1.388   6.798  14.001  0.2388  0.5826  0.4091
   56DOPE  H18X 7222   1.317   6.806  14.086 -0.4679  0.3134 -0.1360
   56DOPE  H18Y 7223   1.439   6.895  13.983 -2.3040  1.7973 -0.7684
   56DOPE  H18Z 7224   1.328   6.782  13.909 -1.2527  0.9763  1.2749
   57DOPE     N 7225   7.546   2.668  12.406 -0.4669  0.5266  0.2039
   57DOPE   HN1 7226   7.499   2.579  12.432 -1.2992  0.9147  0.0670
   57DOPE   HN2 7227   7.579   2.724  12.487 -1.6935  1.2432  0.2389
   57DOPE   HN3 7228   7.478   2.732  12.360  1.1328  1.8315 -0.4792
   57DOPE   C12 7229   7.657   2.643  12.302  0.1257  0.1692 -0.5041
   57DOPE  H12A 7230   7.750   2.609  12.352 -0.1259  0.1577 -0.0385
   57DOPE  H12B 7231   7.678   2.741  12.254  1.9932  0.4822  0.8458
   57DOPE   C11 7232   7.611   2.543  12.191 -0.1289 -0.2627  0.0616
   57DOPE  H11A 7233   7.705   2.513  12.140  0.0572  1.2346 -0.5357
   57DOPE  H11B 7234   7.554   2.602  12.116 -1.7980 -1.6401  0.1796
   57DOPE     P 7235   7.590   2.311  12.298 -0.2828 -0.0840 -0.1207
   57DOPE   O13 7236   7.658   2.231  12.192 -0.3149  0.0128  0.1007
   57DOPE   O14 7237   7.484   2.231  12.366  1.0963  0.2805 -0.0137
   57DOPE   O11 7238   7.694   2.364  12.401 -0.0474 -0.2152 -0.1620
   57DOPE   O12 7239   7.527   2.434  12.225  0.2635 -0.9686 -1.0187
   57DOPE    C1 7240   7.756   2.277  12.501  0.7406 -0.1408  0.0824
   57DOPE    HA 7241   7.865   2.299  12.500  0.9600 -0.9970  1.6964
   57DOPE    HB 7242   7.755   2.170  12.471  0.2463 -0.9285  2.7008
   57DOPE    C2 7243   7.710   2.288  12.642  0.3454 -0.3629 -0.8731
   57DOPE    HS 7244   7.764   2.210  12.698  0.4611  0.3352  0.0183
   57DOPE   O21 7245   7.566   2.277  12.648  0.0010 -0.3908 -0.1042
   57DOPE   C21 7246   7.521   2.156  12.664  0.5492  0.6516 -0.0110
   57DOPE   O22 7247   7.590   2.053  12.660  0.6259  0.0545  0.0098
   57DOPE   C22 7248   7.371   2.156  12.687 -0.4936  0.4246  0.2900
   57DOPE   H2R 7249   7.342   2.050  12.704 -0.5982  0.2284 -1.0383
   57DOPE   H2S 7250   7.332   2.199  12.592  1.0154  1.2324  0.0093
   57DOPE    C3 7251   7.752   2.423  12.722 -0.0409  0.1843 -0.3025
   57DOPE    HX 7252   7.717   2.511  12.663 -1.1659 -0.8450 -1.2240
   57DOPE    HY 7253   7.863   2.421  12.717 -0.0416  0.2457 -0.3490
   57DOPE   O31 7254   7.713   2.421  12.863  0.5642  0.0467  0.0549
   57DOPE   C31 7255   7.791   2.352  12.947 -0.8390 -0.0391  0.1522
   57DOPE   O32 7256   7.894   2.296  12.911  0.4166  0.2756 -0.3379
   57DOPE   C32 7257   7.719   2.327  13.077  0.1678 -0.0792  0.4201
   57DOPE   H2X 7258   7.632   2.395  13.087 -1.1306 -1.5984 -0.1213
   57DOPE   H2Y 7259   7.675   2.225  13.073 -1.2980  0.5605 -1.4841
   57DOPE   C23 7260   7.318   2.248  12.797 -0.0361  0.6041  0.0130
   57DOPE   H3R 7261   7.207   2.255  12.796 -0.1174 -0.3299  0.9850
   57DOPE   H3S 7262   7.351   2.353  12.784 -3.8503  1.8941 -0.6363
   57DOPE   C24 7263   7.352   2.191  12.936 -0.1514 -0.1565 -0.0061
   57DOPE   H4R 7264   7.462   2.191  12.947 -0.3168 -0.1168  2.1549
   57DOPE   H4S 7265   7.312   2.088  12.936 -2.3202  0.5522 -2.5613
   57DOPE   C25 7266   7.299   2.281  13.046  0.0766  0.5210 -0.6233
   57DOPE   H5R 7267   7.188   2.287  13.045  0.0596  0.2564 -0.3637
   57DOPE   H5S 7268   7.341   2.382  13.027  1.4201  0.3523  1.1258
   57DOPE   C26 7269   7.328   2.232  13.190  0.1661 -0.5019 -0.4323
   57DOPE   H6R 7270   7.438   2.224  13.196  0.3657  2.2480  1.0668
   57DOPE   H6S 7271   7.279   2.137  13.219  1.2134 -1.2518 -1.0678
   57DOPE   C27 7272   7.292   2.345  13.290 -0.0707 -0.1355 -0.6229
   57DOPE   H7R 7273   7.181   2.348  13.286 -0.1128 -0.0954  0.2873
   57DOPE   H7S 7274   7.347   2.437  13.262  0.4700 -0.9872 -2.5175
   57DOPE   C28 7275   7.342   2.315  13.431  0.3568  0.0149 -0.0984
   57DOPE   H8R 7276   7.453   2.311  13.434  0.3633 -1.0781 -0.9887
   57DOPE   H8S 7277   7.293   2.218  13.455 -1.0012  0.2683 -1.6429
   57DOPE   C29 7278   7.292   2.422  13.526  0.5002 -0.2156 -0.1742
   57DOPE   H9R 7279   7.247   2.508  13.474 -2.9670 -1.6008  0.2866
   57DOPE  C210 7280   7.320   2.429  13.663  0.1584 -0.0402 -0.1760
   57DOPE  H10R 7281   7.273   2.507  13.725 -0.5929 -1.3020  0.8880
   57DOPE  C211 7282   7.403   2.345  13.746  0.3842  0.0719 -0.2563
   57DOPE  H11R 7283   7.454   2.402  13.827  3.4553 -3.6208  0.6726
   57DOPE  H11S 7284   7.486   2.294  13.692 -0.9260 -2.1143 -0.3145
   57DOPE  C212 7285   7.337   2.215  13.802 -0.3544  0.3713  0.4168
   57DOPE  H12R 7286   7.423   2.145  13.793 -0.2463  0.7908 -3.2775
   57DOPE  H12S 7287   7.261   2.183  13.728 -2.0729  0.8151  1.9295
   57DOPE  C213 7288   7.292   2.224  13.948  0.1555 -0.2301  0.4039
   57DOPE  H13R 7289   7.189   2.264  13.943  0.8970  1.7365  0.2304
   57DOPE  H13S 7290   7.348   2.307  13.995  0.9632 -1.1369  1.0920
   57DOPE  C214 7291   7.312   2.099  14.032 -0.1756 -0.4311  0.0145
   57DOPE  H14R 7292   7.421   2.082  14.022 -0.3857 -2.0168  0.2513
   57DOPE  H14S 7293   7.256   2.012  13.993  3.7560 -2.7694 -1.0007
   57DOPE  C215 7294   7.272   2.125  14.178 -1.2439 -0.0957 -0.5367
   57DOPE  H15R 7295   7.179   2.186  14.190 -1.3610 -0.3635 -0.0672
   57DOPE  H15S 7296   7.352   2.186  14.225 -0.5169 -0.6872 -0.9866
   57DOPE  C216 7297   7.251   1.999  14.268  0.2970  0.2810  0.0913
   57DOPE  H16R 7298   7.350   1.949  14.275 -1.0062 -2.8606 -1.6521
   57DOPE  H16S 7299   7.186   1.930  14.210  0.2087  1.2906 -1.0783
   57DOPE  C217 7300   7.184   2.026  14.406  0.2155  0.8582  0.9214
   57DOPE  H17R 7301   7.181   1.925  14.454  3.3758  0.3432  0.2519
   57DOPE  H17S 7302   7.078   2.052  14.383 -0.2393 -1.3706  0.2070
   57DOPE  C218 7303   7.248   2.127  14.494  0.0210  0.1254  0.4477
   57DOPE  H18R 7304   7.242   2.231  14.453  0.7257  0.3194  0.8249
   57DOPE  H18S 7305   7.357   2.108  14.500 -0.0157 -0.2719 -0.0884
   57DOPE  H18T 7306   7.210   2.127  14.598 -1.5838  1.7793 -0.0764
   57DOPE   C33 7307   7.816   2.356  13.193  0.2815 -0.4879 -0.8016
   57DOPE   H3X 7308   7.850   2.461  13.191  1.4168 -0.7385  1.8294
   57DOPE   H3Y 7309   7.913   2.302  13.189  0.5361  0.0061 -1.7303
   57DOPE   C34 7310   7.740   2.337  13.325 -0.7448  0.3238  0.3352
   57DOPE   H4X 7311   7.663   2.417  13.323 -1.2653 -0.1681 -1.7599
   57DOPE   H4Y 7312   7.695   2.235  13.328 -0.4239  0.1482 -0.4643
   57DOPE   C35 7313   7.827   2.350  13.455 -0.0795  0.8950 -0.3942
   57DOPE   H5X 7314   7.873   2.451  13.451  0.4749  0.6752  0.2106
   57DOPE   H5Y 7315   7.911   2.277  13.454 -0.4917  0.4131 -0.4436
   57DOPE   C36 7316   7.750   2.335  13.583 -0.3209 -0.2625 -0.5906
   57DOPE   H6X 7317   7.704   2.234  13.586  2.3383 -1.6211 -2.1275
   57DOPE   H6Y 7318   7.680   2.420  13.599 -0.8330 -1.2770  4.4621
   57DOPE   C37 7319   7.843   2.330  13.709 -0.6596 -0.5971  0.2391
   57DOPE   H7X 7320   7.924   2.260  13.682  2.9621  2.5732  1.9449
   57DOPE   H7Y 7321   7.876   2.435  13.725 -2.5208  0.0760 -0.0029
   57DOPE   C38 7322   7.771   2.286  13.832  0.0169 -0.5120 -0.6655
   57DOPE   H8X 7323   7.757   2.175  13.832  1.8546 -0.8037  0.5232
   57DOPE   H8Y 7324   7.671   2.333  13.835 -0.4125 -1.3300  3.1637
   57DOPE   C39 7325   7.856   2.325  13.958  0.2265 -0.4211  0.0535
   57DOPE   H9X 7326   7.948   2.268  13.980  1.0862  1.6460  2.2219
   57DOPE  C310 7327   7.823   2.418  14.048 -0.3334  1.2572 -0.0952
   57DOPE  H10X 7328   7.900   2.446  14.121  1.0347 -2.5010  0.0754
   57DOPE  C311 7329   7.696   2.500  14.048 -0.3026 -0.6831  0.5094
   57DOPE  H11X 7330   7.717   2.605  14.075 -2.6453  0.1556 -0.7261
   57DOPE  H11Y 7331   7.648   2.498  13.948 -0.8320 -1.4911  0.7686
   57DOPE  C312 7332   7.599   2.439  14.145 -0.3053 -0.4853 -0.3583
   57DOPE  H12X 7333   7.591   2.330  14.126  0.1216 -0.6520  0.3588
   57DOPE  H12Y 7334   7.496   2.480  14.133  0.4716  1.5996 -0.3007
   57DOPE  C313 7335   7.625   2.459  14.297 -0.1720 -0.3234  0.1738
   57DOPE  H13X 7336   7.729   2.433  14.325  0.0609  1.5216  1.1281
   57DOPE  H13Y 7337   7.604   2.563  14.328  0.8305 -0.4046  1.2273
   57DOPE  C314 7338   7.529   2.381  14.387  0.2486 -0.0028 -0.3707
   57DOPE  H14X 7339   7.540   2.271  14.382 -0.7409 -0.3126  2.5049
   57DOPE  H14Y 7340   7.423   2.401  14.357  0.7815 -0.3553 -2.6675
   57DOPE  C315 7341   7.549   2.418  14.537 -0.4740  0.1272  0.2467
   57DOPE  H15X 7342   7.477   2.353  14.592  0.3389 -1.6461 -0.6827
   57DOPE  H15Y 7343   7.529   2.527  14.547 -0.7562  0.1172 -0.1765
   57DOPE  C316 7344   7.693   2.394  14.584 -0.4259 -0.5384 -0.0587
   57DOPE  H16X 7345   7.771   2.431  14.513 -1.2558 -0.0118 -0.7113
   57DOPE  H16Y 7346   7.707   2.284  14.592  0.2439 -0.3557  1.6502
   57DOPE  C317 7347   7.732   2.463  14.715  0.2667  0.4762  0.4123
   57DOPE  H17X 7348   7.734   2.574  14.707 -1.5301  0.4840 -0.6030
   57DOPE  H17Y 7349   7.655   2.443  14.793  0.7659 -3.5722  0.0737
   57DOPE  C318 7350   7.874   2.422  14.749  0.3003  0.8792 -0.2964
   57DOPE  H18X 7351   7.870   2.312  14.760 -0.0330  0.8823 -0.3681
   57DOPE  H18Y 7352   7.941   2.459  14.668  0.9033 -0.7837 -0.5912
   57DOPE  H18Z 7353   7.911   2.468  14.844  1.5220  0.8186 -0.7327
   58DOPE     N 7354   0.164   6.073  12.633  0.0117 -0.7443 -0.0340
   58DOPE   HN1 7355   0.183   6.043  12.535  0.2246  0.5760 -0.4149
   58DOPE   HN2 7356   0.091   6.146  12.621  0.7612 -0.0396 -0.4027
   58DOPE   HN3 7357   0.246   6.115  12.682 -0.0453  0.9674 -1.3182
   58DOPE   C12 7358   0.114   5.956  12.712  0.6928 -0.2939  0.1033
   58DOPE  H12A 7359   0.049   5.899  12.642  1.1996 -1.0903  0.2682
   58DOPE  H12B 7360   0.061   6.000  12.799  2.3308  0.3634  0.8166
   58DOPE   C11 7361   0.233   5.874  12.773  0.4354 -0.4029  0.5359
   58DOPE  H11A 7362   0.178   5.785  12.811 -0.7566  0.4283  0.8035
   58DOPE  H11B 7363   0.269   5.925  12.865  1.1619 -1.0501  0.6181
   58DOPE     P 7364   0.474   5.914  12.682  0.0264  0.4056  0.3968
   58DOPE   O13 7365   0.445   6.057  12.704 -0.1149 -0.4494 -0.2326
   58DOPE   O14 7366   0.545   5.872  12.558  0.2132 -0.0911 -0.5682
   58DOPE   O11 7367   0.534   5.861  12.815  0.0221 -0.5300  0.5046
   58DOPE   O12 7368   0.335   5.835  12.681  0.1704 -0.6074  0.2746
   58DOPE    C1 7369   0.546   5.726  12.846 -0.2100  0.1753 -0.1292
   58DOPE    HA 7370   0.626   5.680  12.785  0.8539 -0.6428  1.8115
   58DOPE    HB 7371   0.459   5.661  12.822  0.4846 -1.2205  0.9799
   58DOPE    C2 7372   0.588   5.711  12.991  0.5154  0.1916  0.1878
   58DOPE    HS 7373   0.596   5.604  13.022  3.2683  0.4733  0.7274
   58DOPE   O21 7374   0.498   5.783  13.083 -0.5514  0.1581 -0.7314
   58DOPE   C21 7375   0.371   5.756  13.088 -0.4332 -0.2056 -0.0620
   58DOPE   O22 7376   0.319   5.658  13.037 -0.5463 -0.0576 -0.1084
   58DOPE   C22 7377   0.298   5.863  13.156  0.0283  0.7853  0.1042
   58DOPE   H2R 7378   0.322   5.965  13.121 -1.2097  0.6346 -1.2654
   58DOPE   H2S 7379   0.340   5.884  13.257  0.5267  0.4445 -0.0253
   58DOPE    C3 7380   0.725   5.774  13.016  0.3945 -0.0641 -0.1926
   58DOPE    HX 7381   0.728   5.883  12.997 -0.4267  0.0005  0.0321
   58DOPE    HY 7382   0.802   5.734  12.946 -0.2237 -2.0863  0.2018
   58DOPE   O31 7383   0.756   5.752  13.150  0.1592  0.3843  0.0831
   58DOPE   C31 7384   0.818   5.640  13.183 -0.5454 -0.4160 -0.1390
   58DOPE   O32 7385   0.869   5.562  13.103  0.4584  0.3803 -0.1349
   58DOPE   C32 7386   0.823   5.634  13.334 -0.2401 -0.3504  0.3937
   58DOPE   H2X 7387   0.840   5.731  13.387 -0.9195 -1.5988  3.0817
   58DOPE   H2Y 7388   0.717   5.612  13.359 -0.7126  0.4980 -0.7879
   58DOPE   C23 7389   0.146   5.840  13.161  0.3885  0.0793 -0.5755
   58DOPE   H3R 7390   0.117   5.741  13.201 -0.3753  0.8738  0.9223
   58DOPE   H3S 7391   0.100   5.835  13.060  0.6078 -1.1504 -0.6265
   58DOPE   C24 7392   0.075   5.951  13.230 -0.2323  0.2951  0.1566
   58DOPE   H4R 7393   0.102   5.959  13.338 -1.0293 -1.7497  0.5522
   58DOPE   H4S 7394  -0.036   5.945  13.238 -0.0949 -0.8624  1.9122
   58DOPE   C25 7395   0.097   6.092  13.163  0.1244 -0.8743 -0.3477
   58DOPE   H5R 7396   0.076   6.092  13.054 -0.0183  0.2213 -0.3301
   58DOPE   H5S 7397   0.201   6.130  13.175 -0.6973  0.7140  3.2360
   58DOPE   C26 7398   0.014   6.209  13.224  0.4013  0.8568 -0.5365
   58DOPE   H6R 7399   0.036   6.198  13.332  3.2201  0.9990 -1.0270
   58DOPE   H6S 7400  -0.096   6.205  13.204  0.3264 -0.2373  0.0310
   58DOPE   C27 7401   0.067   6.350  13.190 -1.2097 -0.1498  0.7052
   58DOPE   H7R 7402   0.065   6.356  13.079  0.1624  2.5713  0.7571
   58DOPE   H7S 7403   0.172   6.358  13.226 -0.4296 -2.0336 -0.9226
   58DOPE   C28 7404  -0.030   6.468  13.234 -0.3802  0.5823  0.4110
   58DOPE   H8R 7405  -0.070   6.454  13.337  0.8123  0.4001  0.8627
   58DOPE   H8S 7406  -0.112   6.450  13.161  0.5193 -0.9150 -0.2636
   58DOPE   C29 7407   0.037   6.603  13.212  0.2694  0.2160  1.5365
   58DOPE   H9R 7408   0.074   6.628  13.111 -0.1155  1.9318  1.7886
   58DOPE  C210 7409   0.048   6.702  13.294  0.5063  0.3130 -0.0100
   58DOPE  H10R 7410   0.099   6.790  13.252  0.0822  0.0963 -0.9928
   58DOPE  C211 7411   0.011   6.706  13.443  0.5805 -0.2648 -0.4525
   58DOPE  H11R 7412   0.086   6.652  13.504 -0.0432  0.7048  1.2515
   58DOPE  H11S 7413  -0.088   6.659  13.462  1.5779 -3.9233 -3.2795
   58DOPE  C212 7414   0.004   6.844  13.494 -0.4320 -0.0220  0.0973
   58DOPE  H12R 7415  -0.042   6.914  13.421  0.2358 -0.4081 -0.7065
   58DOPE  H12S 7416   0.106   6.885  13.508 -0.4196 -0.0886  0.2059
   58DOPE  C213 7417  -0.066   6.860  13.630 -0.1945 -0.1227 -0.2961
   58DOPE  H13R 7418  -0.172   6.830  13.626 -0.1293 -0.3231 -0.5600
   58DOPE  H13S 7419  -0.063   6.969  13.652  0.6923  0.2483 -2.0615
   58DOPE  C214 7420   0.005   6.785  13.744  0.0960 -0.1519  0.5189
   58DOPE  H14R 7421   0.014   6.678  13.713 -0.9265 -0.6397  1.8145
   58DOPE  H14S 7422  -0.047   6.793  13.842 -0.9303  1.4700 -0.1155
   58DOPE  C215 7423   0.156   6.823  13.766 -0.4457 -0.3280 -0.4495
   58DOPE  H15R 7424   0.174   6.925  13.804  1.4985 -1.1622  1.0491
   58DOPE  H15S 7425   0.209   6.806  13.670 -1.1138 -0.7958 -0.7504
   58DOPE  C216 7426   0.213   6.735  13.879  0.0988 -0.2855  0.3237
   58DOPE  H16R 7427   0.209   6.625  13.860  2.7291 -1.0069  3.1382
   58DOPE  H16S 7428   0.150   6.749  13.970  0.2914 -0.5267  0.4988
   58DOPE  C217 7429   0.362   6.770  13.909  0.4863 -0.4380  0.6434
   58DOPE  H17R 7430   0.361   6.879  13.931 -0.0560 -0.3275  0.0831
   58DOPE  H17S 7431   0.435   6.757  13.827  0.0975 -0.9348  0.3761
   58DOPE  C218 7432   0.421   6.699  14.031  0.2476  0.2711 -0.0415
   58DOPE  H18R 7433   0.382   6.740  14.127 -0.2736  0.4004 -0.3092
   58DOPE  H18S 7434   0.532   6.700  14.025  0.3968 -4.1253 -2.1094
   58DOPE  H18T 7435   0.398   6.590  14.019 -0.8086  0.3575  1.0416
   58DOPE   C33 7436   0.915   5.528  13.389 -0.0979 -0.1824  0.0722
   58DOPE   H3X 7437   1.009   5.549  13.333 -1.6557  0.0912 -2.6583
   58DOPE   H3Y 7438   0.863   5.431  13.375  0.0875  0.0393 -2.8027
   58DOPE   C34 7439   0.948   5.537  13.537 -0.7535 -0.8577  0.1526
   58DOPE   H4X 7440   0.987   5.641  13.549  0.4213 -1.1400 -1.0127
   58DOPE   H4Y 7441   0.858   5.540  13.601  0.7752  2.5311  2.4970
   58DOPE   C35 7442   1.050   5.432  13.594 -0.2703  0.3876  0.3550
   58DOPE   H5X 7443   1.149   5.449  13.547 -0.1130 -0.2913  0.4248
   58DOPE   H5Y 7444   1.010   5.331  13.571 -0.0631  0.5764 -0.8924
   58DOPE   C36 7445   1.064   5.439  13.747 -0.2467  0.4633 -0.2431
   58DOPE   H6X 7446   1.148   5.370  13.770 -0.3788 -0.1629 -1.5532
   58DOPE   H6Y 7447   0.974   5.409  13.806  0.2543 -0.5694  0.0187
   58DOPE   C37 7448   1.096   5.578  13.806 -1.2743  0.3100  0.2837
   58DOPE   H7X 7449   1.169   5.622  13.735  0.0298 -0.5826  1.0273
   58DOPE   H7Y 7450   1.004   5.639  13.817 -0.1268  2.8277 -2.6981
   58DOPE   C38 7451   1.147   5.560  13.947  0.5084 -0.2295  0.3334
   58DOPE   H8X 7452   1.220   5.477  13.957 -0.9243 -1.4790  0.7142
   58DOPE   H8Y 7453   1.058   5.540  14.011  0.6729  0.1315  0.6776
   58DOPE   C39 7454   1.230   5.672  14.004  0.8957 -0.2867 -0.2710
   58DOPE   H9X 7455   1.339   5.658  13.998  0.8477 -0.7680 -0.0383
   58DOPE  C310 7456   1.186   5.775  14.076  0.0076 -0.7360  0.2736
   58DOPE  H10X 7457   1.254   5.837  14.136 -2.1523  3.2542 -1.0294
   58DOPE  C311 7458   1.040   5.808  14.085  0.8310 -0.4152  0.1884
   58DOPE  H11X 7459   0.996   5.791  13.984  0.4772 -0.1536  0.2947
   58DOPE  H11Y 7460   0.992   5.740  14.160  0.5438  1.0062  1.3332
   58DOPE  C312 7461   1.014   5.960  14.108 -0.4630 -0.2115  0.3056
   58DOPE  H12X 7462   0.904   5.954  14.115 -0.5189 -1.4843 -1.0296
   58DOPE  H12Y 7463   1.039   6.020  14.018 -2.5168  0.4867  0.1623
   58DOPE  C313 7464   1.072   6.021  14.244 -0.1563  0.3536  0.1159
   58DOPE  H13X 7465   1.013   5.969  14.323 -0.5384 -2.3108 -1.7615
   58DOPE  H13Y 7466   1.178   5.993  14.263  0.6619  4.1558  2.1434
   58DOPE  C314 7467   1.067   6.171  14.234 -0.1112  0.1168  0.3706
   58DOPE  H14X 7468   0.968   6.185  14.185 -0.3865 -0.9355  0.5886
   58DOPE  H14Y 7469   1.147   6.206  14.166  0.1211  0.3469  0.7636
   58DOPE  C315 7470   1.074   6.253  14.374  0.3561  0.5761 -0.0092
   58DOPE  H15X 7471   1.175   6.217  14.405 -0.8268 -2.6038  0.5436
   58DOPE  H15Y 7472   1.013   6.221  14.461  0.8359 -2.0562 -0.5564
   58DOPE  C316 7473   1.061   6.407  14.362  0.3453 -0.7000  0.4364
   58DOPE  H16X 7474   0.960   6.444  14.336  1.8468  3.6053 -0.0679
   58DOPE  H16Y 7475   1.120   6.443  14.275 -1.7423  0.1473 -0.6959
   58DOPE  C317 7476   1.086   6.497  14.480  0.0191 -0.4348  0.6303
   58DOPE  H17X 7477   1.075   6.603  14.449 -1.4349 -0.2689  1.6274
   58DOPE  H17Y 7478   1.010   6.482  14.560 -1.6848 -2.3125 -1.2191
   58DOPE  C318 7479   1.220   6.477  14.558 -0.1466 -0.0498  0.5484
   58DOPE  H18X 7480   1.203   6.380  14.610  2.3227  0.3417  2.2533
   58DOPE  H18Y 7481   1.307   6.460  14.490  0.4111  2.0654  0.6878
   58DOPE  H18Z 7482   1.236   6.558  14.631  2.2499  0.1573 -0.0925
   59DOPE     N 7483   6.947   0.386  12.498 -0.4033 -0.3272 -0.2023
   59DOPE   HN1 7484   7.035   0.339  12.526  0.1244  0.6969 -0.0787
   59DOPE   HN2 7485   6.884   0.322  12.447  0.3985 -1.2999  0.0138
   59DOPE   HN3 7486   6.980   0.474  12.452  1.1215 -1.0602 -0.5705
   59DOPE   C12 7487   6.871   0.435  12.617 -0.4162  0.0735 -0.1360
   59DOPE  H12A 7488   6.885   0.359  12.697  0.8046  1.1890  0.7575
   59DOPE  H12B 7489   6.763   0.443  12.592 -0.7978 -0.9522  1.1174
   59DOPE   C11 7490   6.934   0.562  12.677 -0.0273 -0.8497 -0.4789
   59DOPE  H11A 7491   6.890   0.569  12.779 -1.3710  1.1969 -1.1283
   59DOPE  H11B 7492   6.897   0.650  12.620 -0.1580 -0.2225  0.5473
   59DOPE     P 7493   7.171   0.497  12.763 -0.1683  0.2911 -0.3616
   59DOPE   O13 7494   7.309   0.547  12.728 -0.3019  0.4301 -0.2979
   59DOPE   O14 7495   7.133   0.353  12.751  0.0902 -0.6100  0.0613
   59DOPE   O11 7496   7.125   0.556  12.903  0.4703 -0.2363  0.0546
   59DOPE   O12 7497   7.076   0.575  12.669 -0.2418 -0.0700 -0.4043
   59DOPE    C1 7498   7.099   0.693  12.933 -0.1123  0.3501  0.5332
   59DOPE    HA 7499   7.002   0.716  12.982  1.6359  0.8644  4.0836
   59DOPE    HB 7500   7.117   0.760  12.846 -2.7638 -0.4526 -0.7265
   59DOPE    C2 7501   7.190   0.732  13.050  0.0690  0.3031  0.9762
   59DOPE    HS 7502   7.180   0.842  13.062 -2.7129 -0.0129  2.1357
   59DOPE   O21 7503   7.315   0.680  13.025 -0.1185 -0.1962  0.2834
   59DOPE   C21 7504   7.392   0.752  12.943  0.4164  0.8965 -0.2681
   59DOPE   O22 7505   7.362   0.861  12.899 -0.1206  0.1085 -0.2084
   59DOPE   C22 7506   7.523   0.673  12.926  0.7031  0.0494  0.0957
   59DOPE   H2R 7507   7.485   0.570  12.904  0.2832  0.8399 -3.5357
   59DOPE   H2S 7508   7.582   0.678  13.020  1.5968 -0.5222 -0.4214
   59DOPE    C3 7509   7.147   0.675  13.178  0.3276  0.3625 -0.2136
   59DOPE    HX 7510   7.136   0.566  13.156  0.7876  0.3434 -0.3563
   59DOPE    HY 7511   7.042   0.707  13.192 -0.4913 -0.3582 -3.7765
   59DOPE   O31 7512   7.245   0.692  13.289  0.7120  0.2573  0.2990
   59DOPE   C31 7513   7.217   0.805  13.357 -0.2448 -0.3550 -0.2467
   59DOPE   O32 7514   7.144   0.892  13.312 -0.2128  0.0666 -0.2163
   59DOPE   C32 7515   7.303   0.826  13.479  0.2756 -0.2181 -0.0717
   59DOPE   H2X 7516   7.357   0.732  13.502 -1.7711 -1.3130  0.4815
   59DOPE   H2Y 7517   7.379   0.904  13.454 -0.8066  1.1678  0.7890
   59DOPE   C23 7518   7.626   0.718  12.817 -0.0005  0.2396 -0.6835
   59DOPE   H3R 7519   7.591   0.772  12.727  0.7896  1.6856 -0.1441
   59DOPE   H3S 7520   7.682   0.632  12.774  0.1669 -1.8542  3.2008
   59DOPE   C24 7521   7.738   0.810  12.870  0.0753  0.3043  0.6440
   59DOPE   H4R 7522   7.775   0.784  12.972  0.6966  1.1483  0.6437
   59DOPE   H4S 7523   7.690   0.910  12.870  0.0680  0.3014  0.4941
   59DOPE   C25 7524   7.852   0.827  12.767 -0.2219 -1.0301  0.5064
   59DOPE   H5R 7525   7.811   0.860  12.669  1.4772 -1.0249 -0.2323
   59DOPE   H5S 7526   7.915   0.736  12.759  0.5506 -0.7670  3.0418
   59DOPE   C26 7527   7.953   0.938  12.810 -0.2924  0.2672  0.9122
   59DOPE   H6R 7528   8.023   0.894  12.885 -0.5731  0.8634  1.5335
   59DOPE   H6S 7529   7.897   1.021  12.857 -2.3628 -1.0768  0.9525
   59DOPE   C27 7530   8.029   0.986  12.682  0.1313  0.3441 -0.1297
   59DOPE   H7R 7531   7.950   1.017  12.610 -0.4942 -0.9852 -0.0408
   59DOPE   H7S 7532   8.082   0.900  12.636  2.5081  0.3518  2.3551
   59DOPE   C28 7533   8.133   1.091  12.699 -0.8374 -0.0471  0.2522
   59DOPE   H8R 7534   8.196   1.088  12.608  0.4386  0.4327  1.0912
   59DOPE   H8S 7535   8.195   1.059  12.785 -0.5978 -0.2928 -0.0092
   59DOPE   C29 7536   8.069   1.226  12.714 -0.0850 -0.1754  0.3828
   59DOPE   H9R 7537   8.067   1.288  12.623  0.2091 -0.2498  0.3235
   59DOPE  C210 7538   8.036   1.288  12.825  0.1546 -0.1894  0.1282
   59DOPE  H10R 7539   7.998   1.389  12.804  0.9099  0.3088  1.0726
   59DOPE  C211 7540   8.037   1.238  12.962 -0.6842  0.4396 -0.8091
   59DOPE  H11R 7541   8.068   1.131  12.972 -2.9802 -0.3283 -1.1854
   59DOPE  H11S 7542   7.929   1.230  12.984  0.0059 -0.0736  3.1972
   59DOPE  C212 7543   8.097   1.329  13.073 -0.1051 -0.1560 -0.7213
   59DOPE  H12R 7544   8.046   1.428  13.067 -3.4703 -1.7973 -1.3822
   59DOPE  H12S 7545   8.206   1.332  13.051  0.3338  0.3516  1.3028
   59DOPE  C213 7546   8.086   1.259  13.211 -0.2357 -0.0550  0.0917
   59DOPE  H13R 7547   7.983   1.218  13.218 -0.3824  0.3455  0.3155
   59DOPE  H13S 7548   8.091   1.337  13.290 -1.2936  0.1845 -0.0684
   59DOPE  C214 7549   8.196   1.155  13.247 -0.4655  0.5241 -0.6304
   59DOPE  H14R 7550   8.303   1.184  13.235  0.2329 -1.7307 -0.3963
   59DOPE  H14S 7551   8.199   1.071  13.175 -1.3488 -0.7982  0.8090
   59DOPE  C215 7552   8.173   1.091  13.383  0.1399 -0.4115  0.0187
   59DOPE  H15R 7553   8.236   1.001  13.402  2.2010  1.1888  1.1456
   59DOPE  H15S 7554   8.067   1.055  13.386  0.5319 -1.6454 -0.3027
   59DOPE  C216 7555   8.203   1.173  13.504  0.3034  0.0115 -0.2138
   59DOPE  H16R 7556   8.155   1.128  13.594 -0.7249  0.7002 -0.4018
   59DOPE  H16S 7557   8.141   1.265  13.494 -3.4832 -2.4679 -1.9816
   59DOPE  C217 7558   8.356   1.192  13.522 -0.0744 -0.1049  0.5734
   59DOPE  H17R 7559   8.388   1.243  13.429 -2.9549 -2.1756 -1.7509
   59DOPE  H17S 7560   8.397   1.088  13.524  0.6150  0.0215 -2.3279
   59DOPE  C218 7561   8.378   1.287  13.640  0.0772 -0.3451  0.2743
   59DOPE  H18R 7562   8.484   1.323  13.639  0.4600 -1.3696 -1.9307
   59DOPE  H18S 7563   8.356   1.236  13.736  1.0500 -0.6312  0.3557
   59DOPE  H18T 7564   8.318   1.380  13.645 -0.3449 -0.6955  2.9806
   59DOPE   C33 7565   7.216   0.874  13.600  0.4973  0.1510  0.5278
   59DOPE   H3X 7566   7.138   0.796  13.612  0.9715 -0.4756 -0.3784
   59DOPE   H3Y 7567   7.169   0.967  13.563 -0.9925 -0.4324  0.8595
   59DOPE   C34 7568   7.290   0.903  13.731  0.1205 -0.8207 -0.8577
   59DOPE   H4X 7569   7.376   0.970  13.707 -0.4463  1.3165  2.4529
   59DOPE   H4Y 7570   7.229   0.956  13.806  2.0813  0.0256  0.2123
   59DOPE   C35 7571   7.354   0.783  13.813 -0.0107 -0.2462  0.5904
   59DOPE   H5X 7572   7.421   0.733  13.739  0.0865  0.4824  0.1781
   59DOPE   H5Y 7573   7.282   0.709  13.854 -0.6770 -0.6791 -1.2525
   59DOPE   C36 7574   7.436   0.837  13.934  0.1089 -0.4099  0.1026
   59DOPE   H6X 7575   7.381   0.895  14.011 -2.0071  1.2371 -2.4819
   59DOPE   H6Y 7576   7.517   0.897  13.886 -0.4043 -0.5805 -1.0271
   59DOPE   C37 7577   7.511   0.720  14.001 -0.0073  0.4646 -0.6283
   59DOPE   H7X 7578   7.435   0.639  14.007  1.0721 -0.6028 -1.0238
   59DOPE   H7Y 7579   7.583   0.671  13.933 -2.1455 -4.5832  0.2745
   59DOPE   C38 7580   7.586   0.765  14.125  0.4785  0.8144 -0.1873
   59DOPE   H8X 7581   7.511   0.810  14.194  0.2468 -1.5171  1.1959
   59DOPE   H8Y 7582   7.652   0.846  14.088  1.0909 -0.5208 -2.1741
   59DOPE   C39 7583   7.659   0.650  14.194 -0.0859 -0.1630  0.3980
   59DOPE   H9X 7584   7.596   0.574  14.243  0.7878 -0.7820  0.5832
   59DOPE  C310 7585   7.785   0.657  14.236  0.3411 -0.8473 -0.3259
   59DOPE  H10X 7586   7.826   0.568  14.287 -1.5134 -2.0080 -0.7306
   59DOPE  C311 7587   7.881   0.773  14.226 -0.2529 -0.0298  0.5481
   59DOPE  H11X 7588   7.988   0.741  14.225 -0.3170 -0.2361  0.3488
   59DOPE  H11Y 7589   7.867   0.831  14.132  0.0034  0.1709  0.6317
   59DOPE  C312 7590   7.861   0.875  14.340 -0.2270  0.5255  0.5376
   59DOPE  H12X 7591   7.929   0.825  14.412  1.8871  0.7106 -1.2509
   59DOPE  H12Y 7592   7.756   0.875  14.379 -0.9171  1.0033 -1.2156
   59DOPE  C313 7593   7.917   1.013  14.310  0.5520  0.3737 -0.2143
   59DOPE  H13X 7594   8.025   1.005  14.286  0.1136 -2.1020 -1.6226
   59DOPE  H13Y 7595   7.871   1.046  14.215  1.5568  0.4039 -0.7125
   59DOPE  C314 7596   7.898   1.103  14.432  0.1825 -0.7212  0.0066
   59DOPE  H14X 7597   7.960   1.071  14.518 -0.1973 -0.9737  0.1906
   59DOPE  H14Y 7598   7.790   1.122  14.451  0.1541  0.5226 -1.2297
   59DOPE  C315 7599   7.944   1.241  14.393 -0.0142 -0.6517  0.3767
   59DOPE  H15X 7600   7.944   1.254  14.283  1.3008  2.5703  0.6304
   59DOPE  H15Y 7601   8.047   1.256  14.433  1.3414 -2.4497 -2.1084
   59DOPE  C316 7602   7.857   1.358  14.456  0.4558  0.5533  0.0659
   59DOPE  H16X 7603   7.759   1.346  14.404 -1.1930  3.6952  2.1431
   59DOPE  H16Y 7604   7.904   1.455  14.429 -1.6745  1.4656 -0.5253
   59DOPE  C317 7605   7.849   1.356  14.612  0.1217 -0.0865 -0.0477
   59DOPE  H17X 7606   7.826   1.256  14.654 -0.0467 -0.1649 -0.3232
   59DOPE  H17Y 7607   7.949   1.381  14.653 -0.0439  0.4054  0.0636
   59DOPE  C318 7608   7.762   1.464  14.678 -0.0515 -0.0545  1.0941
   59DOPE  H18X 7609   7.653   1.457  14.656  0.0225  1.9615 -0.1746
   59DOPE  H18Y 7610   7.773   1.452  14.787 -1.2437 -0.1095  1.2208
   59DOPE  H18Z 7611   7.800   1.560  14.636  0.5213  0.0600  1.8500
   60DOPE     N 7612   1.218   6.961  12.653 -0.0217  0.3797 -0.5652
   60DOPE   HN1 7613   1.135   6.987  12.596 -0.2759  0.4874 -0.1520
   60DOPE   HN2 7614   1.282   7.042  12.640  1.8662 -0.6642  1.5671
   60DOPE   HN3 7615   1.268   6.882  12.609 -1.5386 -0.4821 -0.8091
   60DOPE   C12 7616   1.178   6.936  12.796  0.4182 -0.0009 -0.0980
   60DOPE  H12A 7617   1.143   7.031  12.842 -1.6941  0.5352 -2.5773
   60DOPE  H12B 7618   1.268   6.904  12.853 -0.6227 -0.6838  1.2073
   60DOPE   C11 7619   1.079   6.823  12.809 -0.6542  0.6398  0.9994
   60DOPE  H11A 7620   1.049   6.818  12.916 -2.4062  1.8300  0.5968
   60DOPE  H11B 7621   1.120   6.724  12.781 -0.8859  0.8870 -0.2769
   60DOPE     P 7622   0.877   6.727  12.646  0.0448 -0.0961  0.3907
   60DOPE   O13 7623   0.977   6.652  12.569 -0.3842 -0.4870  0.4481
   60DOPE   O14 7624   0.760   6.780  12.575  0.0780  0.4043 -0.4548
   60DOPE   O11 7625   0.830   6.635  12.764  0.4725 -0.0304 -0.6482
   60DOPE   O12 7626   0.954   6.838  12.737  0.2876 -0.1575  0.1657
   60DOPE    C1 7627   0.751   6.520  12.744 -0.0051  0.4145  0.7711
   60DOPE    HA 7628   0.794   6.446  12.815 -4.0425 -2.3504  0.6144
   60DOPE    HB 7629   0.768   6.475  12.644 -1.8614  0.4029  0.4219
   60DOPE    C2 7630   0.602   6.539  12.774 -0.4038 -0.0624  0.5923
   60DOPE    HS 7631   0.562   6.614  12.702 -0.4938  0.9988  1.7053
   60DOPE   O21 7632   0.587   6.585  12.913 -0.3276  0.2993  0.3944
   60DOPE   C21 7633   0.478   6.655  12.944 -0.4705  0.5034  0.1806
   60DOPE   O22 7634   0.375   6.651  12.875  0.5499  0.2041  0.0879
   60DOPE   C22 7635   0.504   6.739  13.074 -0.2565 -0.1049  0.4971
   60DOPE   H2R 7636   0.474   6.845  13.055 -0.8684  0.0015  1.9181
   60DOPE   H2S 7637   0.613   6.735  13.094 -0.2387 -1.2758  0.2112
   60DOPE    C3 7638   0.539   6.404  12.744  0.5526  0.5472 -0.5853
   60DOPE    HX 7639   0.550   6.387  12.635 -2.1745 -2.1227 -0.6036
   60DOPE    HY 7640   0.428   6.415  12.747  0.7520  2.8320  0.1943
   60DOPE   O31 7641   0.592   6.294  12.825  0.5264  0.0787 -0.4227
   60DOPE   C31 7642   0.530   6.276  12.935 -0.2643 -0.3580  0.1885
   60DOPE   O32 7643   0.425   6.328  12.966 -0.4019  0.2868  0.1965
   60DOPE   C32 7644   0.600   6.166  13.015 -0.4693 -0.6956  0.1778
   60DOPE   H2X 7645   0.544   6.071  13.005  0.3150 -1.0973 -0.5207
   60DOPE   H2Y 7646   0.704   6.155  12.978 -0.3768 -2.8266  0.9535
   60DOPE   C23 7647   0.432   6.695  13.199 -0.3497  0.3377 -0.2421
   60DOPE   H3R 7648   0.433   6.584  13.190 -0.7052  0.4020 -1.2116
   60DOPE   H3S 7649   0.323   6.713  13.193 -0.5326 -0.4232  0.5760
   60DOPE   C24 7650   0.490   6.757  13.321  0.3463 -0.3632 -0.5750
   60DOPE   H4R 7651   0.496   6.868  13.314  0.1052 -0.4274 -2.1295
   60DOPE   H4S 7652   0.598   6.732  13.327  0.4796  0.3491  0.1776
   60DOPE   C25 7653   0.427   6.713  13.453  0.0601 -0.1058  0.0494
   60DOPE   H5R 7654   0.322   6.744  13.474 -0.1465 -1.7270  1.6378
   60DOPE   H5S 7655   0.477   6.763  13.538 -1.5945 -1.9777  2.2666
   60DOPE   C26 7656   0.437   6.566  13.488  0.2528 -0.0782  0.3148
   60DOPE   H6R 7657   0.542   6.529  13.495  0.3073  0.0498  0.1838
   60DOPE   H6S 7658   0.391   6.516  13.400 -0.5489 -0.2794  0.8396
   60DOPE   C27 7659   0.369   6.528  13.618  0.0181 -0.2852 -0.5830
   60DOPE   H7R 7660   0.261   6.554  13.628  0.2085  0.0403  0.7827
   60DOPE   H7S 7661   0.411   6.596  13.694  0.2799  0.1419 -1.1012
   60DOPE   C28 7662   0.382   6.377  13.650 -0.7654 -0.5748  0.2411
   60DOPE   H8R 7663   0.374   6.366  13.760  0.7312  3.0343  0.8551
   60DOPE   H8S 7664   0.486   6.339  13.640 -0.4885  0.2625 -0.0976
   60DOPE   C29 7665   0.285   6.295  13.571  0.2614 -0.5215 -0.0632
   60DOPE   H9R 7666   0.320   6.258  13.473  0.4856  3.0547 -1.4897
   60DOPE  C210 7667   0.154   6.275  13.600 -0.2457  0.6619  0.7593
   60DOPE  H10R 7668   0.087   6.231  13.523 -1.4360  1.4635  1.3004
   60DOPE  C211 7669   0.076   6.317  13.723 -0.6083 -0.1561 -0.0946
   60DOPE  H11R 7670  -0.027   6.343  13.689  0.9448  0.9679 -4.7441
   60DOPE  H11S 7671   0.125   6.395  13.785  0.9747 -1.4523  0.3418
   60DOPE  C212 7672   0.078   6.189  13.812  0.2427 -0.7092  0.2561
   60DOPE  H12R 7673   0.184   6.155  13.817  0.3168 -0.3879  0.8916
   60DOPE  H12S 7674   0.012   6.114  13.763  0.9729  0.0801 -2.0659
   60DOPE  C213 7675   0.050   6.213  13.962 -0.8683  0.0961  0.6128
   60DOPE  H13R 7676   0.106   6.302  13.998 -0.5040 -0.4361  1.3909
   60DOPE  H13S 7677   0.090   6.130  14.025 -0.0092 -1.3810 -1.7228
   60DOPE  C214 7678  -0.100   6.216  13.992 -0.1432  0.4145 -0.1723
   60DOPE  H14R 7679  -0.160   6.195  13.901  1.3463  1.6673 -1.5109
   60DOPE  H14S 7680  -0.125   6.321  14.017 -0.0447  1.0846 -2.6087
   60DOPE  C215 7681  -0.152   6.116  14.096 -0.6734 -0.4710  0.0980
   60DOPE  H15R 7682  -0.096   6.126  14.191  0.7236  1.8309 -0.8746
   60DOPE  H15S 7683  -0.151   6.011  14.060 -0.3549 -0.3454 -0.2688
   60DOPE  C216 7684  -0.303   6.156  14.134  0.5382 -0.1338  0.1348
   60DOPE  H16R 7685  -0.353   6.175  14.036 -0.4159 -0.9910  0.4326
   60DOPE  H16S 7686  -0.308   6.258  14.178  1.4192  0.1446 -0.3830
   60DOPE  C217 7687  -0.382   6.055  14.214 -0.1412 -0.2020  0.1890
   60DOPE  H17R 7688  -0.330   6.020  14.306  0.8587  1.0579  0.1372
   60DOPE  H17S 7689  -0.385   5.965  14.150 -2.7182  0.4673 -0.7425
   60DOPE  C218 7690  -0.531   6.099  14.237  0.6624  0.6666 -0.3210
   60DOPE  H18R 7691  -0.584   6.098  14.140  0.2252  0.5054 -0.0813
   60DOPE  H18S 7692  -0.543   6.195  14.292 -0.7371 -0.0561  0.7077
   60DOPE  H18T 7693  -0.585   6.026  14.301  1.4461  0.1200 -0.2741
   60DOPE   C33 7694   0.601   6.202  13.167  0.1258  0.0373 -0.0832
   60DOPE   H3X 7695   0.496   6.224  13.196  0.2122  0.4467 -0.0776
   60DOPE   H3Y 7696   0.652   6.299  13.183 -1.1601  0.8922 -1.0290
   60DOPE   C34 7697   0.647   6.092  13.265  0.6033 -0.3055  0.1624
   60DOPE   H4X 7698   0.625   5.989  13.228 -2.4806  0.2512  0.1867
   60DOPE   H4Y 7699   0.758   6.089  13.273  0.5129 -1.8549  1.4099
   60DOPE   C35 7700   0.585   6.113  13.408  0.1591  0.3392 -0.6963
   60DOPE   H5X 7701   0.475   6.097  13.405  0.3209 -1.9296  1.8205
   60DOPE   H5Y 7702   0.618   6.215  13.438  0.1933 -0.1287  0.9647
   60DOPE   C36 7703   0.640   6.015  13.515  0.4402  0.8293 -0.1140
   60DOPE   H6X 7704   0.749   6.002  13.500  0.6756 -1.7864  2.8433
   60DOPE   H6Y 7705   0.577   5.924  13.507  1.8894 -0.2552  0.5084
   60DOPE   C37 7706   0.636   6.067  13.663  0.6289  0.2086 -0.0450
   60DOPE   H7X 7707   0.695   6.161  13.661  2.2256 -0.6671 -3.9933
   60DOPE   H7Y 7708   0.528   6.092  13.676 -0.3871 -1.0757 -4.3264
   60DOPE   C38 7709   0.689   5.975  13.773  0.3500 -0.6508  0.0312
   60DOPE   H8X 7710   0.692   6.036  13.866  0.9712 -1.3695  0.4906
   60DOPE   H8Y 7711   0.783   5.936  13.729 -0.4145 -0.2988 -2.0094
   60DOPE   C39 7712   0.607   5.851  13.796  0.2122 -0.0866 -0.0121
   60DOPE   H9X 7713   0.643   5.768  13.734 -0.4985 -0.4060 -0.0038
   60DOPE  C310 7714   0.524   5.823  13.899  0.3665  0.1075 -0.0255
   60DOPE  H10X 7715   0.479   5.724  13.888  0.1469  0.4660 -4.0626
   60DOPE  C311 7716   0.496   5.907  14.020 -0.0428 -0.2101  0.2183
   60DOPE  H11X 7717   0.474   6.011  13.991  0.2001  0.4031  2.1131
   60DOPE  H11Y 7718   0.405   5.875  14.076  0.1362 -1.7476 -0.3115
   60DOPE  C312 7719   0.615   5.922  14.120  0.3537 -0.8881  0.4597
   60DOPE  H12X 7720   0.691   5.993  14.079 -2.6194  1.5096 -1.3729
   60DOPE  H12Y 7721   0.662   5.825  14.148  2.3907 -0.4622 -1.2115
   60DOPE  C313 7722   0.567   6.001  14.242  0.0257  0.6911 -0.4547
   60DOPE  H13X 7723   0.504   6.090  14.221  0.3926  1.1536  0.3411
   60DOPE  H13Y 7724   0.497   5.936  14.299 -0.4508  2.2325  0.8050
   60DOPE  C314 7725   0.686   6.045  14.335  0.5825 -0.3029 -0.3185
   60DOPE  H14X 7726   0.754   6.108  14.275 -0.5887  0.6301 -0.7040
   60DOPE  H14Y 7727   0.744   5.958  14.372  0.0320 -0.4219  0.3051
   60DOPE  C315 7728   0.634   6.138  14.445  0.3673  0.6147 -0.1868
   60DOPE  H15X 7729   0.546   6.085  14.487 -0.0069  1.0039 -0.4729
   60DOPE  H15Y 7730   0.593   6.231  14.401 -2.6171 -0.4066  0.1992
   60DOPE  C316 7731   0.734   6.187  14.554  0.4515  0.6950 -0.0688
   60DOPE  H16X 7732   0.803   6.250  14.494  0.0940 -1.2069 -2.6753
   60DOPE  H16Y 7733   0.792   6.105  14.602  0.2865  1.7200  1.9900
   60DOPE  C317 7734   0.660   6.261  14.667 -0.4392 -0.4194  0.5351
   60DOPE  H17X 7735   0.584   6.329  14.621  1.7635  0.7192 -1.6411
   60DOPE  H17Y 7736   0.605   6.192  14.734  0.0380  1.4399  2.9956
   60DOPE  C318 7737   0.768   6.334  14.754 -0.0805  0.1316 -0.0484
   60DOPE  H18X 7738   0.795   6.434  14.713 -2.6093  0.6617 -0.5813
   60DOPE  H18Y 7739   0.718   6.354  14.851  0.6026  0.3173  0.2756
   60DOPE  H18Z 7740   0.861   6.273  14.765  0.0417  0.3660  0.2385
   6123SM     N 7741   3.491   5.257  15.913  0.2833  0.5767  0.1777
   6123SM   C15 7742   3.535   5.363  15.819 -0.8784  0.2843 -0.0510
   6123SM  H15A 7743   3.635   5.394  15.846 -0.4500 -0.9966 -0.0814
   6123SM  H15B 7744   3.472   5.450  15.808  1.9228  2.3867 -0.4985
   6123SM  H15C 7745   3.541   5.316  15.722 -0.7153 -2.2491  1.1000
   6123SM   C14 7746   3.505   5.316  16.051 -0.7652  0.0927  0.3008
   6123SM  H14A 7747   3.468   5.416  16.064 -0.5875  0.3239 -0.9216
   6123SM  H14B 7748   3.610   5.322  16.077 -0.5583 -1.1047 -0.1682
   6123SM  H14C 7749   3.465   5.251  16.128 -0.5530  0.1849  0.4913
   6123SM   C13 7750   3.348   5.217  15.890  0.0597 -0.4891  0.0501
   6123SM  H13A 7751   3.325   5.167  15.798  0.1860 -2.1465  0.8858
   6123SM  H13B 7752   3.286   5.305  15.894  1.2857  0.4170 -0.1525
   6123SM  H13C 7753   3.325   5.149  15.970  0.8660  0.8613  1.4932
   6123SM   C12 7754   3.574   5.129  15.901 -0.1437 -0.0680 -0.9688
   6123SM  H12A 7755   3.678   5.141  15.928 -0.6531 -1.0735  1.8198
   6123SM  H12B 7756   3.567   5.089  15.801 -0.6050  1.5040 -1.6047
   6123SM   C11 7757   3.533   5.016  16.004 -0.1380 -1.3735  0.0536
   6123SM  H11A 7758   3.587   4.920  15.989  1.3370 -0.3277 -1.8628
   6123SM  H11B 7759   3.426   5.004  15.979 -0.2841  0.8879 -0.6704
   6123SM     P 7760   3.669   5.035  16.219 -0.3048 -0.2383 -0.3726
   6123SM   O13 7761   3.790   5.082  16.153 -0.4200 -0.2642 -0.0618
   6123SM   O14 7762   3.648   5.088  16.356  0.1811  0.3426 -0.3671
   6123SM   O11 7763   3.676   4.874  16.216 -0.4156 -0.0756  0.1651
   6123SM   O12 7764   3.543   5.061  16.138  0.0019 -0.2198  0.1363
   6123SM   C1S 7765   3.575   4.785  16.266  0.1652  0.3141  0.1136
   6123SM   H1S 7766   3.489   4.850  16.292  1.5877  1.4412  2.4072
   6123SM   H1T 7767   3.615   4.738  16.358  2.0946 -0.8194 -1.2212
   6123SM    NF 7768   3.444   4.583  16.194  0.3165 -0.1277 -0.0775
   6123SM   HNF 7769   3.479   4.498  16.231  1.0476 -1.1760 -2.9388
   6123SM   C2S 7770   3.544   4.673  16.155 -1.0753 -0.4428  0.1283
   6123SM   H2S 7771   3.504   4.723  16.064  0.9913 -0.6296 -0.9226
   6123SM   C3S 7772   3.672   4.595  16.107 -0.4731  1.0168  0.7745
   6123SM   H3S 7773   3.707   4.534  16.193  1.3698  1.3887  0.3520
   6123SM    O3 7774   3.791   4.672  16.079 -0.6003 -0.1516  0.1066
   6123SM   HO3 7775   3.770   4.753  16.127  1.1150 -0.7129  1.9187
   6123SM   C4S 7776   3.626   4.506  15.990  0.2178 -0.1802 -0.7090
   6123SM   H4S 7777   3.564   4.424  16.030 -1.3132  1.6599  0.9094
   6123SM   C5S 7778   3.635   4.526  15.859  0.1147 -0.3720 -0.1141
   6123SM   H5S 7779   3.667   4.624  15.821 -4.3481  1.5480  0.4579
   6123SM   C6S 7780   3.572   4.445  15.745  0.4330  0.4650 -0.2756
   6123SM   H6S 7781   3.637   4.436  15.656  1.0673 -0.0929  0.2300
   6123SM   H6T 7782   3.471   4.485  15.720 -0.2758 -1.9464 -1.5638
   6123SM   C7S 7783   3.554   4.298  15.793  0.1095 -0.6027 -0.2958
   6123SM   H7S 7784   3.490   4.285  15.883 -0.3687  1.4519 -0.2991
   6123SM   H7T 7785   3.657   4.274  15.826  0.1297 -0.4212 -0.2299
   6123SM   C8S 7786   3.516   4.199  15.675 -0.5574  0.0423 -0.5355
   6123SM   H8S 7787   3.533   4.096  15.714  1.7244  0.0209 -1.4411
   6123SM   H8T 7788   3.586   4.218  15.591 -0.0451 -1.9386 -0.6175
   6123SM   C9S 7789   3.370   4.203  15.637 -0.4885 -0.8398  0.1570
   6123SM   H9S 7790   3.346   4.307  15.609 -1.8771 -0.6966  1.7337
   6123SM   H9T 7791   3.304   4.170  15.721  1.5210  1.1681  2.6842
   6123SM  C10S 7792   3.354   4.109  15.509  0.3712 -0.1503 -0.3455
   6123SM  H10S 7793   3.366   4.004  15.544  0.7368 -0.2542 -0.7728
   6123SM  H10T 7794   3.441   4.125  15.442  0.4042  2.3788  0.2148
   6123SM  C11S 7795   3.208   4.123  15.457  0.2089 -0.3592 -0.8822
   6123SM  H11S 7796   3.198   4.213  15.393 -3.0174 -0.1783 -0.2731
   6123SM  H11T 7797   3.133   4.112  15.538 -0.8421  0.1933 -1.7449
   6123SM  C12S 7798   3.179   4.012  15.349  0.0169  0.0036  0.2124
   6123SM  H12S 7799   3.159   3.914  15.398 -1.0734  0.0072 -0.1933
   6123SM  H12T 7800   3.279   4.003  15.301  1.6700 -1.5671  3.5651
   6123SM  C13S 7801   3.054   4.035  15.268  0.0704 -0.5941 -0.0614
   6123SM  H13S 7802   3.053   4.132  15.213 -0.4023 -0.0835  0.8379
   6123SM  H13T 7803   2.962   4.041  15.329 -1.7008  0.5249 -2.6495
   6123SM  C14S 7804   3.024   3.924  15.162 -0.4993 -0.8090  0.2664
   6123SM  H14S 7805   2.920   3.923  15.121 -0.7989 -0.3493  0.9810
   6123SM  H14T 7806   3.032   3.824  15.209 -1.1584 -1.0072 -0.0266
   6123SM  C15S 7807   3.124   3.903  15.052  0.1575 -0.2099 -0.6780
   6123SM  H15S 7808   3.221   3.878  15.101 -0.4418 -1.9281 -0.2841
   6123SM  H15T 7809   3.135   3.995  14.990 -1.1801 -0.4180 -1.2664
   6123SM  C16S 7810   3.103   3.780  14.966 -0.0110  0.4979 -0.7792
   6123SM  H16S 7811   3.077   3.699  15.037 -2.3049  2.0848  0.3295
   6123SM  H16T 7812   3.201   3.755  14.920 -0.6782 -2.1635 -0.9087
   6123SM  C17S 7813   3.003   3.809  14.848  0.7252 -0.4796 -0.0444
   6123SM  H17S 7814   3.033   3.910  14.813 -1.1502  0.2398  0.3291
   6123SM  H17T 7815   2.903   3.809  14.897  0.8481  0.5988  0.2239
   6123SM  C18S 7816   3.007   3.701  14.737  0.4075 -0.0696  0.3383
   6123SM  H18S 7817   2.931   3.719  14.658  1.0060 -1.2059 -0.5318
   6123SM  H18T 7818   2.993   3.601  14.783  0.3166 -0.8668 -1.3517
   6123SM  H18U 7819   3.107   3.702  14.689  0.5680  2.9928  0.5575
   6123SM   C1F 7820   3.316   4.620  16.197 -0.0745 -0.5211 -0.4440
   6123SM    OF 7821   3.295   4.728  16.147  0.2305 -0.3071 -0.0626
   6123SM   C2F 7822   3.214   4.529  16.251 -0.4601 -1.1054  0.4823
   6123SM   H2F 7823   3.218   4.533  16.362  2.7383 -1.6789  0.4791
   6123SM   H2G 7824   3.253   4.427  16.230 -1.2731 -1.4565  0.6397
   6123SM   C3F 7825   3.079   4.553  16.192 -0.1810 -0.0651  1.0672
   6123SM   H3F 7826   3.050   4.660  16.201  1.0182  0.3985 -0.1897
   6123SM   H3G 7827   3.012   4.490  16.254 -2.5764  0.0564 -1.1864
   6123SM   C4F 7828   3.056   4.508  16.044  0.3936 -0.5983 -0.6034
   6123SM   H4F 7829   3.148   4.526  15.984  1.4242  0.0378  1.1087
   6123SM   H4G 7830   2.977   4.568  15.993  0.2572 -0.8145 -0.6503
   6123SM   C5F 7831   3.010   4.361  16.024  0.2029  0.3397 -0.3561
   6123SM   H5F 7832   2.905   4.359  16.058  0.3686  1.6108  0.2994
   6123SM   H5G 7833   3.068   4.295  16.092 -0.2320  0.2896 -0.0303
   6123SM   C6F 7834   3.016   4.301  15.885 -0.4400  0.3377 -0.3727
   6123SM   H6F 7835   2.975   4.198  15.878  0.2024 -0.1124  1.7252
   6123SM   H6G 7836   3.123   4.288  15.857 -0.1111 -0.7419  1.2197
   6123SM   C7F 7837   2.938   4.377  15.779 -0.1394 -0.5230 -0.6041
   6123SM   H7F 7838   2.983   4.476  15.759  0.9836 -0.5048  1.6429
   6123SM   H7G 7839   2.837   4.390  15.824 -0.3827  1.4661 -1.6031
   6123SM   C8F 7840   2.921   4.303  15.645  0.5552  0.2355  0.3032
   6123SM   H8F 7841   2.880   4.201  15.663 -0.3016  1.0467  3.7890
   6123SM   H8G 7842   3.024   4.273  15.618  0.3270 -0.6262  0.3668
   6123SM   C9F 7843   2.835   4.382  15.533 -0.2245 -0.0000  0.1565
   6123SM   H9F 7844   2.863   4.490  15.540  2.0002 -0.5992  1.6612
   6123SM   H9G 7845   2.731   4.382  15.572 -0.6164  2.2450 -0.7055
   6123SM  C10F 7846   2.861   4.327  15.397  0.9395  0.3200  0.4810
   6123SM  H10F 7847   2.833   4.220  15.392 -2.9053  1.1752  0.8784
   6123SM  H10G 7848   2.970   4.337  15.375  0.8232  0.8791  0.1245
   6123SM  C11F 7849   2.770   4.394  15.290  0.3222 -0.0383  0.4759
   6123SM  H11F 7850   2.772   4.504  15.307  0.2901  0.0961 -0.3292
   6123SM  H11G 7851   2.665   4.371  15.318 -0.0574  0.3571 -0.5620
   6123SM  C12F 7852   2.787   4.344  15.147 -0.8262 -0.0349 -0.5099
   6123SM  H12F 7853   2.893   4.373  15.129 -0.2237  0.8862  3.5319
   6123SM  H12G 7854   2.725   4.411  15.083 -2.1095  0.3501  1.0509
   6123SM  C13F 7855   2.748   4.201  15.107  0.3486 -0.2249  0.6506
   6123SM  H13F 7856   2.653   4.171  15.157 -0.1250  0.3634  0.1021
   6123SM  H13G 7857   2.826   4.135  15.152  0.6038 -0.1587  0.3087
   6123SM  C14F 7858   2.749   4.169  14.955 -0.0036  0.9787 -0.4870
   6123SM  H14F 7859   2.675   4.230  14.899 -1.0471 -1.5889 -2.0883
   6123SM  H14G 7860   2.713   4.065  14.940 -2.3165  1.7174 -0.4045
   6123SM  C15F 7861   2.883   4.175  14.890 -0.2352 -0.2498  0.0590
   6123SM  H15F 7862   2.952   4.104  14.940  1.4386  0.7722 -0.7034
   6123SM  H15G 7863   2.924   4.278  14.901 -2.5330  0.5925  1.5893
   6123SM  C16F 7864   2.880   4.153  14.741 -0.0825  0.1527  0.3771
   6123SM  H16F 7865   2.813   4.230  14.697  0.3266 -0.3955 -1.2823
   6123SM  H16G 7866   2.843   4.050  14.723  2.4394 -0.6314 -0.8272
   6123SM  C17F 7867   3.023   4.164  14.680  0.4985  0.1927  0.3776
   6123SM  H17F 7868   3.085   4.088  14.732 -2.6671 -1.6448  1.7945
   6123SM  H17G 7869   3.057   4.269  14.694 -1.2436  0.5967  1.9729
   6123SM  C18F 7870   3.036   4.134  14.530 -0.2056  0.2435  0.4807
   6123SM  H18F 7871   3.022   4.226  14.469  1.7308 -0.2670 -0.8278
   6123SM  H18G 7872   2.957   4.059  14.506  0.8895 -1.0783  0.8776
   6123SM  C19F 7873   3.166   4.060  14.507  0.2912 -0.0600  0.0061
   6123SM  H19F 7874   3.152   3.957  14.546 -0.2442 -0.1708 -0.4664
   6123SM  H19G 7875   3.252   4.104  14.563 -0.2950  0.1151  0.7900
   6123SM  C20F 7876   3.205   4.063  14.360  0.2590  0.4713  0.0758
   6123SM  H20F 7877   3.194   4.169  14.327  1.9331  1.2697  1.8081
   6123SM  H20G 7878   3.144   4.005  14.288 -0.2004  0.8773  0.1326
   6123SM  C21F 7879   3.352   4.042  14.336  0.0026  0.0742 -0.1146
   6123SM  H21F 7880   3.415   4.064  14.424  1.3619 -3.4345 -0.0161
   6123SM  H21G 7881   3.388   4.095  14.245 -0.2816  0.7145  0.1459
   6123SM  C22F 7882   3.377   3.886  14.315 -0.7704 -0.3860 -0.2414
   6123SM  H22F 7883   3.486   3.872  14.299  0.2919  3.3098  2.2525
   6123SM  H22G 7884   3.325   3.867  14.219 -1.3716  4.0017 -1.0113
   6123SM  C23F 7885   3.336   3.793  14.440  0.0458 -0.0475  0.7861
   6123SM  H23F 7886   3.383   3.810  14.539 -0.9825  2.8866  0.8731
   6123SM  H23G 7887   3.376   3.696  14.403 -2.1505 -1.7838  2.6791
   6123SM  H23H 7888   3.225   3.795  14.445 -0.0545 -2.9786  1.4920
   6223SM     N 7889   2.715   2.533  16.368 -0.3595 -0.6915  0.3085
   6223SM   C15 7890   2.648   2.399  16.369 -0.1985 -0.2304 -1.4221
   6223SM  H15A 7891   2.629   2.370  16.471 -1.0602 -3.4270 -2.3901
   6223SM  H15B 7892   2.711   2.320  16.333  1.7749  0.8838 -0.5864
   6223SM  H15C 7893   2.550   2.411  16.326 -1.4271 -1.5775  0.8456
   6223SM   C14 7894   2.597   2.622  16.394  0.5551  0.3683  0.0118
   6223SM  H14A 7895   2.512   2.605  16.329 -0.7561  1.2925  1.4073
   6223SM  H14B 7896   2.621   2.727  16.382  0.6089  0.7849  2.9459
   6223SM  H14C 7897   2.565   2.606  16.496 -1.1479  2.3355 -0.1256
   6223SM   C13 7898   2.817   2.546  16.475  0.2072 -0.2174  0.5949
   6223SM  H13A 7899   2.853   2.648  16.473  0.4348 -0.2915  0.8377
   6223SM  H13B 7900   2.898   2.476  16.461  2.0301  2.1013 -1.2916
   6223SM  H13C 7901   2.771   2.532  16.572 -1.0318  2.0474  0.4046
   6223SM   C12 7902   2.772   2.562  16.236  0.1775 -0.2444  0.4323
   6223SM  H12A 7903   2.693   2.533  16.168 -2.4003  1.1129  2.6154
   6223SM  H12B 7904   2.859   2.501  16.219 -0.6148 -0.7490 -2.2294
   6223SM   C11 7905   2.798   2.712  16.198  0.6967  0.3329  0.8154
   6223SM  H11A 7906   2.704   2.767  16.176  0.0252 -0.3367  1.8470
   6223SM  H11B 7907   2.858   2.719  16.105  1.2195  0.7170  1.1768
   6223SM     P 7908   2.845   2.926  16.347 -0.1250 -0.2425  0.0802
   6223SM   O13 7909   2.705   2.959  16.373 -0.1354 -0.3990 -0.3544
   6223SM   O14 7910   2.944   2.966  16.446  0.1769 -0.0308  0.0653
   6223SM   O11 7911   2.889   2.995  16.211  0.1932  0.0749 -0.3435
   6223SM   O12 7912   2.870   2.780  16.306  0.1298 -0.5743  0.3618
   6223SM   C1S 7913   2.910   3.136  16.191  0.3509  0.2423 -0.2760
   6223SM   H1S 7914   2.999   3.160  16.253  0.2856 -2.0103  0.7984
   6223SM   H1T 7915   2.830   3.207  16.221  1.4629  1.2996  0.2944
   6223SM    NF 7916   2.976   3.300  16.038  0.0724 -0.1524  0.5534
   6223SM   HNF 7917   2.902   3.361  16.011  0.9564  0.0577 -1.5871
   6223SM   C2S 7918   2.942   3.160  16.040 -0.3598 -0.0942 -0.6110
   6223SM   H2S 7919   3.033   3.103  16.012 -0.2827 -0.5178  0.4720
   6223SM   C3S 7920   2.825   3.128  15.942  0.6019  0.4338 -0.5670
   6223SM   H3S 7921   2.740   3.198  15.958 -1.4588 -1.2736 -3.1429
   6223SM    O3 7922   2.755   3.003  15.974 -0.2354 -0.3722  0.7603
   6223SM   HO3 7923   2.785   2.991  16.064 -0.7313  0.3576  1.0325
   6223SM   C4S 7924   2.858   3.140  15.796  0.1144 -0.2146  0.5296
   6223SM   H4S 7925   2.814   3.225  15.742 -0.0258 -0.3609  0.4125
   6223SM   C5S 7926   2.928   3.043  15.736 -0.0288  0.5314  0.8781
   6223SM   H5S 7927   2.959   2.951  15.788  1.4895  0.4589 -0.0961
   6223SM   C6S 7928   2.967   3.055  15.593  0.0233  0.4850  0.4493
   6223SM   H6S 7929   3.025   2.964  15.564 -1.5410 -0.1883 -0.7452
   6223SM   H6T 7930   3.030   3.144  15.571 -1.1731  1.1078 -0.5988
   6223SM   C7S 7931   2.845   3.064  15.500  0.6648  1.0207  0.2967
   6223SM   H7S 7932   2.792   3.160  15.514  0.2012  0.7931  0.1150
   6223SM   H7T 7933   2.777   2.976  15.510  2.2829 -0.5363 -1.3672
   6223SM   C8S 7934   2.887   3.078  15.350 -0.0854 -0.3894  0.3851
   6223SM   H8S 7935   2.944   2.984  15.333  1.9519  0.6417  1.1333
   6223SM   H8T 7936   2.966   3.157  15.349  0.7024 -1.0782  2.5331
   6223SM   C9S 7937   2.768   3.102  15.257 -0.2643  0.4574 -0.0413
   6223SM   H9S 7938   2.707   3.012  15.278 -0.9999  0.9237 -0.1520
   6223SM   H9T 7939   2.803   3.093  15.152 -2.4143 -0.9157 -0.7035
   6223SM  C10S 7940   2.696   3.234  15.278 -0.2164 -0.3398  0.1083
   6223SM  H10S 7941   2.767   3.319  15.282 -1.0560  0.4688 -1.2665
   6223SM  H10T 7942   2.634   3.230  15.370  1.2564  0.7196  1.1994
   6223SM  C11S 7943   2.599   3.255  15.166 -0.5616 -0.6578  1.0025
   6223SM  H11S 7944   2.531   3.167  15.171 -1.8353  0.1605 -0.7540
   6223SM  H11T 7945   2.652   3.263  15.068  0.4999  1.0178  1.6646
   6223SM  C12S 7946   2.505   3.376  15.168  0.3582 -0.0932  0.1064
   6223SM  H12S 7947   2.453   3.376  15.070  0.2930  0.9477  0.1280
   6223SM  H12T 7948   2.569   3.467  15.176 -1.1920  1.4331 -3.0679
   6223SM  C13S 7949   2.410   3.367  15.278  0.2564  0.5836 -0.4530
   6223SM  H13S 7950   2.464   3.369  15.375  0.2433  1.2366 -0.4508
   6223SM  H13T 7951   2.357   3.270  15.272 -0.2509  0.6816  1.6387
   6223SM  C14S 7952   2.300   3.476  15.274  0.8329 -0.0883 -0.5333
   6223SM  H14S 7953   2.238   3.463  15.183  1.3857  0.1510 -0.9476
   6223SM  H14T 7954   2.340   3.579  15.276 -1.4905  0.9807  3.0268
   6223SM  C15S 7955   2.209   3.462  15.403 -0.7127 -0.0368 -0.2225
   6223SM  H15S 7956   2.259   3.490  15.498 -1.5528  3.6257 -0.7211
   6223SM  H15T 7957   2.173   3.358  15.420 -1.2549  0.3960  1.5730
   6223SM  C16S 7958   2.091   3.551  15.414 -0.7606 -0.0173  0.4103
   6223SM  H16S 7959   2.024   3.533  15.328 -0.7017 -3.9507  1.0034
   6223SM  H16T 7960   2.120   3.658  15.409 -0.7433 -0.0499 -0.1973
   6223SM  C17S 7961   2.012   3.526  15.547  0.3104 -0.2087 -0.2916
   6223SM  H17S 7962   2.092   3.529  15.624 -0.5708 -0.8716  0.6826
   6223SM  H17T 7963   1.975   3.422  15.541 -0.9184  0.0660  1.6560
   6223SM  C18S 7964   1.896   3.622  15.584  0.4063 -0.1859 -0.1523
   6223SM  H18S 7965   1.816   3.617  15.508  0.9750 -0.0602 -0.7628
   6223SM  H18T 7966   1.919   3.729  15.608 -1.8882  1.0739 -2.9530
   6223SM  H18U 7967   1.851   3.588  15.680  0.3437  0.1983 -0.0408
   6223SM   C1F 7968   3.086   3.348  16.089  0.5170  0.2173  0.0210
   6223SM    OF 7969   3.168   3.278  16.151 -0.0003  0.1392 -0.5323
   6223SM   C2F 7970   3.124   3.485  16.056  0.3841 -0.3546 -0.1545
   6223SM   H2F 7971   3.115   3.547  16.148 -1.9517  0.5771 -0.9479
   6223SM   H2G 7972   3.061   3.528  15.975  2.9071  0.5178 -1.7690
   6223SM   C3F 7973   3.265   3.499  15.997 -0.1208 -0.0737 -0.1062
   6223SM   H3F 7974   3.343   3.470  16.071  1.0171 -1.1239 -1.6543
   6223SM   H3G 7975   3.271   3.609  15.979 -1.6009 -0.0633 -0.7276
   6223SM   C4F 7976   3.286   3.427  15.861  0.0699 -0.1217 -0.1642
   6223SM   H4F 7977   3.262   3.320  15.877 -0.6854  0.0752  0.0574
   6223SM   H4G 7978   3.394   3.431  15.834  0.3430 -0.0743  0.8906
   6223SM   C5F 7979   3.215   3.493  15.743  0.9421  0.0889  0.3107
   6223SM   H5F 7980   3.257   3.594  15.720 -0.6627  0.8380  0.5150
   6223SM   H5G 7981   3.105   3.502  15.752  1.0293 -0.8463  3.5912
   6223SM   C6F 7982   3.243   3.401  15.623 -1.4772  0.2183  0.0723
   6223SM   H6F 7983   3.211   3.296  15.640 -0.1613 -0.4229 -1.2247
   6223SM   H6G 7984   3.353   3.388  15.624 -1.2578  1.4898  2.9945
   6223SM   C7F 7985   3.196   3.451  15.482 -0.8234 -0.2492  0.0541
   6223SM   H7F 7986   3.248   3.549  15.474  1.3821 -1.3346  0.2234
   6223SM   H7G 7987   3.086   3.459  15.496 -0.5193  1.8205  1.8570
   6223SM   C8F 7988   3.232   3.365  15.364 -0.3666  0.1061 -0.5643
   6223SM   H8F 7989   3.216   3.257  15.384  0.7621 -0.2095 -1.2204
   6223SM   H8G 7990   3.339   3.383  15.340 -0.6576  1.1109 -1.1820
   6223SM   C9F 7991   3.144   3.406  15.252  0.3893 -0.5865  0.4119
   6223SM   H9F 7992   3.155   3.513  15.224  0.3536 -0.9085 -0.9067
   6223SM   H9G 7993   3.041   3.397  15.293  0.3159 -1.1704  0.1074
   6223SM  C10F 7994   3.159   3.317  15.130 -0.0159 -0.3735 -0.3492
   6223SM  H10F 7995   3.131   3.212  15.156 -0.3185 -0.5300 -1.2652
   6223SM  H10G 7996   3.267   3.309  15.103 -0.3480 -0.0720 -1.8577
   6223SM  C11F 7997   3.080   3.360  15.006  0.1414 -0.1507 -0.3230
   6223SM  H11F 7998   3.111   3.466  14.990  0.6104 -0.0190  1.2077
   6223SM  H11G 7999   2.971   3.356  15.027 -0.2787 -0.5517 -2.4042
   6223SM  C12F 8000   3.125   3.270  14.896 -0.0245 -0.0802  0.1413
   6223SM  H12F 8001   3.125   3.167  14.936 -1.8497  0.3905  1.5022
   6223SM  H12G 8002   3.227   3.294  14.859  0.3924 -1.3920  0.4002
   6223SM  C13F 8003   3.020   3.261  14.782 -0.5406 -0.2522 -0.4707
   6223SM  H13F 8004   2.977   3.356  14.743 -1.0468 -0.5801 -0.7181
   6223SM  H13G 8005   2.937   3.203  14.827  1.1171 -2.0550  0.3932
   6223SM  C14F 8006   3.083   3.203  14.658  1.4288 -0.0658  0.3381
   6223SM  H14F 8007   3.139   3.286  14.610  1.4690 -0.8584 -1.0215
   6223SM  H14G 8008   3.001   3.168  14.592  2.0243  1.3258 -1.1973
   6223SM  C15F 8009   3.183   3.091  14.675  0.5322  0.8221  0.1475
   6223SM  H15F 8010   3.135   3.006  14.728  0.9681  0.9743  0.8081
   6223SM  H15G 8011   3.272   3.132  14.728  1.2673 -0.1609 -0.3030
   6223SM  C16F 8012   3.248   3.058  14.539 -0.3185 -0.2119  0.5451
   6223SM  H16F 8013   3.334   2.989  14.542 -0.9227 -1.1274 -1.4967
   6223SM  H16G 8014   3.273   3.160  14.501 -2.9994  0.7011  0.9837
   6223SM  C17F 8015   3.159   2.987  14.434  1.1941 -0.4873 -0.2611
   6223SM  H17F 8016   3.068   3.051  14.431 -0.9930 -3.4500 -0.7607
   6223SM  H17G 8017   3.119   2.888  14.463 -1.1730  0.2443 -0.7777
   6223SM  C18F 8018   3.215   2.977  14.294 -0.2087  0.1039 -0.1322
   6223SM  H18F 8019   3.302   2.908  14.295  1.0139  1.5264 -1.9800
   6223SM  H18G 8020   3.265   3.070  14.259 -0.3052  1.1441  2.2892
   6223SM  C19F 8021   3.118   2.917  14.191  0.5524  0.9264  0.7633
   6223SM  H19F 8022   3.051   2.836  14.227  0.3335 -0.2843 -2.1200
   6223SM  H19G 8023   3.175   2.884  14.102  0.8262 -0.2206  1.3456
   6223SM  C20F 8024   2.996   3.014  14.153  0.6386  0.6162 -0.6169
   6223SM  H20F 8025   2.976   3.004  14.044 -4.5405  0.6894  0.0900
   6223SM  H20G 8026   3.011   3.123  14.170  0.0467  0.3355  2.1408
   6223SM  C21F 8027   2.871   2.969  14.231 -0.3231 -0.4092 -1.0190
   6223SM  H21F 8028   2.903   2.924  14.328  0.1331 -2.7234 -2.1543
   6223SM  H21G 8029   2.833   2.883  14.171 -2.2858 -0.4127  0.1319
   6223SM  C22F 8030   2.757   3.065  14.270 -0.5779 -0.4764 -1.0183
   6223SM  H22F 8031   2.768   3.157  14.208 -0.0542 -1.3989 -2.3397
   6223SM  H22G 8032   2.768   3.088  14.378  1.3483  0.7729 -1.4373
   6223SM  C23F 8033   2.620   3.010  14.240 -0.6387 -0.0564 -0.0441
   6223SM  H23F 8034   2.575   2.955  14.326 -0.7104 -0.5137 -0.3699
   6223SM  H23G 8035   2.623   2.945  14.150 -0.0552 -1.6231  1.0614
   6223SM  H23H 8036   2.550   3.091  14.210  0.5663  0.4758 -1.4889
   6323SM     N 8037   4.756   4.984  16.238  0.4281  0.0741 -0.4407
   6323SM   C15 8038   4.774   5.054  16.109 -0.0915 -0.9496  0.2896
   6323SM  H15A 8039   4.724   4.995  16.034 -0.5310  0.0143 -0.1959
   6323SM  H15B 8040   4.881   5.054  16.093 -0.0099 -1.0956  0.8085
   6323SM  H15C 8041   4.742   5.157  16.105  1.9645 -0.2965 -1.1318
   6323SM   C14 8042   4.614   5.003  16.285  0.2602  0.2688 -0.2604
   6323SM  H14A 8043   4.584   5.095  16.334 -2.1470 -0.7946  0.4089
   6323SM  H14B 8044   4.582   4.935  16.362 -1.3845  2.7570  1.4280
   6323SM  H14C 8045   4.553   4.983  16.199 -0.0972  0.6987 -0.1099
   6323SM   C13 8046   4.774   4.833  16.221 -0.1619 -0.1451  1.2198
   6323SM  H13A 8047   4.763   4.775  16.311 -0.9083 -1.2370  0.4534
   6323SM  H13B 8048   4.870   4.811  16.175 -1.1746 -0.9209 -0.6252
   6323SM  H13C 8049   4.703   4.794  16.150  0.6652  2.1271 -1.0657
   6323SM   C12 8050   4.855   5.039  16.338  0.4935 -0.0621 -0.0368
   6323SM  H12A 8051   4.826   5.015  16.439  1.6615 -0.3279  0.2512
   6323SM  H12B 8052   4.841   5.145  16.325 -3.2489 -0.2186  1.4816
   6323SM   C11 8053   5.001   5.011  16.319  0.6574 -0.5022 -0.4679
   6323SM  H11A 8054   5.010   4.900  16.326  2.1207 -0.3507  0.3182
   6323SM  H11B 8055   5.051   5.066  16.401  0.3401 -2.4504  1.1074
   6323SM     P 8056   5.199   5.034  16.155 -0.1535  0.4830 -0.2987
   6323SM   O13 8057   5.275   5.156  16.114 -0.8784  0.2555 -0.5579
   6323SM   O14 8058   5.266   4.945  16.255  0.1442 -0.6604  0.4835
   6323SM   O11 8059   5.183   4.944  16.027 -0.1117 -0.3439  0.5686
   6323SM   O12 8060   5.051   5.071  16.199 -0.7229 -0.0835 -0.4828
   6323SM   C1S 8061   5.144   5.007  15.905 -0.1305 -0.1484  0.9052
   6323SM   H1S 8062   5.232   5.065  15.870  0.6854 -2.0192 -0.3285
   6323SM   H1T 8063   5.054   5.071  15.918 -0.7628 -0.9298  0.4505
   6323SM    NF 8064   5.066   4.979  15.667 -0.1940 -0.0125 -0.1881
   6323SM   HNF 8065   4.974   5.014  15.652 -1.0110 -2.0601 -0.2190
   6323SM   C2S 8066   5.097   4.901  15.791  0.7384  0.3886 -0.3026
   6323SM   H2S 8067   5.182   4.831  15.776  0.8016  0.2478  0.6779
   6323SM   C3S 8068   4.974   4.826  15.853  0.5811 -1.1109  0.1279
   6323SM   H3S 8069   4.903   4.910  15.867  0.2179 -1.1162 -1.4953
   6323SM    O3 8070   4.986   4.764  15.980 -0.5539  0.3001 -0.2616
   6323SM   HO3 8071   5.069   4.802  16.010 -0.2787 -0.0493 -0.5728
   6323SM   C4S 8072   4.933   4.740  15.747 -0.1155 -0.0574 -0.1128
   6323SM   H4S 8073   4.999   4.653  15.734  1.4149  1.1506 -0.8343
   6323SM   C5S 8074   4.823   4.745  15.671  0.4388  0.0296 -1.2556
   6323SM   H5S 8075   4.753   4.826  15.697 -0.8309 -1.5448  0.5783
   6323SM   C6S 8076   4.775   4.637  15.574  0.5033 -0.0061  0.2036
   6323SM   H6S 8077   4.667   4.620  15.591  0.5340 -0.1121  0.3000
   6323SM   H6T 8078   4.831   4.542  15.590 -1.2005 -0.7817  2.0089
   6323SM   C7S 8079   4.816   4.687  15.435  0.7232  0.1886  0.5998
   6323SM   H7S 8080   4.924   4.710  15.444  0.8735  0.2179 -0.9671
   6323SM   H7T 8081   4.757   4.778  15.411 -0.0700  0.0786  2.0164
   6323SM   C8S 8082   4.800   4.581  15.326  0.4365 -0.5680  0.0684
   6323SM   H8S 8083   4.863   4.490  15.339 -0.0416 -1.0055 -0.5876
   6323SM   H8T 8084   4.836   4.623  15.230  0.3288  1.1726  0.7678
   6323SM   C9S 8085   4.654   4.536  15.324  0.2469 -0.3151  0.0418
   6323SM   H9S 8086   4.587   4.615  15.363  1.6160  1.7949 -1.7004
   6323SM   H9T 8087   4.639   4.449  15.392 -3.7089  0.3822  0.3061
   6323SM  C10S 8088   4.600   4.503  15.182 -0.3593  0.0224 -0.8213
   6323SM  H10S 8089   4.587   4.593  15.118 -2.2464 -0.6558 -1.4839
   6323SM  H10T 8090   4.500   4.457  15.200 -0.0607 -0.4463 -0.3078
   6323SM  C11S 8091   4.676   4.394  15.113 -0.0251  0.0458  0.5218
   6323SM  H11S 8092   4.707   4.314  15.184  1.1087 -0.4079 -0.4537
   6323SM  H11T 8093   4.772   4.436  15.079 -0.3194 -2.1124 -3.6166
   6323SM  C12S 8094   4.610   4.334  14.985  0.5095  0.1124  0.0108
   6323SM  H12S 8095   4.508   4.293  15.007 -0.1776  0.4213 -2.3423
   6323SM  H12T 8096   4.675   4.249  14.954 -0.8541 -1.1704  0.4928
   6323SM  C13S 8097   4.623   4.434  14.864  0.3428  0.1295 -0.6803
   6323SM  H13S 8098   4.732   4.438  14.844  1.0320 -2.3867  1.9013
   6323SM  H13T 8099   4.588   4.535  14.897  1.4433  0.8486 -1.6235
   6323SM  C14S 8100   4.545   4.383  14.749  0.0916 -0.1696  0.1093
   6323SM  H14S 8101   4.438   4.376  14.776  0.2224 -0.0054  0.6763
   6323SM  H14T 8102   4.587   4.287  14.710  0.4707  0.4440 -1.0241
   6323SM  C15S 8103   4.551   4.493  14.640 -0.0513 -0.2970 -0.0374
   6323SM  H15S 8104   4.658   4.500  14.610  0.3062 -1.0800  1.0082
   6323SM  H15T 8105   4.527   4.594  14.679 -2.4527 -0.2878 -1.3122
   6323SM  C16S 8106   4.461   4.472  14.518 -0.0013  0.6289  0.6989
   6323SM  H16S 8107   4.354   4.489  14.545 -0.6701 -1.4692 -0.3807
   6323SM  H16T 8108   4.460   4.362  14.497  2.4162  0.3561  1.7261
   6323SM  C17S 8109   4.485   4.544  14.385 -0.5746 -0.4135 -0.5689
   6323SM  H17S 8110   4.406   4.523  14.311 -0.7952 -1.9891  0.0826
   6323SM  H17T 8111   4.585   4.520  14.343  0.1301  0.1007  0.7415
   6323SM  C18S 8112   4.486   4.697  14.412 -0.0078  0.6262  0.0781
   6323SM  H18S 8113   4.525   4.754  14.325  0.2886  0.1670 -0.0899
   6323SM  H18T 8114   4.566   4.721  14.485 -1.3969 -1.5679  2.5111
   6323SM  H18U 8115   4.389   4.740  14.446 -1.1025 -0.3386 -1.6916
   6323SM   C1F 8116   5.170   5.018  15.595 -1.1411  0.3131  0.7308
   6323SM    OF 8117   5.286   4.974  15.632  0.1163 -0.1524  0.0652
   6323SM   C2F 8118   5.143   5.118  15.491 -0.4371  0.5409 -0.4422
   6323SM   H2F 8119   5.208   5.205  15.516  1.5011 -0.5490 -1.4614
   6323SM   H2G 8120   5.033   5.132  15.495 -0.6442 -1.1296  0.4867
   6323SM   C3F 8121   5.199   5.060  15.359  0.1253  0.1970 -0.0142
   6323SM   H3F 8122   5.162   4.959  15.334  1.3446 -0.1276 -0.5756
   6323SM   H3G 8123   5.309   5.046  15.367  0.0264 -2.5094 -1.9282
   6323SM   C4F 8124   5.169   5.161  15.243 -0.5504  0.1210 -0.3984
   6323SM   H4F 8125   5.194   5.263  15.279  0.1494  0.0264 -0.5882
   6323SM   H4G 8126   5.059   5.168  15.227 -0.4855  2.0473 -0.2511
   6323SM   C5F 8127   5.232   5.131  15.101 -0.1441 -0.2304 -0.3071
   6323SM   H5F 8128   5.337   5.166  15.111 -0.3578  0.1483  0.8465
   6323SM   H5G 8129   5.194   5.198  15.021 -1.3092  0.4334  0.7653
   6323SM   C6F 8130   5.210   4.988  15.048 -0.1807 -0.1031  0.5986
   6323SM   H6F 8131   5.247   4.923  15.129  0.1139 -0.1194  0.4519
   6323SM   H6G 8132   5.262   4.981  14.950  0.4031  0.2069  0.8840
   6323SM   C7F 8133   5.059   4.944  15.040 -0.3921  0.6023  0.2306
   6323SM   H7F 8134   4.991   5.026  15.009 -0.0652  2.4785  3.8870
   6323SM   H7G 8135   5.023   4.911  15.139 -0.0547 -1.8874 -0.4131
   6323SM   C8F 8136   5.030   4.821  14.944  0.5262 -0.1793 -0.5243
   6323SM   H8F 8137   5.077   4.728  14.983  0.6764  0.3425  0.5944
   6323SM   H8G 8138   5.070   4.846  14.844  2.4147 -0.5571  0.0975
   6323SM   C9F 8139   4.877   4.793  14.951  0.0226 -0.2909  0.0887
   6323SM   H9F 8140   4.834   4.832  15.046  0.2726  1.6568 -0.5578
   6323SM   H9G 8141   4.847   4.686  14.944 -0.3691 -0.2049  0.4001
   6323SM  C10F 8142   4.796   4.870  14.839 -0.0220  0.3305  0.2205
   6323SM  H10F 8143   4.834   4.834  14.741 -0.7887 -0.5473  0.2370
   6323SM  H10G 8144   4.830   4.976  14.845  1.5262  0.0577 -2.2330
   6323SM  C11F 8145   4.644   4.847  14.848  0.3831  0.4492  0.6266
   6323SM  H11F 8146   4.607   4.871  14.950 -0.1632  3.7213 -0.2384
   6323SM  H11G 8147   4.631   4.737  14.841 -1.1261  0.5638  1.1409
   6323SM  C12F 8148   4.566   4.919  14.739  0.0903  0.0794 -0.1722
   6323SM  H12F 8149   4.585   4.893  14.633 -1.7868  0.8758 -0.7404
   6323SM  H12G 8150   4.581   5.028  14.754  0.1331  0.2243 -1.2358
   6323SM  C13F 8151   4.412   4.888  14.759 -0.7254 -0.7744  0.4454
   6323SM  H13F 8152   4.378   4.911  14.862  1.6523  1.7162  0.8015
   6323SM  H13G 8153   4.399   4.779  14.747 -1.4521 -0.4842 -2.0890
   6323SM  C14F 8154   4.318   4.968  14.658  0.3757  0.2266  0.4745
   6323SM  H14F 8155   4.234   4.898  14.643 -1.4394  2.1653  1.1150
   6323SM  H14G 8156   4.374   4.980  14.563 -2.0386 -0.8957 -1.1800
   6323SM  C15F 8157   4.277   5.102  14.716 -0.5915 -0.6116  0.5817
   6323SM  H15F 8158   4.346   5.179  14.676  0.8531 -3.1328 -2.1149
   6323SM  H15G 8159   4.299   5.103  14.825  1.0909 -1.0405  0.2680
   6323SM  C16F 8160   4.136   5.137  14.678 -0.5094 -0.2515 -0.3697
   6323SM  H16F 8161   4.070   5.062  14.728 -0.5630  0.7966  1.2275
   6323SM  H16G 8162   4.118   5.125  14.569  0.1102  1.4161 -0.6784
   6323SM  C17F 8163   4.091   5.279  14.724 -0.1518  0.3355  0.3817
   6323SM  H17F 8164   4.141   5.357  14.663  1.1345 -0.6722  0.0841
   6323SM  H17G 8165   4.117   5.283  14.832 -1.2242  1.7958  0.6231
   6323SM  C18F 8166   3.943   5.292  14.700  0.4727 -0.1835 -0.4675
   6323SM  H18F 8167   3.892   5.221  14.768  2.7016 -0.0586  1.4724
   6323SM  H18G 8168   3.922   5.265  14.595  0.2391  1.1487 -0.7816
   6323SM  C19F 8169   3.882   5.428  14.727 -0.2635 -0.8704 -0.0181
   6323SM  H19F 8170   3.951   5.498  14.676  1.3165 -1.1025  1.7008
   6323SM  H19G 8171   3.896   5.462  14.832  1.1993 -0.9893 -0.1611
   6323SM  C20F 8172   3.729   5.450  14.684 -0.4188  0.6958 -0.4406
   6323SM  H20F 8173   3.693   5.517  14.765 -1.3156  0.0963 -0.3321
   6323SM  H20G 8174   3.689   5.347  14.695 -0.2446  0.5386 -1.2354
   6323SM  C21F 8175   3.696   5.503  14.542 -0.0460  0.0368 -0.7684
   6323SM  H21F 8176   3.587   5.490  14.527  0.0228 -3.2311  0.7374
   6323SM  H21G 8177   3.733   5.424  14.474 -1.5849 -0.6124 -0.8846
   6323SM  C22F 8178   3.754   5.636  14.508  0.0820  0.7990  0.3489
   6323SM  H22F 8179   3.862   5.624  14.532  0.3670  2.3266 -0.0604
   6323SM  H22G 8180   3.720   5.722  14.570  2.3993  3.6718 -2.0508
   6323SM  C23F 8181   3.751   5.669  14.358  0.6363  1.2429  0.1471
   6323SM  H23F 8182   3.783   5.775  14.346 -0.8601  1.5969 -0.9046
   6323SM  H23G 8183   3.647   5.656  14.321  0.4900 -1.6740  1.2911
   6323SM  H23H 8184   3.822   5.608  14.299  0.1629 -0.4787  1.2880
   6423SM     N 8185   5.899   3.229  16.502 -0.3395 -0.0615  0.1053
   6423SM   C15 8186   5.833   3.264  16.631 -0.1003 -0.0050  0.5784
   6423SM  H15A 8187   5.887   3.246  16.723  0.4823  1.3027  0.5102
   6423SM  H15B 8188   5.736   3.216  16.643  0.3566 -1.3505 -0.7786
   6423SM  H15C 8189   5.809   3.369  16.633  1.3898  0.3404  1.9627
   6423SM   C14 8190   6.040   3.282  16.491 -0.1866  0.2869  0.2871
   6423SM  H14A 8191   6.082   3.267  16.589  2.2295  2.2497 -0.3480
   6423SM  H14B 8192   6.036   3.388  16.474  1.6065  0.1167 -1.6503
   6423SM  H14C 8193   6.102   3.231  16.418 -0.7552  0.9285 -0.6629
   6423SM   C13 8194   5.917   3.083  16.508  0.0043 -0.0959  0.1716
   6423SM  H13A 8195   5.827   3.034  16.541  0.8655 -0.9147  1.3697
   6423SM  H13B 8196   6.004   3.061  16.568  0.4876 -0.3598 -0.6120
   6423SM  H13C 8197   5.933   3.053  16.405 -1.3769 -2.3812  0.5585
   6423SM   C12 8198   5.817   3.272  16.380  0.1829 -0.1277 -0.3815
   6423SM  H12A 8199   5.714   3.246  16.404 -0.5708  2.3093 -0.6881
   6423SM  H12B 8200   5.847   3.221  16.290  1.0107 -1.3006  0.5276
   6423SM   C11 8201   5.809   3.420  16.359  0.7696 -0.0871 -0.4571
   6423SM  H11A 8202   5.738   3.442  16.277 -0.2976 -0.6817  0.2842
   6423SM  H11B 8203   5.908   3.458  16.323 -0.2677  2.0890 -1.1838
   6423SM     P 8204   5.809   3.639  16.491 -0.3770 -0.2729 -0.4413
   6423SM   O13 8205   5.714   3.713  16.577 -0.8698  0.7092 -0.6781
   6423SM   O14 8206   5.951   3.635  16.528 -0.7718 -0.1874  0.0118
   6423SM   O11 8207   5.783   3.706  16.351 -0.3369  0.2932  0.0755
   6423SM   O12 8208   5.751   3.495  16.469 -0.5879  0.9368 -0.2404
   6423SM   C1S 8209   5.886   3.733  16.261  0.1966  0.1230 -0.6385
   6423SM   H1S 8210   5.944   3.640  16.246 -0.6297 -0.4423 -0.3981
   6423SM   H1T 8211   5.943   3.817  16.305 -1.2444  1.8057 -1.8193
   6423SM    NF 8212   5.949   3.778  16.019  0.1519 -0.0719  0.3314
   6423SM   HNF 8213   5.986   3.866  15.992 -1.5645  0.1877 -1.3731
   6423SM   C2S 8214   5.839   3.774  16.120 -0.0846 -0.6678 -0.1944
   6423SM   H2S 8215   5.765   3.696  16.091 -1.9913  1.1360 -0.4342
   6423SM   C3S 8216   5.768   3.909  16.127  0.1947 -0.2010  0.3675
   6423SM   H3S 8217   5.851   3.982  16.139 -0.1860  0.3940 -0.4961
   6423SM    O3 8218   5.689   3.926  16.244  0.4817 -1.0825 -0.3151
   6423SM   HO3 8219   5.718   3.861  16.308  0.1040  0.2885  1.3282
   6423SM   C4S 8220   5.693   3.931  15.996 -0.2446 -0.5388  0.1479
   6423SM   H4S 8221   5.762   3.965  15.917  0.8539 -0.0360  1.3118
   6423SM   C5S 8222   5.563   3.915  15.960 -0.7032 -0.0552 -0.0495
   6423SM   H5S 8223   5.495   3.857  16.024 -1.1505  0.6887  0.1693
   6423SM   C6S 8224   5.519   3.949  15.824  0.3207  0.8989  0.0199
   6423SM   H6S 8225   5.409   3.930  15.830  0.3820  0.8444  1.1043
   6423SM   H6T 8226   5.548   3.872  15.750  1.6623  0.4692  0.9608
   6423SM   C7S 8227   5.542   4.091  15.787 -0.1453  0.6619 -0.3852
   6423SM   H7S 8228   5.649   4.117  15.772 -0.4569  1.5896 -1.0601
   6423SM   H7T 8229   5.499   4.156  15.866 -2.1758 -2.5390  1.3580
   6423SM   C8S 8230   5.480   4.140  15.656  0.0392  0.1231  0.5145
   6423SM   H8S 8231   5.464   4.250  15.648  1.9423  0.4534  0.6908
   6423SM   H8T 8232   5.383   4.087  15.645  0.0649  0.4973 -2.2053
   6423SM   C9S 8233   5.544   4.100  15.520  0.2385 -0.1895 -1.0890
   6423SM   H9S 8234   5.544   3.990  15.508 -0.7298 -0.5566  1.6049
   6423SM   H9T 8235   5.648   4.138  15.511 -0.4238  1.6936 -1.1905
   6423SM  C10S 8236   5.476   4.168  15.402  0.0175 -0.4469 -0.3763
   6423SM  H10S 8237   5.489   4.277  15.419 -0.1553 -0.1026 -2.2839
   6423SM  H10T 8238   5.367   4.148  15.403 -0.1198  0.2744  0.4569
   6423SM  C11S 8239   5.545   4.143  15.265 -0.3602 -0.0578 -0.4697
   6423SM  H11S 8240   5.539   4.033  15.257  1.0259 -0.2030  0.1916
   6423SM  H11T 8241   5.651   4.173  15.278 -0.9356  1.2479  1.7950
   6423SM  C12S 8242   5.479   4.200  15.140  0.1474 -0.6964  0.0416
   6423SM  H12S 8243   5.447   4.306  15.150  1.5230  0.0302 -2.3089
   6423SM  H12T 8244   5.388   4.144  15.111 -0.6081  0.3721  0.3062
   6423SM  C13S 8245   5.571   4.192  15.017  1.0725 -0.2421 -0.1592
   6423SM  H13S 8246   5.551   4.087  14.986  0.1356 -0.5577  1.3963
   6423SM  H13T 8247   5.676   4.201  15.053  0.8059  0.1635  0.5448
   6423SM  C14S 8248   5.546   4.305  14.914  0.0524 -0.2027  0.0300
   6423SM  H14S 8249   5.639   4.323  14.857 -0.5799  0.2950 -0.8610
   6423SM  H14T 8250   5.523   4.392  14.979  0.8261 -0.0294  0.0740
   6423SM  C15S 8251   5.433   4.279  14.821  0.8425  0.2081  0.0587
   6423SM  H15S 8252   5.361   4.228  14.889  1.7603  0.2722  1.1031
   6423SM  H15T 8253   5.466   4.204  14.745  0.5996 -0.6700  0.7993
   6423SM  C16S 8254   5.365   4.393  14.751  0.2315  0.0578 -0.2257
   6423SM  H16S 8255   5.437   4.436  14.678  0.4401 -1.6195 -1.0591
   6423SM  H16T 8256   5.339   4.474  14.823 -2.7715  0.5637 -1.7235
   6423SM  C17S 8257   5.237   4.366  14.674  0.2023 -0.0153 -0.5111
   6423SM  H17S 8258   5.165   4.320  14.745  0.5557  1.2536  0.7217
   6423SM  H17T 8259   5.252   4.278  14.608 -0.7020 -0.5302 -0.0519
   6423SM  C18S 8260   5.175   4.481  14.591 -0.4848  0.1997  0.0660
   6423SM  H18S 8261   5.078   4.465  14.538 -0.3914 -0.0870 -0.0237
   6423SM  H18T 8262   5.241   4.508  14.506 -0.2373  0.7333  0.4294
   6423SM  H18U 8263   5.162   4.568  14.657  0.2313 -0.4056  1.0306
   6423SM   C1F 8264   6.009   3.669  15.976  0.2095 -0.4675  1.2235
   6423SM    OF 8265   5.961   3.555  15.986  0.6030  0.1708 -0.0674
   6423SM   C2F 8266   6.137   3.690  15.913 -0.6754  0.1364  0.1851
   6423SM   H2F 8267   6.214   3.613  15.936  1.2236  1.6610 -0.8370
   6423SM   H2G 8268   6.181   3.784  15.952 -0.8241  0.2002  0.2001
   6423SM   C3F 8269   6.116   3.701  15.764 -0.2095  0.0831 -0.4880
   6423SM   H3F 8270   6.059   3.615  15.722 -0.9910  1.0789 -1.5502
   6423SM   H3G 8271   6.212   3.693  15.709 -0.4448 -1.8487 -0.7138
   6423SM   C4F 8272   6.037   3.829  15.714 -0.1544  0.4441  0.0684
   6423SM   H4F 8273   6.094   3.915  15.755  3.3978 -1.5571 -0.3063
   6423SM   H4G 8274   5.935   3.820  15.757  0.3387 -0.7822  1.0502
   6423SM   C5F 8275   6.023   3.837  15.564 -0.2186  0.7312  0.1139
   6423SM   H5F 8276   5.968   3.745  15.537 -0.2209  0.4928  0.9097
   6423SM   H5G 8277   6.123   3.831  15.514  0.9828 -1.2987  2.5642
   6423SM   C6F 8278   5.940   3.965  15.531 -0.7985 -0.5147  1.0139
   6423SM   H6F 8279   5.995   4.049  15.579  2.2629 -2.1182  0.5860
   6423SM   H6G 8280   5.844   3.954  15.586 -1.3710 -0.2778  0.0910
   6423SM   C7F 8281   5.916   3.991  15.386  0.5305 -0.3683 -0.0058
   6423SM   H7F 8282   5.884   4.095  15.362  1.2436 -0.0040  0.5885
   6423SM   H7G 8283   5.831   3.925  15.358 -1.3881  1.5420  1.0007
   6423SM   C8F 8284   6.033   3.957  15.295  0.5512  0.4710 -0.3238
   6423SM   H8F 8285   6.072   3.853  15.305  2.3069  1.2275  1.5454
   6423SM   H8G 8286   6.113   4.023  15.334 -0.5920  3.0555 -2.1050
   6423SM   C9F 8287   6.015   3.995  15.151 -0.0443 -0.8456  0.2508
   6423SM   H9F 8288   6.116   3.981  15.106 -0.5275  0.3523 -1.3308
   6423SM   H9G 8289   5.978   4.100  15.146 -2.3312 -1.5493  1.2932
   6423SM  C10F 8290   5.904   3.899  15.089 -0.7838  0.0520  0.3130
   6423SM  H10F 8291   5.808   3.924  15.140 -0.7333 -1.4490  1.2000
   6423SM  H10G 8292   5.932   3.794  15.108  0.9190  0.2515 -0.8615
   6423SM  C11F 8293   5.895   3.906  14.932 -0.4380  0.1682  0.2267
   6423SM  H11F 8294   5.810   3.838  14.910 -1.6367  2.3443 -2.5179
   6423SM  H11G 8295   5.984   3.860  14.885  0.4391 -1.1435  2.9306
   6423SM  C12F 8296   5.889   4.047  14.876  0.1993  0.0413 -0.5202
   6423SM  H12F 8297   5.984   4.102  14.890 -1.4513  2.5040  1.8917
   6423SM  H12G 8298   5.818   4.119  14.922 -0.0017 -0.4889  0.0092
   6423SM  C13F 8299   5.853   4.049  14.727  0.0014 -0.2770  0.3482
   6423SM  H13F 8300   5.748   4.021  14.701 -0.1750  0.0344  0.7068
   6423SM  H13G 8301   5.920   3.980  14.672 -0.3461 -0.3267 -0.0186
   6423SM  C14F 8302   5.882   4.186  14.660 -0.4658  0.4316 -0.0643
   6423SM  H14F 8303   5.992   4.204  14.660 -0.1501 -1.1219  1.5097
   6423SM  H14G 8304   5.855   4.271  14.726  1.5290  1.2113 -0.1696
   6423SM  C15F 8305   5.823   4.203  14.525  1.0096  0.8511  0.5501
   6423SM  H15F 8306   5.715   4.205  14.549  1.6461  0.0448  4.1121
   6423SM  H15G 8307   5.837   4.110  14.465 -0.0649  0.1966  1.2870
   6423SM  C16F 8308   5.843   4.338  14.457 -0.4432 -0.7506 -0.1170
   6423SM  H16F 8309   5.952   4.352  14.440 -0.1946  1.4783  2.6116
   6423SM  H16G 8310   5.809   4.418  14.526 -0.7108 -0.3466 -0.7152
   6423SM  C17F 8311   5.762   4.353  14.324 -0.3293  0.1827  0.4448
   6423SM  H17F 8312   5.652   4.342  14.330 -0.3894 -0.2135 -0.9404
   6423SM  H17G 8313   5.798   4.273  14.255 -1.3796 -0.3893  0.5392
   6423SM  C18F 8314   5.791   4.493  14.263 -0.3025 -0.7325  0.2330
   6423SM  H18F 8315   5.898   4.522  14.268 -1.0387  1.9698  2.5925
   6423SM  H18G 8316   5.758   4.570  14.335  0.7343  0.5317 -0.6121
   6423SM  C19F 8317   5.740   4.520  14.123  0.7346  0.1399 -0.3291
   6423SM  H19F 8318   5.635   4.484  14.137  1.2938 -0.9065  1.7030
   6423SM  H19G 8319   5.784   4.460  14.041 -1.5469  0.2463 -1.7123
   6423SM  C20F 8320   5.734   4.666  14.088 -0.4716  0.2219 -0.2772
   6423SM  H20F 8321   5.831   4.716  14.109 -1.5488  2.6980 -0.7754
   6423SM  H20G 8322   5.664   4.712  14.162 -0.6407 -2.1128  1.1057
   6423SM  C21F 8323   5.685   4.683  13.948  0.3627 -0.2321 -0.1064
   6423SM  H21F 8324   5.583   4.642  13.936  0.4735 -0.4614 -0.2722
   6423SM  H21G 8325   5.733   4.619  13.871 -2.8670 -2.5296 -0.3531
   6423SM  C22F 8326   5.689   4.824  13.880 -0.6890 -0.2368  0.0484
   6423SM  H22F 8327   5.658   4.819  13.773 -0.8828 -0.8048  0.1286
   6423SM  H22G 8328   5.795   4.856  13.892 -0.5603 -1.1975  1.6684
   6423SM  C23F 8329   5.605   4.926  13.951  0.1127 -0.4094 -0.0034
   6423SM  H23F 8330   5.642   4.938  14.054 -2.9328 -0.7910  1.2430
   6423SM  H23G 8331   5.498   4.895  13.950  0.2530 -0.9948 -1.7352
   6423SM  H23H 8332   5.627   5.021  13.897 -0.6214  1.6674  3.1258
   6523SM     N 8333   5.899   5.115  16.443 -0.5727  0.6336  0.1004
   6523SM   C15 8334   5.892   5.249  16.516 -0.4069  0.3815  0.7890
   6523SM  H15A 8335   5.913   5.327  16.444  0.4526 -0.6667 -0.1330
   6523SM  H15B 8336   5.954   5.251  16.604 -1.2207  2.0195  1.3608
   6523SM  H15C 8337   5.792   5.267  16.553 -0.2235  0.9165  1.0334
   6523SM   C14 8338   6.045   5.074  16.423 -0.1594 -0.7925  0.6695
   6523SM  H14A 8339   6.087   5.052  16.520  0.8311  2.0113  0.9568
   6523SM  H14B 8340   6.107   5.156  16.390 -3.2340  1.1447 -0.6950
   6523SM  H14C 8341   6.052   4.988  16.359 -3.0593 -0.9049  0.3698
   6523SM   C13 8342   5.823   5.014  16.533  0.6130 -0.0426  0.5795
   6523SM  H13A 8343   5.727   5.053  16.564  0.6768 -1.1520  2.3082
   6523SM  H13B 8344   5.874   4.987  16.624  3.7478 -0.5720 -1.1980
   6523SM  H13C 8345   5.797   4.923  16.481 -1.7465  0.5235  0.6582
   6523SM   C12 8346   5.827   5.129  16.305 -0.4885 -0.2151  0.0293
   6523SM  H12A 8347   5.897   5.191  16.249  0.5454 -1.4802 -0.1206
   6523SM  H12B 8348   5.738   5.187  16.324 -0.3811  0.1379 -0.5037
   6523SM   C11 8349   5.801   4.993  16.226 -0.5212  0.4193 -0.5710
   6523SM  H11A 8350   5.899   4.942  16.235 -1.3737 -1.0460  0.9614
   6523SM  H11B 8351   5.781   5.006  16.117 -0.1074 -3.6431 -1.2834
   6523SM     P 8352   5.685   4.763  16.214  0.4137 -0.2318 -0.2881
   6523SM   O13 8353   5.807   4.680  16.227 -0.2356 -0.5945  0.5278
   6523SM   O14 8354   5.561   4.701  16.268 -0.3319  0.2923 -0.2235
   6523SM   O11 8355   5.658   4.802  16.065 -0.0940 -0.0241 -0.3315
   6523SM   O12 8356   5.708   4.907  16.279 -0.3517 -0.1259 -1.2932
   6523SM   C1S 8357   5.563   4.888  16.011 -0.0692 -0.0161 -0.0050
   6523SM   H1S 8358   5.557   4.981  16.072  1.2114 -0.0936  0.2675
   6523SM   H1T 8359   5.463   4.840  16.017 -0.0256  0.0764  1.6831
   6523SM    NF 8360   5.513   5.038  15.816 -0.8447 -0.0708  0.1159
   6523SM   HNF 8361   5.440   5.025  15.749  1.4165  0.1229 -2.5669
   6523SM   C2S 8362   5.595   4.928  15.859 -0.4113  0.3947 -0.7981
   6523SM   H2S 8363   5.700   4.964  15.851 -0.1867  0.2187  0.8824
   6523SM   C3S 8364   5.602   4.794  15.777 -0.1570 -0.3215 -0.2186
   6523SM   H3S 8365   5.504   4.743  15.784 -2.0024  2.9515  0.2220
   6523SM    O3 8366   5.705   4.705  15.827 -0.1409 -0.0178  0.3016
   6523SM   HO3 8367   5.721   4.730  15.919 -0.7605 -0.9886  0.6881
   6523SM   C4S 8368   5.633   4.825  15.632 -0.0374 -0.2819 -0.5056
   6523SM   H4S 8369   5.737   4.832  15.597 -0.0201  0.6350 -0.3132
   6523SM   C5S 8370   5.534   4.809  15.543  0.3212  0.0478  0.1736
   6523SM   H5S 8371   5.435   4.782  15.581  1.7264 -1.5705  3.0657
   6523SM   C6S 8372   5.552   4.831  15.394 -0.1287 -0.1599  0.3942
   6523SM   H6S 8373   5.451   4.812  15.352 -0.0289  0.5719 -0.1921
   6523SM   H6T 8374   5.604   4.747  15.343 -0.3350 -0.0746  0.0436
   6523SM   C7S 8375   5.610   4.963  15.344  0.0310  0.1048  0.4457
   6523SM   H7S 8376   5.721   4.961  15.349  0.2176 -3.4567 -1.7586
   6523SM   H7T 8377   5.569   5.046  15.406 -2.2141  0.1378 -0.9522
   6523SM   C8S 8378   5.573   4.995  15.196  0.5120 -0.7515  0.4151
   6523SM   H8S 8379   5.615   5.096  15.180 -1.2801 -0.0358 -0.0171
   6523SM   H8T 8380   5.463   5.011  15.190  0.6612 -0.0241 -0.6408
   6523SM   C9S 8381   5.632   4.895  15.092  0.1392 -0.0415 -0.3654
   6523SM   H9S 8382   5.580   4.800  15.115 -0.5638 -0.0265 -1.8188
   6523SM   H9T 8383   5.739   4.885  15.119  0.3751  0.7110 -0.9989
   6523SM  C10S 8384   5.593   4.943  14.953 -0.0301  1.1366  0.3664
   6523SM  H10S 8385   5.492   4.990  14.953 -1.1737 -0.9954 -3.1224
   6523SM  H10T 8386   5.595   4.862  14.877  4.1827 -0.2521  1.6890
   6523SM  C11S 8387   5.695   5.046  14.911 -0.6979  0.4731 -0.0994
   6523SM  H11S 8388   5.704   5.133  14.980 -1.4240 -0.7781  1.6319
   6523SM  H11T 8389   5.659   5.086  14.813 -0.8651  2.6470  0.7925
   6523SM  C12S 8390   5.846   5.009  14.904  1.0423 -0.3758 -1.0825
   6523SM  H12S 8391   5.884   4.965  14.999  1.9647  2.4181 -0.0705
   6523SM  H12T 8392   5.898   5.107  14.897 -1.1136  0.9348  0.0352
   6523SM  C13S 8393   5.880   4.916  14.789  0.3450 -0.0931  0.1171
   6523SM  H13S 8394   5.853   4.814  14.824 -0.7662  0.1879  0.1009
   6523SM  H13T 8395   5.991   4.908  14.788  0.3546 -0.4624  1.5683
   6523SM  C14S 8396   5.822   4.955  14.654  0.0079 -0.0154 -0.5123
   6523SM  H14S 8397   5.861   5.059  14.647  1.8927 -0.4922  1.6633
   6523SM  H14T 8398   5.711   4.944  14.653  0.1069 -1.9024  1.6291
   6523SM  C15S 8399   5.865   4.865  14.538  0.4768  0.5625  0.6503
   6523SM  H15S 8400   5.837   4.764  14.573 -0.6144  1.3207  2.0789
   6523SM  H15T 8401   5.975   4.864  14.522  0.3138 -0.9978 -0.5625
   6523SM  C16S 8402   5.789   4.903  14.403 -0.1299  0.3184 -0.4533
   6523SM  H16S 8403   5.700   4.963  14.429 -0.2365  0.1227 -0.3684
   6523SM  H16T 8404   5.757   4.809  14.353 -2.2101  0.4286  0.5943
   6523SM  C17S 8405   5.872   4.986  14.302 -0.4073  0.5739 -0.7975
   6523SM  H17S 8406   5.879   5.094  14.327 -2.1544  0.6919 -0.7295
   6523SM  H17T 8407   5.808   4.982  14.211 -1.6272  0.4532  0.0399
   6523SM  C18S 8408   6.013   4.935  14.256  0.0076 -0.1935  0.0216
   6523SM  H18S 8409   6.012   4.846  14.190  2.6137 -0.5606  0.3366
   6523SM  H18T 8410   6.080   4.917  14.344  0.4072 -0.3909 -0.3177
   6523SM  H18U 8411   6.070   5.005  14.191 -0.3796  0.9989  0.9279
   6523SM   C1F 8412   5.529   5.165  15.839  0.3668  0.0721  0.5853
   6523SM    OF 8413   5.599   5.200  15.929  0.6078 -0.5177  0.2029
   6523SM   C2F 8414   5.463   5.261  15.746  0.2363  0.3339 -0.0909
   6523SM   H2F 8415   5.372   5.301  15.795 -0.5803 -0.7352 -0.6835
   6523SM   H2G 8416   5.423   5.198  15.663  2.6613 -2.5650  0.7583
   6523SM   C3F 8417   5.560   5.365  15.691 -0.2308  0.5373  0.4881
   6523SM   H3F 8418   5.602   5.427  15.773 -0.0447  0.0812  0.7427
   6523SM   H3G 8419   5.498   5.429  15.626 -1.4614 -0.1431  0.9621
   6523SM   C4F 8420   5.664   5.293  15.600  0.7841  0.2496  0.8536
   6523SM   H4F 8421   5.611   5.225  15.530  0.0254  1.8850 -0.2335
   6523SM   H4G 8422   5.731   5.232  15.665  1.7979  0.9702  0.5111
   6523SM   C5F 8423   5.755   5.393  15.516  0.6088 -0.1627  0.8081
   6523SM   H5F 8424   5.835   5.432  15.583 -0.3258  1.0907  1.2423
   6523SM   H5G 8425   5.681   5.473  15.490 -1.1690 -2.2080 -0.7720
   6523SM   C6F 8426   5.792   5.341  15.375 -0.1018 -0.5061 -0.9581
   6523SM   H6F 8427   5.828   5.426  15.313  3.0026 -1.3347 -0.4683
   6523SM   H6G 8428   5.718   5.279  15.320  1.5665 -2.4475 -1.1894
   6523SM   C7F 8429   5.913   5.254  15.400 -0.5971  0.4993 -1.0062
   6523SM   H7F 8430   5.891   5.165  15.463  0.4281  0.5103 -0.6082
   6523SM   H7G 8431   5.979   5.324  15.455 -1.6912 -1.3944  3.0764
   6523SM   C8F 8432   5.982   5.209  15.275 -0.5411 -0.2294  0.1331
   6523SM   H8F 8433   5.990   5.293  15.203 -0.3968 -0.1521  0.2381
   6523SM   H8G 8434   5.926   5.127  15.225  0.2701 -1.0332  0.4975
   6523SM   C9F 8435   6.136   5.176  15.302  0.0121  0.1651 -0.4315
   6523SM   H9F 8436   6.127   5.107  15.388  3.7353 -0.3331 -0.2901
   6523SM   H9G 8437   6.192   5.267  15.334 -0.1577 -0.9629  3.5073
   6523SM  C10F 8438   6.199   5.108  15.185  0.3696 -0.0018 -0.0776
   6523SM  H10F 8439   6.214   5.182  15.104 -0.8695  0.5349  0.1604
   6523SM  H10G 8440   6.127   5.038  15.136  0.8633  0.5670 -1.6946
   6523SM  C11F 8441   6.330   5.041  15.220  0.3075  1.0261  0.0644
   6523SM  H11F 8442   6.315   4.977  15.310 -0.4167  1.9871  0.6392
   6523SM  H11G 8443   6.408   5.115  15.248  0.6760  0.1232  1.5926
   6523SM  C12F 8444   6.382   4.961  15.115  0.1473  0.4754  1.0040
   6523SM  H12F 8445   6.385   5.024  15.023  0.8171 -2.8707 -1.4250
   6523SM  H12G 8446   6.311   4.882  15.084  0.9975  0.0548  0.0700
   6523SM  C13F 8447   6.526   4.910  15.135 -0.5526  0.3742 -0.4116
   6523SM  H13F 8448   6.537   4.856  15.231  0.4541  1.1550 -0.0712
   6523SM  H13G 8449   6.601   4.992  15.133  0.2647 -0.2720  1.5803
   6523SM  C14F 8450   6.570   4.808  15.027  0.0134  0.5326  0.0045
   6523SM  H14F 8451   6.494   4.727  15.023 -0.3034  0.8730 -1.1480
   6523SM  H14G 8452   6.663   4.753  15.053 -0.7098 -1.5683 -1.5732
   6523SM  C15F 8453   6.568   4.871  14.884  0.6807 -0.4230  0.1022
   6523SM  H15F 8454   6.633   4.961  14.891  0.6751 -0.1550 -2.3837
   6523SM  H15G 8455   6.467   4.910  14.860  1.3242  2.0529  1.0530
   6523SM  C16F 8456   6.629   4.776  14.780 -0.0921 -0.3528 -0.0906
   6523SM  H16F 8457   6.702   4.702  14.818 -0.6865 -0.0308  1.8333
   6523SM  H16G 8458   6.675   4.828  14.693 -0.6430 -2.1255 -1.4986
   6523SM  C17F 8459   6.511   4.684  14.735 -0.5134 -0.7871  0.1489
   6523SM  H17F 8460   6.434   4.746  14.684 -1.8794 -1.5648  1.2111
   6523SM  H17G 8461   6.457   4.643  14.823  0.5307 -0.7051  0.8343
   6523SM  C18F 8462   6.555   4.578  14.631 -0.1023 -0.0408  0.3558
   6523SM  H18F 8463   6.462   4.527  14.598  0.1906  0.5901 -1.5803
   6523SM  H18G 8464   6.614   4.512  14.698 -1.4220 -0.2637  1.3373
   6523SM  C19F 8465   6.649   4.622  14.518 -0.2811  0.0099  0.2866
   6523SM  H19F 8466   6.746   4.650  14.564 -0.3942  1.0519 -0.0808
   6523SM  H19G 8467   6.621   4.713  14.460  0.7218 -0.5217 -1.0935
   6523SM  C20F 8468   6.676   4.516  14.408  0.2563  0.3761  0.2271
   6523SM  H20F 8469   6.759   4.565  14.353 -1.8744  4.0359 -0.0303
   6523SM  H20G 8470   6.592   4.499  14.337  1.6043 -1.2467 -1.0752
   6523SM  C21F 8471   6.704   4.378  14.465  0.0755  0.1152  0.5922
   6523SM  H21F 8472   6.629   4.351  14.542 -0.9119 -1.8685 -0.9819
   6523SM  H21G 8473   6.807   4.367  14.506 -0.2275 -2.2893  0.8793
   6523SM  C22F 8474   6.698   4.256  14.367 -1.0232 -0.8322  1.0321
   6523SM  H22F 8475   6.597   4.242  14.322 -0.7342  2.7613 -1.1925
   6523SM  H22G 8476   6.720   4.168  14.431 -1.5517 -1.2069  0.7018
   6523SM  C23F 8477   6.790   4.276  14.241 -1.0656  0.0508 -0.6570
   6523SM  H23F 8478   6.742   4.356  14.180 -1.9002  0.0168 -0.0607
   6523SM  H23G 8479   6.799   4.187  14.174 -1.0208 -1.9669  1.9017
   6523SM  H23H 8480   6.892   4.303  14.275 -1.1011 -0.0930 -0.4415
   6623SM     N 8481   4.241   3.013  16.670 -0.1791  0.1274 -0.7734
   6623SM   C15 8482   4.170   2.887  16.695  0.7659  0.1412  0.1978
   6623SM  H15A 8483   4.143   2.893  16.799 -2.5770  0.4924 -0.5822
   6623SM  H15B 8484   4.240   2.813  16.658  1.9076  1.7180 -0.9260
   6623SM  H15C 8485   4.077   2.870  16.644 -0.3313  1.2125  1.7593
   6623SM   C14 8486   4.166   3.133  16.722 -0.1318 -0.7738  0.5824
   6623SM  H14A 8487   4.079   3.158  16.663 -0.8407  0.2388  1.9629
   6623SM  H14B 8488   4.235   3.215  16.710 -1.3034  0.2928  0.9108
   6623SM  H14C 8489   4.127   3.133  16.823 -0.7695  1.3222  0.3965
   6623SM   C13 8490   4.360   3.003  16.757 -0.0345 -0.0631 -0.1724
   6623SM  H13A 8491   4.410   3.099  16.767 -2.0551  1.3326 -2.4271
   6623SM  H13B 8492   4.432   2.932  16.720 -0.2650 -0.3586 -0.0492
   6623SM  H13C 8493   4.330   2.980  16.858  1.2060  0.9689  0.4761
   6623SM   C12 8494   4.269   3.027  16.527 -0.2644  0.0691  0.0992
   6623SM  H12A 8495   4.320   2.935  16.500  0.3469 -0.1899  1.9526
   6623SM  H12B 8496   4.346   3.102  16.524  0.6250 -0.8540 -0.7783
   6623SM   C11 8497   4.152   3.063  16.429 -0.0936 -0.4781 -0.1586
   6623SM  H11A 8498   4.190   3.075  16.326 -1.7735  0.7515 -0.6678
   6623SM  H11B 8499   4.110   3.158  16.469  0.9126 -0.8365  1.8905
   6623SM     P 8500   4.081   2.823  16.353  0.8795  0.2690  0.1328
   6623SM   O13 8501   4.204   2.773  16.414  0.8905 -0.3634  0.5516
   6623SM   O14 8502   3.957   2.738  16.362  0.7414 -0.1772  0.1835
   6623SM   O11 8503   4.107   2.851  16.203 -0.4588 -0.6645  0.1666
   6623SM   O12 8504   4.048   2.961  16.428  1.0071 -0.1686 -0.6388
   6623SM   C1S 8505   4.133   2.740  16.121  0.2146  0.3565 -0.1743
   6623SM   H1S 8506   4.060   2.658  16.135  2.8273 -2.2260 -0.6021
   6623SM   H1T 8507   4.235   2.705  16.149 -0.1217  0.4207  1.2046
   6623SM    NF 8508   4.153   2.658  15.894  0.0066 -0.0151  0.1890
   6623SM   HNF 8509   4.248   2.646  15.866 -0.5823 -2.6588 -0.9525
   6623SM   C2S 8510   4.143   2.774  15.973 -0.0701 -0.6830  0.0059
   6623SM   H2S 8511   4.053   2.829  15.937  0.6905 -1.4477 -3.4217
   6623SM   C3S 8512   4.250   2.883  15.945 -0.4713 -0.2436 -0.1408
   6623SM   H3S 8513   4.347   2.856  15.992 -0.7507 -0.4359  0.3363
   6623SM    O3 8514   4.222   2.999  16.020  0.9017 -0.0130 -0.1876
   6623SM   HO3 8515   4.142   2.982  16.071  0.4656  2.3009 -0.0029
   6623SM   C4S 8516   4.254   2.913  15.797  0.1689 -0.1773  0.2976
   6623SM   H4S 8517   4.176   2.977  15.752  3.3889  2.7087 -1.7027
   6623SM   C5S 8518   4.358   2.884  15.721 -0.3822 -0.3186  0.4672
   6623SM   H5S 8519   4.444   2.830  15.764 -1.2481 -0.0837  2.6419
   6623SM   C6S 8520   4.378   2.930  15.581  0.0714  0.7058  0.8193
   6623SM   H6S 8521   4.408   2.839  15.524  0.6293  0.0891  2.0601
   6623SM   H6T 8522   4.461   3.003  15.575 -0.4199  1.1553 -1.0876
   6623SM   C7S 8523   4.272   3.005  15.494  0.4038 -0.2085  0.6356
   6623SM   H7S 8524   4.314   3.059  15.407 -1.7062 -0.0157 -0.3247
   6623SM   H7T 8525   4.209   3.076  15.552  0.0918 -0.7078  0.9271
   6623SM   C8S 8526   4.166   2.905  15.447 -0.9306 -0.2195  0.2681
   6623SM   H8S 8527   4.111   2.856  15.530 -2.4802  1.0256  0.0191
   6623SM   H8T 8528   4.212   2.834  15.375  1.0285 -1.2268  2.3713
   6623SM   C9S 8529   4.046   2.972  15.374  0.0273 -0.1555  0.3455
   6623SM   H9S 8530   4.070   3.060  15.311  0.5010  0.6050  1.5601
   6623SM   H9T 8531   3.985   3.018  15.454 -0.6523  1.3341 -0.9825
   6623SM  C10S 8532   3.971   2.870  15.283  0.8294 -0.1299 -0.3335
   6623SM  H10S 8533   3.864   2.899  15.278  0.5729 -0.8793  0.6100
   6623SM  H10T 8534   3.961   2.776  15.342  0.5984  1.3237  2.0753
   6623SM  C11S 8535   4.031   2.851  15.146  0.8551  0.5978 -0.3961
   6623SM  H11S 8536   4.134   2.808  15.142  0.4565 -0.2865 -1.6874
   6623SM  H11T 8537   4.045   2.954  15.108  3.0407 -0.3531 -2.4644
   6623SM  C12S 8538   3.930   2.786  15.052  0.0261  0.4489 -0.2227
   6623SM  H12S 8539   3.849   2.859  15.034  0.2583  0.6621 -0.4200
   6623SM  H12T 8540   3.876   2.695  15.086 -1.0489  0.9468 -0.5608
   6623SM  C13S 8541   3.992   2.763  14.916 -0.1610  0.0153 -0.8069
   6623SM  H13S 8542   4.062   2.678  14.924  0.1642  0.4730  2.1779
   6623SM  H13T 8543   4.064   2.844  14.891  1.2831 -1.2394 -0.8266
   6623SM  C14S 8544   3.886   2.757  14.808  0.0355  0.2601  0.7239
   6623SM  H14S 8545   3.812   2.835  14.834  0.8099  0.5512  2.1544
   6623SM  H14T 8546   3.837   2.658  14.808  0.1428  0.1764  2.3821
   6623SM  C15S 8547   3.947   2.798  14.675  0.4582 -0.0232  0.5776
   6623SM  H15S 8548   4.048   2.755  14.663  1.2185  2.2827 -2.6853
   6623SM  H15T 8549   3.961   2.909  14.672 -0.9060  0.1549  0.1404
   6623SM  C16S 8550   3.862   2.734  14.573 -0.4417 -0.4031 -0.1530
   6623SM  H16S 8551   3.758   2.770  14.589 -1.0640 -2.1365 -0.1203
   6623SM  H16T 8552   3.860   2.624  14.586  0.3280 -0.2879  1.0850
   6623SM  C17S 8553   3.906   2.767  14.425  0.0551 -0.7901 -0.4664
   6623SM  H17S 8554   4.007   2.725  14.406 -0.2281 -1.2621 -0.9438
   6623SM  H17T 8555   3.904   2.878  14.416 -1.6664 -0.7464  0.1330
   6623SM  C18S 8556   3.805   2.714  14.315  0.2604  0.3381 -0.3010
   6623SM  H18S 8557   3.793   2.606  14.337 -1.2848  0.4703 -0.3834
   6623SM  H18T 8558   3.851   2.712  14.214  1.5184  0.5507  0.2509
   6623SM  H18U 8559   3.709   2.769  14.326  0.3365  0.8643 -1.8701
   6623SM   C1F 8560   4.063   2.555  15.873  0.1941 -0.3057  0.5273
   6623SM    OF 8561   3.962   2.541  15.940  0.2076 -0.2853  0.1215
   6623SM   C2F 8562   4.105   2.443  15.782  0.5327 -0.3296  0.2011
   6623SM   H2F 8563   4.044   2.351  15.768  0.1800 -0.1673  0.6414
   6623SM   H2G 8564   4.203   2.409  15.822  1.5294  1.2866 -0.7158
   6623SM   C3F 8565   4.125   2.503  15.638  0.6923 -0.1950 -0.3164
   6623SM   H3F 8566   4.184   2.597  15.647 -0.5441  0.5304  0.5273
   6623SM   H3G 8567   4.028   2.546  15.605  1.2152 -0.4298 -2.2764
   6623SM   C4F 8568   4.186   2.406  15.536  0.5108  0.4394 -0.0974
   6623SM   H4F 8569   4.115   2.320  15.539  1.0019  0.0482  1.0868
   6623SM   H4G 8570   4.292   2.378  15.556  1.0755  1.0744 -2.0123
   6623SM   C5F 8571   4.176   2.465  15.390  0.5638 -0.2219  0.3704
   6623SM   H5F 8572   4.238   2.555  15.374 -2.2620  1.5451 -1.5448
   6623SM   H5G 8573   4.073   2.507  15.385 -0.1409 -1.9020  0.0107
   6623SM   C6F 8574   4.198   2.372  15.272  0.5256 -0.1952 -0.1927
   6623SM   H6F 8575   4.129   2.286  15.262 -1.6957  1.5499 -0.6885
   6623SM   H6G 8576   4.298   2.326  15.287 -0.0714 -0.7280  2.7363
   6623SM   C7F 8577   4.196   2.452  15.140 -0.0067  0.1739  0.2753
   6623SM   H7F 8578   4.260   2.542  15.149 -0.8381  0.7152  0.8786
   6623SM   H7G 8579   4.096   2.496  15.122  0.6462  1.8620  0.5622
   6623SM   C8F 8580   4.218   2.365  15.016  0.3678 -0.5694  1.1276
   6623SM   H8F 8581   4.160   2.270  15.015  0.3816 -0.6286 -1.5233
   6623SM   H8G 8582   4.325   2.332  15.014  0.5564 -0.0389  2.0464
   6623SM   C9F 8583   4.182   2.446  14.889 -0.3541  0.3062 -0.3170
   6623SM   H9F 8584   4.250   2.534  14.884  0.7866 -0.6271 -1.9592
   6623SM   H9G 8585   4.078   2.481  14.903  0.2532  2.1595 -0.1519
   6623SM  C10F 8586   4.187   2.364  14.765  0.0513 -0.2972  0.0732
   6623SM  H10F 8587   4.126   2.271  14.771 -0.9047  0.3625  0.8076
   6623SM  H10G 8588   4.290   2.326  14.745  0.4149  0.7589 -0.1031
   6623SM  C11F 8589   4.150   2.454  14.648  0.1831 -0.0597 -0.1172
   6623SM  H11F 8590   4.232   2.527  14.633  0.9245 -1.1765 -1.8688
   6623SM  H11G 8591   4.051   2.503  14.662  0.4306  0.5057 -0.3220
   6623SM  C12F 8592   4.121   2.368  14.526  0.1932 -0.1848 -0.5057
   6623SM  H12F 8593   4.033   2.302  14.545 -0.7397  0.6769 -1.6973
   6623SM  H12G 8594   4.194   2.286  14.508 -2.9346 -3.2830 -0.2549
   6623SM  C13F 8595   4.113   2.445  14.399  0.2480  0.4019 -0.4965
   6623SM  H13F 8596   4.040   2.528  14.410 -1.1328 -0.8069 -0.2078
   6623SM  H13G 8597   4.066   2.371  14.331  0.7475  0.7707 -1.2503
   6623SM  C14F 8598   4.244   2.495  14.332  0.0245  0.1761 -0.5303
   6623SM  H14F 8599   4.304   2.409  14.297  0.9372 -0.2533  1.8801
   6623SM  H14G 8600   4.309   2.544  14.408  2.4658 -1.4830 -1.4349
   6623SM  C15F 8601   4.206   2.579  14.210 -0.2539  0.5967  0.7611
   6623SM  H15F 8602   4.147   2.668  14.241 -0.2971  1.3522 -1.3441
   6623SM  H15G 8603   4.136   2.525  14.143 -1.2000  1.0151  1.3819
   6623SM  C16F 8604   4.332   2.612  14.134  0.6020  0.4027 -0.6046
   6623SM  H16F 8605   4.406   2.530  14.118  0.6624  0.3646 -0.1399
   6623SM  H16G 8606   4.387   2.694  14.184  1.1468  0.1260 -0.7367
   6623SM  C17F 8607   4.292   2.662  13.996 -0.6055  0.0325  1.3820
   6623SM  H17F 8608   4.254   2.766  14.004 -1.6270 -0.3747  2.0420
   6623SM  H17G 8609   4.212   2.599  13.952  1.2653 -0.6591 -1.3202
   6623SM  C18F 8610   4.402   2.657  13.888 -0.0041 -0.0498 -0.2742
   6623SM  H18F 8611   4.434   2.555  13.858  2.5424  0.9528 -1.2635
   6623SM  H18G 8612   4.486   2.720  13.923 -1.5040  1.9549 -0.1485
   6623SM  C19F 8613   4.357   2.728  13.762 -0.3010  0.6575 -0.8563
   6623SM  H19F 8614   4.320   2.829  13.789  0.7558  0.5064  1.3810
   6623SM  H19G 8615   4.283   2.670  13.703 -1.9427  1.3482  0.4673
   6623SM  C20F 8616   4.474   2.747  13.667  0.1140 -0.2981 -0.0247
   6623SM  H20F 8617   4.514   2.644  13.653 -0.7094 -0.8986  1.7751
   6623SM  H20G 8618   4.552   2.813  13.709  1.2236 -0.8865 -1.0785
   6623SM  C21F 8619   4.442   2.820  13.534  0.1769  0.9405 -0.0236
   6623SM  H21F 8620   4.394   2.915  13.566  0.5905  1.8295 -1.9209
   6623SM  H21G 8621   4.366   2.753  13.488  1.3381 -1.2666  1.1076
   6623SM  C22F 8622   4.565   2.840  13.447  0.2796  0.0069  0.2884
   6623SM  H22F 8623   4.612   2.935  13.479  1.3561 -0.0873 -0.9475
   6623SM  H22G 8624   4.526   2.864  13.346  0.4444  1.3056  0.5178
   6623SM  C23F 8625   4.670   2.736  13.445 -0.6159  0.1034 -0.4750
   6623SM  H23F 8626   4.637   2.631  13.433  1.3663 -0.5420 -0.6451
   6623SM  H23G 8627   4.739   2.760  13.529  0.9091 -1.7486 -1.1260
   6623SM  H23H 8628   4.736   2.738  13.356 -1.1900 -2.3239 -1.0228
   6723SM     N 8629   3.232   6.553  16.266 -0.0702  0.0516 -0.1838
   6723SM   C15 8630   3.158   6.681  16.290 -1.0221  0.5335 -0.4687
   6723SM  H15A 8631   3.075   6.658  16.355 -1.3488 -0.1249 -1.1125
   6723SM  H15B 8632   3.126   6.721  16.195 -1.0780  0.2546 -0.5665
   6723SM  H15C 8633   3.228   6.747  16.340  1.5928 -1.2324 -1.6073
   6723SM   C14 8634   3.143   6.466  16.182  0.0957  1.1157  0.4892
   6723SM  H14A 8635   3.194   6.372  16.164 -1.1113  0.5744 -0.2558
   6723SM  H14B 8636   3.146   6.511  16.084  1.6219  0.5044  0.2099
   6723SM  H14C 8637   3.047   6.444  16.225 -0.1933 -0.5470 -0.8592
   6723SM   C13 8638   3.350   6.581  16.169  0.7676 -0.5589 -0.3134
   6723SM  H13A 8639   3.374   6.489  16.119  0.0167 -1.6577  1.2612
   6723SM  H13B 8640   3.435   6.597  16.233  0.9246 -2.7912  0.1051
   6723SM  H13C 8641   3.327   6.668  16.109 -0.5770 -0.2025  0.6528
   6723SM   C12 8642   3.281   6.492  16.393 -0.0308 -0.9331  0.0325
   6723SM  H12A 8643   3.198   6.468  16.457 -0.9455 -1.7116 -1.4069
   6723SM  H12B 8644   3.337   6.566  16.449  2.6752 -2.4237 -0.4865
   6723SM   C11 8645   3.355   6.358  16.394 -0.3589 -0.1344 -0.8983
   6723SM  H11A 8646   3.376   6.348  16.502  0.1083  2.9633 -0.6152
   6723SM  H11B 8647   3.447   6.365  16.331  1.4574  3.3729  1.7831
   6723SM     P 8648   3.318   6.107  16.359 -0.2926 -0.0679  0.1442
   6723SM   O13 8649   3.430   6.095  16.450  0.5249  0.7189 -0.0408
   6723SM   O14 8650   3.201   6.023  16.388  0.3970  0.7361 -0.3998
   6723SM   O11 8651   3.367   6.082  16.203  0.0427 -0.0126 -0.8740
   6723SM   O12 8652   3.266   6.256  16.355  0.4398 -0.2526  0.2374
   6723SM   C1S 8653   3.296   6.156  16.106 -0.5814  0.0066  0.6028
   6723SM   H1S 8654   3.323   6.263  16.119 -0.5558 -0.1689  2.1733
   6723SM   H1T 8655   3.186   6.145  16.115 -0.6431 -0.8950 -0.8987
   6723SM    NF 8656   3.299   6.231  15.863 -0.5247  0.1761  0.0109
   6723SM   HNF 8657   3.227   6.211  15.797 -1.7408 -0.2124  1.3825
   6723SM   C2S 8658   3.333   6.121  15.958 -0.4368  0.4411  0.2966
   6723SM   H2S 8659   3.443   6.105  15.951 -0.7950 -2.9238  0.9577
   6723SM   C3S 8660   3.278   5.978  15.934 -0.4261  0.3575  0.9426
   6723SM   H3S 8661   3.168   5.977  15.950 -0.7065 -1.4141 -0.6833
   6723SM    O3 8662   3.347   5.884  16.012  0.0827  0.1278 -0.3284
   6723SM   HO3 8663   3.396   5.940  16.072 -0.8080 -1.3190  1.9126
   6723SM   C4S 8664   3.290   5.948  15.791 -0.0921  0.4952  0.7690
   6723SM   H4S 8665   3.198   5.964  15.733  0.6842  1.1090 -0.3089
   6723SM   C5S 8666   3.394   5.895  15.722 -0.1704 -0.4828  0.0606
   6723SM   H5S 8667   3.493   5.875  15.767  0.5370  3.4624  0.6169
   6723SM   C6S 8668   3.371   5.862  15.580 -0.2356  0.1537  0.5073
   6723SM   H6S 8669   3.266   5.828  15.569 -1.1401  2.4765  1.1931
   6723SM   H6T 8670   3.440   5.777  15.561  1.0933  0.8795  1.8354
   6723SM   C7S 8671   3.395   5.975  15.476  0.1458  0.6339  0.9853
   6723SM   H7S 8672   3.497   6.014  15.498  0.0131  0.8465  1.2241
   6723SM   H7T 8673   3.320   6.056  15.490 -0.5672  0.0074  0.8493
   6723SM   C8S 8674   3.375   5.933  15.330 -0.7698  0.2816  0.0659
   6723SM   H8S 8675   3.273   5.896  15.306 -0.4282  0.0792 -1.1169
   6723SM   H8T 8676   3.441   5.846  15.310  0.1936  0.2541  2.8389
   6723SM   C9S 8677   3.423   6.037  15.232 -0.5885 -0.3104 -0.3060
   6723SM   H9S 8678   3.526   6.062  15.265 -1.2119 -1.0761  2.4102
   6723SM   H9T 8679   3.377   6.137  15.244 -0.6582 -0.2376 -1.1047
   6723SM  C10S 8680   3.413   5.988  15.088  0.4246  0.8640  0.3354
   6723SM  H10S 8681   3.306   5.980  15.058  0.7161  1.8403 -1.0532
   6723SM  H10T 8682   3.465   5.891  15.074 -0.9666  0.0317  0.6905
   6723SM  C11S 8683   3.485   6.091  14.993  0.5659  0.1246  0.9687
   6723SM  H11S 8684   3.583   6.090  15.045  1.5714  0.7557 -0.8201
   6723SM  H11T 8685   3.421   6.181  15.004 -1.0739 -0.4431 -2.4346
   6723SM  C12S 8686   3.479   6.041  14.850 -0.2192 -0.0228  0.0679
   6723SM  H12S 8687   3.372   6.038  14.821  0.3868 -0.8348 -2.2489
   6723SM  H12T 8688   3.513   5.937  14.833 -0.2454  0.3726 -2.8048
   6723SM  C13S 8689   3.554   6.138  14.753  0.6411 -0.0244 -0.1955
   6723SM  H13S 8690   3.660   6.145  14.785 -0.2523  0.7699  2.9423
   6723SM  H13T 8691   3.504   6.236  14.768  1.4689  0.3790 -0.0411
   6723SM  C14S 8692   3.543   6.089  14.610 -0.1068  0.2234  0.5338
   6723SM  H14S 8693   3.436   6.100  14.584 -0.2096 -2.5341 -0.5370
   6723SM  H14T 8694   3.567   5.981  14.604  0.3326  0.2914  0.9995
   6723SM  C15S 8695   3.631   6.166  14.505  0.2307 -0.2520  0.5059
   6723SM  H15S 8696   3.731   6.175  14.554 -0.0670 -1.9206  1.4956
   6723SM  H15T 8697   3.592   6.270  14.492  0.5424 -0.1120  0.6769
   6723SM  C16S 8698   3.659   6.102  14.363  0.6944 -0.0359  0.6855
   6723SM  H16S 8699   3.567   6.082  14.303 -1.4850  0.8711  3.4717
   6723SM  H16T 8700   3.708   6.004  14.380 -0.3932 -0.8780 -0.7183
   6723SM  C17S 8701   3.763   6.186  14.281 -0.3414 -0.0047  0.5063
   6723SM  H17S 8702   3.858   6.189  14.338 -0.3182  0.4104  0.4498
   6723SM  H17T 8703   3.713   6.285  14.266  0.5500  0.3525 -0.2261
   6723SM  C18S 8704   3.777   6.123  14.136 -0.2797 -0.5187  0.4063
   6723SM  H18S 8705   3.774   6.012  14.139  2.0984 -0.6314  2.1227
   6723SM  H18T 8706   3.880   6.148  14.103  0.5396 -0.3784  2.8126
   6723SM  H18U 8707   3.712   6.161  14.055  1.3304  0.6878 -0.3792
   6723SM   C1F 8708   3.364   6.348  15.865  0.2714 -0.4322 -0.0448
   6723SM    OF 8709   3.451   6.380  15.948  0.3005  0.4387  0.3356
   6723SM   C2F 8710   3.310   6.453  15.768 -0.5921 -0.2561 -0.9243
   6723SM   H2F 8711   3.302   6.544  15.830 -2.2559 -0.7531 -0.3591
   6723SM   H2G 8712   3.209   6.428  15.728 -0.7999  0.6433 -0.9871
   6723SM   C3F 8713   3.410   6.493  15.661 -0.6815  0.5027  0.2527
   6723SM   H3F 8714   3.500   6.531  15.713 -1.6275  1.9660  0.8750
   6723SM   H3G 8715   3.377   6.579  15.600 -0.5907 -0.6503 -1.5059
   6723SM   C4F 8716   3.460   6.374  15.570 -1.3290 -0.6475  0.7806
   6723SM   H4F 8717   3.382   6.330  15.505 -0.5636 -1.1023  0.1569
   6723SM   H4G 8718   3.502   6.287  15.625 -1.1953  0.1182  1.9414
   6723SM   C5F 8719   3.575   6.431  15.475  0.3559 -0.3109  0.3975
   6723SM   H5F 8720   3.664   6.447  15.540  0.6420 -1.5925  0.3438
   6723SM   H5G 8721   3.536   6.530  15.443  0.8403  0.4615  2.0680
   6723SM   C6F 8722   3.612   6.338  15.359  0.5756 -0.5649  0.8110
   6723SM   H6F 8723   3.530   6.332  15.285  0.2425 -0.1962  1.1404
   6723SM   H6G 8724   3.617   6.238  15.406  2.1445 -1.7280 -1.6818
   6723SM   C7F 8725   3.753   6.363  15.302 -0.2508  0.2375  0.1352
   6723SM   H7F 8726   3.828   6.352  15.383  0.7929  0.6576 -0.7537
   6723SM   H7G 8727   3.766   6.472  15.283 -1.3008  0.5213  0.9610
   6723SM   C8F 8728   3.786   6.280  15.172 -0.1323 -0.2696  0.5044
   6723SM   H8F 8729   3.714   6.289  15.087 -1.0267  0.0758  1.2790
   6723SM   H8G 8730   3.783   6.174  15.202 -0.0913 -1.1484 -2.3037
   6723SM   C9F 8731   3.914   6.321  15.095 -0.0174 -0.0941 -0.0688
   6723SM   H9F 8732   4.003   6.334  15.160  0.1897 -0.6278 -0.2438
   6723SM   H9G 8733   3.893   6.418  15.047  0.0707 -1.1507 -2.3559
   6723SM  C10F 8734   3.944   6.223  14.979 -0.1575 -0.3876  0.2445
   6723SM  H10F 8735   3.858   6.237  14.910  1.8562  1.2230 -2.1241
   6723SM  H10G 8736   3.931   6.115  15.002 -1.4057 -1.0839 -3.0727
   6723SM  C11F 8737   4.061   6.255  14.890 -0.1569 -0.6609 -0.0878
   6723SM  H11F 8738   4.156   6.250  14.947  0.6038  0.5743 -1.2035
   6723SM  H11G 8739   4.051   6.358  14.849  0.3676 -0.6938 -0.2982
   6723SM  C12F 8740   4.059   6.176  14.757  1.2232 -0.3965 -0.0188
   6723SM  H12F 8741   4.133   6.222  14.688 -0.6820  1.3091 -1.0632
   6723SM  H12G 8742   3.962   6.185  14.703  0.1856 -0.4442  1.7660
   6723SM  C13F 8743   4.086   6.025  14.782  0.0939  1.0000 -0.3806
   6723SM  H13F 8744   3.995   5.973  14.817 -0.9761  2.3221 -1.1028
   6723SM  H13G 8745   4.160   6.018  14.865  0.3157  1.4930 -0.5313
   6723SM  C14F 8746   4.134   5.954  14.653 -0.3312 -0.1501  0.1728
   6723SM  H14F 8747   4.152   5.848  14.683 -1.9396 -1.2718 -2.5290
   6723SM  H14G 8748   4.228   5.991  14.607 -1.7832 -0.0612 -2.9044
   6723SM  C15F 8749   4.027   5.957  14.536 -0.3682 -0.2060 -0.2638
   6723SM  H15F 8750   3.971   6.053  14.535 -0.9494 -0.5249  0.6759
   6723SM  H15G 8751   3.946   5.883  14.555  0.1042 -0.6064  0.2150
   6723SM  C16F 8752   4.082   5.943  14.395  0.3995  0.9178  0.2290
   6723SM  H16F 8753   4.156   6.018  14.361  0.2047  0.1498 -2.1316
   6723SM  H16G 8754   3.994   5.972  14.334  0.0690 -0.7153 -0.1239
   6723SM  C17F 8755   4.123   5.800  14.349  0.2729  0.0383  0.1303
   6723SM  H17F 8756   4.141   5.810  14.239  0.6583 -3.9608 -0.2910
   6723SM  H17G 8757   4.040   5.728  14.367 -0.8375  0.7306 -1.8365
   6723SM  C18F 8758   4.259   5.745  14.411  0.6729 -0.4231  0.5395
   6723SM  H18F 8759   4.243   5.743  14.520 -0.7105  1.4979  0.4339
   6723SM  H18G 8760   4.334   5.818  14.374 -1.6356  0.7132 -2.4298
   6723SM  C19F 8761   4.294   5.613  14.362 -0.2382  0.2761  0.6151
   6723SM  H19F 8762   4.402   5.597  14.380 -0.0352  0.7778 -0.1295
   6723SM  H19G 8763   4.284   5.610  14.252 -1.5108 -2.0149  0.7249
   6723SM  C20F 8764   4.220   5.494  14.431 -0.1144 -0.0369  0.3318
   6723SM  H20F 8765   4.123   5.526  14.475  0.4922 -0.5925  2.1300
   6723SM  H20G 8766   4.276   5.443  14.512  0.7907 -1.8492 -1.3381
   6723SM  C21F 8767   4.192   5.372  14.345 -0.0778  0.4759 -0.1281
   6723SM  H21F 8768   4.167   5.279  14.401  1.0993 -0.4993 -1.1664
   6723SM  H21G 8769   4.284   5.335  14.295  0.3390 -0.1457  1.0736
   6723SM  C22F 8770   4.092   5.391  14.232  0.2086 -0.1297  1.1227
   6723SM  H22F 8771   4.145   5.459  14.161 -1.6142 -0.2172 -0.3932
   6723SM  H22G 8772   4.002   5.436  14.278  0.4942  0.0757  1.4894
   6723SM  C23F 8773   4.042   5.266  14.161 -0.0106 -0.5479  0.1852
   6723SM  H23F 8774   3.986   5.193  14.224  0.0430 -0.3182  0.5046
   6723SM  H23G 8775   4.123   5.205  14.116 -0.4191 -0.9763  0.0194
   6723SM  H23H 8776   3.964   5.283  14.083  0.1835 -3.7873 -0.8499
   6823SM     N 8777   3.183   1.651  16.564 -0.1132 -0.0105  0.0652
   6823SM   C15 8778   3.038   1.653  16.603  0.1372 -0.2331  0.2935
   6823SM  H15A 8779   3.000   1.719  16.526 -1.0116 -1.3432 -0.1252
   6823SM  H15B 8780   3.015   1.680  16.705  0.7156 -0.1808  0.4170
   6823SM  H15C 8781   2.996   1.555  16.586 -1.9901  1.0446 -2.7488
   6823SM   C14 8782   3.223   1.802  16.570 -0.0633  0.7587  0.3397
   6823SM  H14A 8783   3.196   1.861  16.483  0.2255 -0.4841 -0.6238
   6823SM  H14B 8784   3.331   1.801  16.572 -0.0172 -1.4548 -0.3924
   6823SM  H14C 8785   3.185   1.849  16.660  0.1443 -0.6836  1.2109
   6823SM   C13 8786   3.268   1.584  16.668  0.4316 -0.7993 -0.0436
   6823SM  H13A 8787   3.372   1.604  16.645  0.4392 -0.3693  0.3608
   6823SM  H13B 8788   3.255   1.479  16.690  2.9776 -1.3742 -0.9096
   6823SM  H13C 8789   3.255   1.638  16.760 -1.2626  0.3415 -0.9014
   6823SM   C12 8790   3.197   1.590  16.421  0.6346  0.5863  0.7181
   6823SM  H12A 8791   3.144   1.496  16.427 -1.5690  1.8384  1.8258
   6823SM  H12B 8792   3.300   1.563  16.404  0.4574  1.0645 -1.4922
   6823SM   C11 8793   3.155   1.665  16.302  0.7736 -0.6684  0.5755
   6823SM  H11A 8794   3.045   1.663  16.321  0.6010 -3.7854 -0.1232
   6823SM  H11B 8795   3.153   1.598  16.213 -0.8124  0.0037  0.0625
   6823SM     P 8796   3.127   1.912  16.201 -0.0330 -0.3796 -0.1248
   6823SM   O13 8797   3.005   1.944  16.279 -0.4750 -0.6973 -0.1338
   6823SM   O14 8798   3.222   2.025  16.175 -0.0338 -0.7411 -0.5807
   6823SM   O11 8799   3.089   1.825  16.074  0.1682  0.1306  0.1226
   6823SM   O12 8800   3.207   1.801  16.277  0.1217 -0.1569  1.0507
   6823SM   C1S 8801   3.196   1.781  15.987  0.1945  0.6445  0.7449
   6823SM   H1S 8802   3.222   1.675  16.004 -1.6967  0.1662  0.9248
   6823SM   H1T 8803   3.289   1.842  15.988 -0.2596  1.4272 -0.8632
   6823SM    NF 8804   3.260   1.740  15.752 -0.9154  0.1898 -0.8475
   6823SM   HNF 8805   3.304   1.808  15.693  0.8443 -1.3595 -1.4003
   6823SM   C2S 8806   3.153   1.785  15.833 -0.1357  0.1299 -0.7689
   6823SM   H2S 8807   3.068   1.715  15.829 -0.5016  0.4930  0.2922
   6823SM   C3S 8808   3.103   1.924  15.804 -0.4648 -0.7630 -0.0372
   6823SM   H3S 8809   3.172   2.007  15.831 -0.7846 -0.5249  0.0427
   6823SM    O3 8810   2.985   1.960  15.872  0.0684 -0.9974 -0.5775
   6823SM   HO3 8811   2.981   1.910  15.955 -4.2773 -0.2856 -0.1297
   6823SM   C4S 8812   3.072   1.945  15.664  0.1739  0.4704  0.0332
   6823SM   H4S 8813   2.985   1.886  15.631  0.5337 -1.0060  1.5849
   6823SM   C5S 8814   3.135   2.034  15.580 -0.0563  0.6441 -1.4253
   6823SM   H5S 8815   3.227   2.082  15.616  1.1262 -2.1426 -0.5305
   6823SM   C6S 8816   3.088   2.058  15.445 -0.1111 -0.5354  0.6258
   6823SM   H6S 8817   3.105   2.166  15.429  1.6317 -0.7710  0.6746
   6823SM   H6T 8818   2.983   2.027  15.425 -0.0962 -0.5174  0.5221
   6823SM   C7S 8819   3.188   1.987  15.345  0.4987 -0.7073 -0.2359
   6823SM   H7S 8820   3.196   1.880  15.373  1.9300 -1.5315 -3.3091
   6823SM   H7T 8821   3.283   2.045  15.352 -0.8396  1.3971  1.6637
   6823SM   C8S 8822   3.143   1.986  15.200 -0.5230  0.4505 -0.0907
   6823SM   H8S 8823   3.230   2.014  15.138 -1.8237  3.6965 -0.6540
   6823SM   H8T 8824   3.069   2.067  15.179 -0.7502  0.5078  0.8946
   6823SM   C9S 8825   3.106   1.851  15.144  0.4484 -0.3043 -0.1021
   6823SM   H9S 8826   3.189   1.779  15.155 -1.6835 -2.9853 -0.3247
   6823SM   H9T 8827   3.095   1.857  15.033  0.5956 -1.0538 -0.1623
   6823SM  C10S 8828   2.982   1.782  15.207 -0.0141 -0.7411 -0.5004
   6823SM  H10S 8829   3.006   1.782  15.315  0.5244  0.1887 -0.6110
   6823SM  H10T 8830   2.966   1.678  15.171  1.9933 -0.8552 -1.1751
   6823SM  C11S 8831   2.851   1.865  15.188  1.4553  0.1785 -0.2879
   6823SM  H11S 8832   2.873   1.968  15.223 -1.0380  0.8975 -0.6717
   6823SM  H11T 8833   2.777   1.830  15.263  2.2759 -0.1274  0.3887
   6823SM  C12S 8834   2.786   1.862  15.047 -0.2144  0.4689  0.4116
   6823SM  H12S 8835   2.865   1.903  14.980  1.6935 -2.3136  0.8262
   6823SM  H12T 8836   2.693   1.923  15.051  1.3190  2.9279  1.1604
   6823SM  C13S 8837   2.743   1.716  15.016 -0.6291  0.3491 -0.0964
   6823SM  H13S 8838   2.708   1.676  15.114  3.6202 -0.6967  1.2240
   6823SM  H13T 8839   2.839   1.666  14.990  1.4250  3.1253  1.5596
   6823SM  C14S 8840   2.621   1.697  14.921 -0.0171  0.0732 -0.1960
   6823SM  H14S 8841   2.539   1.761  14.959 -1.9002 -0.9319 -2.2991
   6823SM  H14T 8842   2.593   1.591  14.937 -1.4296  0.7896  2.8261
   6823SM  C15S 8843   2.645   1.730  14.770 -0.5556 -0.2547  0.2718
   6823SM  H15S 8844   2.702   1.645  14.726  0.3981  1.4304 -1.8670
   6823SM  H15T 8845   2.690   1.830  14.754  0.6109 -1.0094 -1.4782
   6823SM  C16S 8846   2.512   1.753  14.700  0.3570 -0.2753 -0.2192
   6823SM  H16S 8847   2.437   1.807  14.761 -0.0200  0.1195 -1.0246
   6823SM  H16T 8848   2.464   1.654  14.690 -0.1802  0.1422 -2.2295
   6823SM  C17S 8849   2.521   1.809  14.561 -0.0634  0.4031 -0.4195
   6823SM  H17S 8850   2.426   1.794  14.505 -0.5735 -1.1461  0.7752
   6823SM  H17T 8851   2.604   1.765  14.502 -0.3820 -0.2085 -0.4316
   6823SM  C18S 8852   2.543   1.961  14.558  0.4580  0.3997  0.4936
   6823SM  H18S 8853   2.646   1.985  14.592  2.0658 -1.2840 -2.6855
   6823SM  H18T 8854   2.471   2.023  14.615  1.1538  1.5341  0.1917
   6823SM  H18U 8855   2.545   1.983  14.449  1.7178 -1.0751  0.1790
   6823SM   C1F 8856   3.296   1.614  15.752  0.7386 -0.6422 -0.2986
   6823SM    OF 8857   3.243   1.528  15.820 -0.1563  0.4702  0.2323
   6823SM   C2F 8858   3.408   1.576  15.665  0.8796  0.0984 -0.5788
   6823SM   H2F 8859   3.449   1.480  15.705  0.2744 -0.4881 -1.3480
   6823SM   H2G 8860   3.485   1.656  15.676  0.1148  0.6767  0.7291
   6823SM   C3F 8861   3.379   1.569  15.514  0.1140 -0.5428  0.3811
   6823SM   H3F 8862   3.477   1.545  15.468 -0.8270 -0.7207 -1.6581
   6823SM   H3G 8863   3.341   1.668  15.479  2.0211 -0.5294 -1.8342
   6823SM   C4F 8864   3.268   1.467  15.498  0.0275 -0.0067 -0.4076
   6823SM   H4F 8865   3.193   1.482  15.579  2.2789  1.7360  1.4722
   6823SM   H4G 8866   3.311   1.365  15.509  2.7666  0.8679 -2.0021
   6823SM   C5F 8867   3.192   1.481  15.368 -0.0239 -0.2543 -0.3064
   6823SM   H5F 8868   3.129   1.573  15.360 -0.4625 -0.5797 -0.6432
   6823SM   H5G 8869   3.117   1.400  15.379 -0.4629  0.3900  1.7805
   6823SM   C6F 8870   3.283   1.454  15.248  0.4761 -0.0689  0.1802
   6823SM   H6F 8871   3.329   1.353  15.255  0.9785 -0.0208 -1.9254
   6823SM   H6G 8872   3.359   1.535  15.250  1.3028 -0.8125 -0.4759
   6823SM   C7F 8873   3.208   1.472  15.110  0.2859 -0.3612  0.3281
   6823SM   H7F 8874   3.174   1.578  15.099  1.4761 -0.1539 -1.7171
   6823SM   H7G 8875   3.116   1.410  15.103 -0.5458  1.0380 -3.1199
   6823SM   C8F 8876   3.308   1.438  15.003 -0.4738  0.7676  0.5862
   6823SM   H8F 8877   3.349   1.337  15.021  0.4107  1.0326  0.1348
   6823SM   H8G 8878   3.393   1.508  15.021  1.5211 -0.8894 -1.7880
   6823SM   C9F 8879   3.262   1.455  14.856 -0.0062  0.2613  0.0402
   6823SM   H9F 8880   3.190   1.375  14.831  1.3218 -0.5940 -1.2444
   6823SM   H9G 8881   3.350   1.443  14.789 -0.6207 -1.9710 -0.4250
   6823SM  C10F 8882   3.188   1.592  14.817  0.1159  0.4093 -0.2672
   6823SM  H10F 8883   3.236   1.675  14.873 -2.9824  1.1996  1.4433
   6823SM  H10G 8884   3.084   1.579  14.856  0.2097 -0.4394 -0.2866
   6823SM  C11F 8885   3.168   1.617  14.664 -0.5304 -0.6561 -0.5099
   6823SM  H11F 8886   3.145   1.521  14.613 -1.0343  0.0699 -1.6614
   6823SM  H11G 8887   3.258   1.658  14.613  0.4507  1.8452  2.8145
   6823SM  C12F 8888   3.054   1.715  14.632 -0.2477  0.0353  0.1868
   6823SM  H12F 8889   2.966   1.688  14.694  0.0461  0.7419  0.9208
   6823SM  H12G 8890   3.047   1.707  14.521  3.5166 -0.3270 -0.1700
   6823SM  C13F 8891   3.089   1.865  14.661 -0.7753  0.6011 -0.6413
   6823SM  H13F 8892   3.176   1.901  14.602  0.4964 -1.6834 -0.2932
   6823SM  H13G 8893   3.102   1.872  14.771 -0.8184 -0.2437 -0.5715
   6823SM  C14F 8894   2.973   1.968  14.640 -0.5876  0.0302  0.3127
   6823SM  H14F 8895   3.009   2.068  14.673  0.2659 -0.6498  1.4847
   6823SM  H14G 8896   2.875   1.951  14.690 -0.2225 -0.3276  0.9106
   6823SM  C15F 8897   2.929   1.979  14.491  0.1076  0.5607  0.1782
   6823SM  H15F 8898   2.833   2.035  14.485 -0.6272 -0.4693  1.7505
   6823SM  H15G 8899   2.912   1.875  14.456  0.3667  1.0967 -1.6465
   6823SM  C16F 8900   3.047   2.019  14.396  0.6645  0.1433  1.1323
   6823SM  H16F 8901   3.101   1.929  14.360  0.3262  0.2398  0.3636
   6823SM  H16G 8902   3.112   2.091  14.449  0.7130 -0.2701  1.6409
   6823SM  C17F 8903   2.986   2.068  14.257  0.1979 -0.0997 -0.0222
   6823SM  H17F 8904   2.934   2.165  14.272  0.8182  0.1016  0.8608
   6823SM  H17G 8905   2.906   1.998  14.226  1.3550 -0.7046 -1.8467
   6823SM  C18F 8906   3.099   2.072  14.144  0.3872  0.4036 -0.5169
   6823SM  H18F 8907   3.133   1.968  14.128 -0.7266 -0.2840  1.2199
   6823SM  H18G 8908   3.188   2.129  14.178 -0.2576  2.0537 -1.5047
   6823SM  C19F 8909   3.050   2.113  14.007  0.3584 -0.3373  0.5952
   6823SM  H19F 8910   3.138   2.135  13.943  0.3415  0.3617  0.8016
   6823SM  H19G 8911   2.982   2.201  14.012 -0.0389 -0.5893 -0.1484
   6823SM  C20F 8912   2.961   2.005  13.933  0.2440 -0.3250 -0.1292
   6823SM  H20F 8913   2.865   2.003  13.989 -0.3987  1.1814 -1.1215
   6823SM  H20G 8914   2.996   1.900  13.944 -0.9680 -1.1808 -3.1751
   6823SM  C21F 8915   2.932   2.030  13.785 -0.0905  0.0842 -0.2517
   6823SM  H21F 8916   2.911   2.137  13.764 -1.3157 -0.3359 -1.3061
   6823SM  H21G 8917   2.843   1.970  13.753 -1.1627  1.1772  0.6026
   6823SM  C22F 8918   3.040   1.971  13.689 -0.3243 -0.0865  0.6869
   6823SM  H22F 8919   3.044   1.860  13.698  1.9974 -0.1534 -0.5350
   6823SM  H22G 8920   3.141   2.008  13.717  0.4131  0.2452 -2.1415
   6823SM  C23F 8921   3.011   2.008  13.546  0.3572  0.0615 -0.1553
   6823SM  H23F 8922   2.931   1.941  13.509 -0.1452  0.6095 -0.0800
   6823SM  H23G 8923   3.103   1.990  13.486  0.7154  1.3450 -0.0264
   6823SM  H23H 8924   2.974   2.112  13.533 -0.2875  0.1895  2.2748
   6923SM     N 8925   5.952   2.565  16.463  0.5592  0.4507  0.1098
   6923SM   C15 8926   5.974   2.495  16.330  0.2244  0.0863  0.1644
   6923SM  H15A 8927   5.879   2.463  16.291  0.9364 -0.1223 -1.4991
   6923SM  H15B 8928   6.045   2.413  16.336  0.4181  0.2561  0.1854
   6923SM  H15C 8929   6.018   2.572  16.268 -0.0866  0.5440  0.5071
   6923SM   C14 8930   5.878   2.466  16.554 -0.8768  0.7424  0.0748
   6923SM  H14A 8931   5.892   2.474  16.661 -1.0937 -0.3361  0.1908
   6923SM  H14B 8932   5.917   2.370  16.524 -1.0193  0.8364 -0.4209
   6923SM  H14C 8933   5.774   2.452  16.528 -0.0408 -1.2765 -2.6102
   6923SM   C13 8934   6.082   2.593  16.530 -0.2113  0.2130 -0.3138
   6923SM  H13A 8935   6.141   2.504  16.550  1.3089  1.5508  1.5684
   6923SM  H13B 8936   6.059   2.643  16.623  0.1389  0.3428 -0.3003
   6923SM  H13C 8937   6.160   2.650  16.484  1.0590 -0.6578  0.6880
   6923SM   C12 8938   5.855   2.687  16.457  0.0512 -0.7925 -0.3398
   6923SM  H12A 8939   5.764   2.673  16.402 -1.3849  3.0940  0.6782
   6923SM  H12B 8940   5.907   2.762  16.398  0.8004 -0.7572  0.3452
   6923SM   C11 8941   5.794   2.746  16.587 -0.3403  0.0760  0.6151
   6923SM  H11A 8942   5.764   2.852  16.575  0.9836  0.2451 -1.6980
   6923SM  H11B 8943   5.874   2.753  16.664 -0.8696  1.1244  1.0949
   6923SM     P 8944   5.543   2.695  16.571  0.4491  0.0887  0.4305
   6923SM   O13 8945   5.448   2.614  16.645  0.2753  0.8394  0.0458
   6923SM   O14 8946   5.516   2.840  16.572 -0.1832 -0.6573  0.0171
   6923SM   O11 8947   5.546   2.656  16.418  0.4123 -0.2440  0.5224
   6923SM   O12 8948   5.687   2.665  16.627  0.7310  0.0157  0.6208
   6923SM   C1S 8949   5.535   2.514  16.390 -0.9169 -0.0708  0.4974
   6923SM   H1S 8950   5.459   2.467  16.455 -1.1405 -0.8266 -0.2864
   6923SM   H1T 8951   5.630   2.461  16.413 -1.5059 -0.8800  1.1444
   6923SM    NF 8952   5.522   2.354  16.222  0.5216  0.7390 -0.2137
   6923SM   HNF 8953   5.609   2.319  16.189  0.4417  1.4340 -1.1874
   6923SM   C2S 8954   5.510   2.496  16.237 -0.2248 -0.2824  0.2506
   6923SM   H2S 8955   5.408   2.533  16.213 -0.0864 -0.6156 -0.9077
   6923SM   C3S 8956   5.615   2.571  16.146  0.3133 -0.3401 -0.7941
   6923SM   H3S 8957   5.717   2.534  16.169 -0.1374 -1.1607 -0.0703
   6923SM    O3 8958   5.626   2.714  16.170 -1.1127 -0.4630 -0.3213
   6923SM   HO3 8959   5.615   2.729  16.264  0.2461  0.7426 -0.3052
   6923SM   C4S 8960   5.577   2.544  16.003 -0.4813  0.3839  0.2683
   6923SM   H4S 8961   5.476   2.575  15.974  0.2979  1.2333 -1.6567
   6923SM   C5S 8962   5.667   2.487  15.916  0.1647 -0.2282  0.0615
   6923SM   H5S 8963   5.759   2.449  15.963 -0.3063 -0.6611  0.6610
   6923SM   C6S 8964   5.650   2.456  15.769 -0.7537 -0.1626 -0.1610
   6923SM   H6S 8965   5.696   2.360  15.739  2.3367  1.2661 -0.4111
   6923SM   H6T 8966   5.704   2.537  15.714 -2.1768  0.7491 -0.2845
   6923SM   C7S 8967   5.507   2.459  15.720  0.4270 -0.2828  0.6788
   6923SM   H7S 8968   5.452   2.556  15.725 -1.1340 -1.0393 -0.5336
   6923SM   H7T 8969   5.455   2.385  15.785  0.9544 -0.6893  0.6425
   6923SM   C8S 8970   5.492   2.430  15.568 -0.0470 -0.1288  0.7279
   6923SM   H8S 8971   5.383   2.419  15.549  0.1224  0.1934 -0.4659
   6923SM   H8T 8972   5.538   2.334  15.536 -1.3565 -0.4269 -0.3384
   6923SM   C9S 8973   5.547   2.544  15.475  0.0849  0.8405 -0.1798
   6923SM   H9S 8974   5.658   2.544  15.478  0.0703  0.1555  0.7951
   6923SM   H9T 8975   5.513   2.646  15.503  0.2373  0.7892  0.1995
   6923SM  C10S 8976   5.515   2.534  15.328  0.5375  1.0280 -0.4677
   6923SM  H10S 8977   5.596   2.573  15.262  0.9831  1.2631  0.2049
   6923SM  H10T 8978   5.425   2.597  15.316  1.5703  2.5853 -0.3436
   6923SM  C11S 8979   5.488   2.395  15.272  0.8576 -0.2722  0.3254
   6923SM  H11S 8980   5.392   2.348  15.301 -0.0315 -0.1906 -2.2789
   6923SM  H11T 8981   5.561   2.324  15.318 -0.9465 -1.2813  1.7458
   6923SM  C12S 8982   5.510   2.376  15.124 -0.5200  0.2670  0.3731
   6923SM  H12S 8983   5.499   2.272  15.087 -2.6118  0.7406 -0.4945
   6923SM  H12T 8984   5.616   2.399  15.099 -0.2682  0.7615  1.7771
   6923SM  C13S 8985   5.417   2.469  15.043 -0.2804  0.1720  0.9292
   6923SM  H13S 8986   5.453   2.574  15.051  2.0986 -0.4350 -0.5698
   6923SM  H13T 8987   5.311   2.457  15.074 -0.5635 -1.4099 -0.4786
   6923SM  C14S 8988   5.423   2.434  14.894 -0.2660  0.5674  0.7911
   6923SM  H14S 8989   5.359   2.347  14.870 -0.1676  0.7574 -0.1950
   6923SM  H14T 8990   5.527   2.407  14.867 -0.6740  1.0774 -1.4801
   6923SM  C15S 8991   5.376   2.545  14.804 -0.0389  0.3242  0.2583
   6923SM  H15S 8992   5.393   2.516  14.699  1.5613 -1.1456  0.8874
   6923SM  H15T 8993   5.426   2.645  14.810  1.6848 -0.5309  0.8746
   6923SM  C16S 8994   5.222   2.566  14.817  0.3426 -0.5950  0.5948
   6923SM  H16S 8995   5.212   2.602  14.922  2.9652 -0.4486  0.8704
   6923SM  H16T 8996   5.166   2.471  14.814  0.6757 -0.8515  1.8804
   6923SM  C17S 8997   5.175   2.682  14.728  0.0776  0.6822  0.0043
   6923SM  H17S 8998   5.197   2.644  14.626  0.0644  0.4778  0.0772
   6923SM  H17T 8999   5.234   2.775  14.736  1.8385 -0.4833  1.2682
   6923SM  C18S 9000   5.029   2.710  14.759  0.0578  0.0566 -0.3828
   6923SM  H18S 9001   5.010   2.726  14.868  0.8978  0.8576 -0.3451
   6923SM  H18T 9002   4.967   2.622  14.731  1.2035 -1.2305  1.0140
   6923SM  H18U 9003   5.000   2.803  14.706  1.0029  0.8462  0.4467
   6923SM   C1F 9004   5.422   2.277  16.255 -0.1591  0.6279 -0.1831
   6923SM    OF 9005   5.316   2.319  16.309  0.8012 -0.3812  0.1312
   6923SM   C2F 9006   5.434   2.136  16.220  0.9412 -0.3435 -0.1248
   6923SM   H2F 9007   5.406   2.080  16.313  0.4695  2.8139  1.7873
   6923SM   H2G 9008   5.537   2.116  16.183  1.2090  1.8778 -0.7027
   6923SM   C3F 9009   5.336   2.090  16.101  0.3051 -0.1687 -0.3842
   6923SM   H3F 9010   5.228   2.110  16.116  0.1221  0.2045 -2.0165
   6923SM   H3G 9011   5.348   1.984  16.069  1.5620  0.6763 -2.9764
   6923SM   C4F 9012   5.353   2.177  15.977  0.0151 -0.0665 -0.0917
   6923SM   H4F 9013   5.460   2.194  15.952 -0.4107  1.4392 -1.0720
   6923SM   H4G 9014   5.310   2.279  15.990  1.0420  0.4677 -0.7728
   6923SM   C5F 9015   5.291   2.098  15.861 -0.2737  0.1472  0.6415
   6923SM   H5F 9016   5.181   2.095  15.878 -1.1086  0.7393 -3.5610
   6923SM   H5G 9017   5.319   1.990  15.862  0.9842  0.4235  2.4533
   6923SM   C6F 9018   5.322   2.154  15.728  0.1653 -0.3331 -0.1980
   6923SM   H6F 9019   5.433   2.151  15.723  0.2918  0.5709  1.4505
   6923SM   H6G 9020   5.280   2.257  15.726 -1.1478 -0.8619 -0.7507
   6923SM   C7F 9021   5.255   2.075  15.615 -0.4933 -0.1067 -0.0399
   6923SM   H7F 9022   5.145   2.094  15.613 -0.5000  0.1167  1.4249
   6923SM   H7G 9023   5.267   1.968  15.642  0.0919 -0.3912 -1.3509
   6923SM   C8F 9024   5.326   2.092  15.481  0.1265  0.1243 -0.0307
   6923SM   H8F 9025   5.436   2.104  15.495  0.2147 -1.3357  0.7157
   6923SM   H8G 9026   5.275   2.182  15.440 -3.0982 -1.9494 -0.9706
   6923SM   C9F 9027   5.296   1.968  15.390  0.0028 -0.1605  0.4319
   6923SM   H9F 9028   5.185   1.960  15.400 -0.2083 -0.1502 -1.5201
   6923SM   H9G 9029   5.340   1.873  15.426 -1.7825 -2.4179 -2.8356
   6923SM  C10F 9030   5.334   1.980  15.239 -0.3050  0.1212  0.3592
   6923SM  H10F 9031   5.325   1.877  15.197  2.5340  1.1515 -3.3497
   6923SM  H10G 9032   5.443   1.998  15.223 -0.5127 -0.1644 -1.6272
   6923SM  C11F 9033   5.243   2.066  15.153  0.1545 -0.4828 -0.6867
   6923SM  H11F 9034   5.279   2.171  15.159 -1.7294  0.1044  1.6326
   6923SM  H11G 9035   5.146   2.070  15.206  1.8652  0.8108  2.6009
   6923SM  C12F 9036   5.220   2.013  15.011 -0.0446 -0.1844 -0.2781
   6923SM  H12F 9037   5.203   1.904  15.005  0.0946 -0.2688  0.7537
   6923SM  H12G 9038   5.310   2.042  14.953  0.1597 -2.7335 -1.3230
   6923SM  C13F 9039   5.103   2.086  14.941  0.1039 -0.2351  0.2100
   6923SM  H13F 9040   5.119   2.195  14.927  1.9557 -0.4913 -0.0227
   6923SM  H13G 9041   5.011   2.078  15.002 -2.7315 -0.7885 -3.8107
   6923SM  C14F 9042   5.072   2.030  14.800  0.3358 -0.4029  0.5622
   6923SM  H14F 9043   4.967   2.057  14.776 -0.4378 -1.7487  2.1887
   6923SM  H14G 9044   5.073   1.918  14.796  1.2298 -0.4266  1.2986
   6923SM  C15F 9045   5.165   2.089  14.683  0.0958 -0.0619 -0.4037
   6923SM  H15F 9046   5.197   2.003  14.620 -1.2580  0.7480 -2.3019
   6923SM  H15G 9047   5.258   2.132  14.725  1.2964 -1.6361 -1.3774
   6923SM  C16F 9048   5.096   2.195  14.598  0.2170 -0.1969 -0.4265
   6923SM  H16F 9049   5.072   2.281  14.664  1.3329 -0.8242  0.8458
   6923SM  H16G 9050   4.999   2.162  14.555  0.2908 -2.2928  0.8622
   6923SM  C17F 9051   5.198   2.236  14.492  0.1010 -0.1209  0.0059
   6923SM  H17F 9052   5.224   2.161  14.414  2.0246  1.3356 -0.8503
   6923SM  H17G 9053   5.292   2.279  14.531 -1.2095  1.0129  2.0973
   6923SM  C18F 9054   5.136   2.360  14.421 -0.7554 -0.1573  0.0822
   6923SM  H18F 9055   5.114   2.443  14.492 -0.8247 -0.5453  0.5196
   6923SM  H18G 9056   5.033   2.333  14.388 -0.1097 -2.0434 -0.5285
   6923SM  C19F 9057   5.228   2.396  14.309 -0.0198 -0.8766  0.0438
   6923SM  H19F 9058   5.272   2.302  14.270 -1.5263 -1.3631 -0.5448
   6923SM  H19G 9059   5.308   2.463  14.348  0.1106 -1.2410  0.4020
   6923SM  C20F 9060   5.164   2.475  14.193  0.2678 -0.7657  0.5941
   6923SM  H20F 9061   5.093   2.405  14.144 -0.1898 -0.7761  1.2544
   6923SM  H20G 9062   5.235   2.502  14.111 -0.9184 -1.1312 -0.5822
   6923SM  C21F 9063   5.078   2.592  14.233  0.2143 -0.3685 -0.3261
   6923SM  H21F 9064   5.003   2.564  14.310  0.1535  0.8091  0.0700
   6923SM  H21G 9065   5.021   2.619  14.141  0.8925 -1.6798 -1.1503
   6923SM  C22F 9066   5.148   2.718  14.292 -0.6456  0.2920 -0.0936
   6923SM  H22F 9067   5.201   2.769  14.210 -1.7360 -0.9788 -1.6573
   6923SM  H22G 9068   5.216   2.672  14.367 -1.1298 -0.7968 -0.3045
   6923SM  C23F 9069   5.045   2.812  14.361 -0.8527  0.1409 -0.0779
   6923SM  H23F 9070   4.963   2.838  14.292 -0.1047 -1.6484 -1.7112
   6923SM  H23G 9071   5.098   2.901  14.403 -0.5687 -0.5332  1.0527
   6923SM  H23H 9072   5.016   2.763  14.457 -0.0587  0.9420  0.5991
   7023SM     N 9073   5.030   2.083  16.459  0.3160  0.2794  0.1445
   7023SM   C15 9074   5.162   2.112  16.516 -0.0530  0.6028  0.0535
   7023SM  H15A 9075   5.152   2.157  16.614  1.4566  0.2425  0.4101
   7023SM  H15B 9076   5.216   2.183  16.456 -0.5070  1.5443  0.7398
   7023SM  H15C 9077   5.228   2.027  16.532  0.6609  0.5101 -2.7788
   7023SM   C14 9078   4.958   1.977  16.537  0.0013 -0.0840 -0.4359
   7023SM  H14A 9079   5.007   1.882  16.519 -1.8942 -1.0424 -0.7992
   7023SM  H14B 9080   4.859   1.959  16.498 -0.8932  1.7423  0.8536
   7023SM  H14C 9081   4.957   1.989  16.644  1.9356 -0.8695 -0.2772
   7023SM   C13 9082   4.956   2.216  16.471 -0.0683  0.0713 -0.4522
   7023SM  H13A 9083   4.868   2.204  16.410 -1.1824 -3.0503  1.5407
   7023SM  H13B 9084   5.016   2.297  16.432  1.5659 -1.3739 -1.0952
   7023SM  H13C 9085   4.938   2.236  16.575  3.2531 -1.9632  0.6685
   7023SM   C12 9086   5.043   2.044  16.309 -0.9084 -0.3703 -0.1941
   7023SM  H12A 9087   5.120   1.969  16.304  0.4436  1.0758 -3.2215
   7023SM  H12B 9088   5.089   2.132  16.267 -0.7909  0.2129  1.0979
   7023SM   C11 9089   4.923   1.998  16.227  0.4619 -0.3332 -0.3503
   7023SM  H11A 9090   4.865   1.918  16.277 -1.1395  0.7099 -0.4953
   7023SM  H11B 9091   4.967   1.960  16.132  0.0294 -0.3643 -0.5364
   7023SM     P 9092   4.865   2.226  16.118  0.0454  0.1968  0.1806
   7023SM   O13 9093   4.751   2.327  16.134 -0.0364  0.4557  0.4577
   7023SM   O14 9094   4.997   2.274  16.158  0.0606  0.3725 -0.1201
   7023SM   O11 9095   4.876   2.171  15.970 -0.2826 -0.6537 -0.3736
   7023SM   O12 9096   4.830   2.094  16.191 -0.3679 -0.3153 -0.2276
   7023SM   C1S 9097   4.757   2.115  15.909 -0.3905 -0.4548 -0.5262
   7023SM   H1S 9098   4.694   2.200  15.876  2.0888  2.6833  2.1280
   7023SM   H1T 9099   4.701   2.055  15.985 -0.0868  0.5581  0.5186
   7023SM    NF 9100   4.660   1.992  15.714 -0.1658 -0.2532  0.2862
   7023SM   HNF 9101   4.650   1.892  15.709  2.2786 -0.7192  2.5600
   7023SM   C2S 9102   4.785   2.024  15.782 -0.0908  0.4862  0.3131
   7023SM   H2S 9103   4.843   2.086  15.709  1.1172 -1.9961 -0.9726
   7023SM   C3S 9104   4.862   1.899  15.827  0.2147  0.4484  0.0249
   7023SM   H3S 9105   4.802   1.847  15.904 -0.8672  1.5780 -0.0313
   7023SM    O3 9106   4.989   1.928  15.883  0.2961 -0.0873  0.1986
   7023SM   HO3 9107   4.980   2.016  15.920  0.5524 -0.7846  2.0542
   7023SM   C4S 9108   4.897   1.818  15.706 -0.7456 -0.4650 -0.4605
   7023SM   H4S 9109   4.937   1.872  15.619 -0.4425 -0.3466 -0.2506
   7023SM   C5S 9110   4.892   1.686  15.698  0.0412  1.2024 -0.3544
   7023SM   H5S 9111   4.851   1.632  15.784 -0.8094  1.7200 -0.4177
   7023SM   C6S 9112   4.943   1.601  15.581 -0.7154 -1.0862 -0.2519
   7023SM   H6S 9113   4.851   1.557  15.537 -1.4548  0.4976 -0.3901
   7023SM   H6T 9114   5.004   1.515  15.615 -0.3038 -0.4781  0.5865
   7023SM   C7S 9115   5.027   1.678  15.473  0.0254  0.5229  0.0529
   7023SM   H7S 9116   5.111   1.736  15.517 -0.6377  1.1665  0.4980
   7023SM   H7T 9117   4.959   1.751  15.424 -1.1052 -2.2422 -2.8332
   7023SM   C8S 9118   5.059   1.586  15.352 -0.4379 -0.0361  0.2964
   7023SM   H8S 9119   4.960   1.541  15.327  0.9257 -4.1007  1.4475
   7023SM   H8T 9120   5.125   1.500  15.377 -1.5263 -0.9867  0.0301
   7023SM   C9S 9121   5.105   1.661  15.224 -0.3226 -0.8865  0.3350
   7023SM   H9S 9122   5.187   1.730  15.251  0.0780 -0.9383 -0.7057
   7023SM   H9T 9123   5.023   1.729  15.193  0.9037  0.3850 -0.2174
   7023SM  C10S 9124   5.135   1.570  15.106 -0.1825  0.3457  0.0054
   7023SM  H10S 9125   5.190   1.485  15.153 -0.2160  1.9205  3.2111
   7023SM  H10T 9126   5.204   1.614  15.032 -1.6208  3.1830  0.1863
   7023SM  C11S 9127   4.999   1.512  15.057 -0.3048 -0.5678  0.1503
   7023SM  H11S 9128   4.921   1.506  15.136 -2.1511 -0.6482 -1.6092
   7023SM  H11T 9129   5.016   1.406  15.025 -1.7069 -0.9364  0.5405
   7023SM  C12S 9130   4.942   1.580  14.928 -0.3601 -0.1155 -0.9553
   7023SM  H12S 9131   4.858   1.522  14.883 -1.6307  2.0323 -1.4553
   7023SM  H12T 9132   5.027   1.587  14.857  1.7294 -1.6536  1.2243
   7023SM  C13S 9133   4.878   1.717  14.950 -0.0999  0.4575  0.1421
   7023SM  H13S 9134   4.837   1.764  14.858 -1.6938  0.0507  0.5975
   7023SM  H13T 9135   4.946   1.790  14.999 -0.1810  0.6434 -0.0218
   7023SM  C14S 9136   4.748   1.698  15.035 -0.4069 -0.2221 -0.2156
   7023SM  H14S 9137   4.758   1.650  15.134 -2.8780 -0.5704 -0.0741
   7023SM  H14T 9138   4.682   1.632  14.974 -0.6727  1.2053 -1.5148
   7023SM  C15S 9139   4.658   1.826  15.050 -0.4439 -0.3049  0.1626
   7023SM  H15S 9140   4.564   1.815  15.108 -2.0901  0.1105 -2.2735
   7023SM  H15T 9141   4.617   1.855  14.951  1.4657 -2.2220 -1.3028
   7023SM  C16S 9142   4.734   1.938  15.128 -0.1313  0.0672  0.7383
   7023SM  H16S 9143   4.670   2.029  15.118  0.7255  0.6379  0.2802
   7023SM  H16T 9144   4.832   1.958  15.079 -0.8933 -0.8873 -1.2948
   7023SM  C17S 9145   4.769   1.916  15.282  0.5735  0.1461 -0.0734
   7023SM  H17S 9146   4.815   1.815  15.286 -1.6562 -0.9170  0.3979
   7023SM  H17T 9147   4.682   1.911  15.351  0.7859  1.6433  0.3330
   7023SM  C18S 9148   4.856   2.022  15.335 -0.8716 -0.0587 -0.2662
   7023SM  H18S 9149   4.928   2.067  15.263  0.4194 -0.8454  0.4933
   7023SM  H18T 9150   4.915   1.980  15.419  0.1981  1.4072 -0.2467
   7023SM  H18U 9151   4.790   2.103  15.373 -0.1519  0.8186 -0.8183
   7023SM   C1F 9152   4.581   2.077  15.650 -0.0933 -0.0747  0.1265
   7023SM    OF 9153   4.607   2.197  15.653  0.0252 -0.2901 -0.1895
   7023SM   C2F 9154   4.472   2.023  15.571 -0.4859  0.8599  0.0219
   7023SM   H2F 9155   4.391   2.011  15.645 -0.4280  2.0879  0.3062
   7023SM   H2G 9156   4.504   1.920  15.544  0.8976  0.5923  2.3607
   7023SM   C3F 9157   4.423   2.107  15.449  0.0642  0.8456  0.1402
   7023SM   H3F 9158   4.506   2.152  15.392 -1.0471  0.6006 -1.7551
   7023SM   H3G 9159   4.369   2.193  15.495  1.0051  0.2789  2.4530
   7023SM   C4F 9160   4.325   2.038  15.352  0.4318 -0.6614 -0.1057
   7023SM   H4F 9161   4.360   1.943  15.307 -1.5525 -0.9937 -1.0718
   7023SM   H4G 9162   4.308   2.109  15.268 -0.3689  0.7909  1.2103
   7023SM   C5F 9163   4.180   2.008  15.405  0.5226  0.7735  0.1650
   7023SM   H5F 9164   4.131   2.105  15.428  3.2735  2.5674 -0.9581
   7023SM   H5G 9165   4.193   1.956  15.502 -0.5234  0.9898  0.4334
   7023SM   C6F 9166   4.096   1.909  15.336 -0.3155  0.0796  0.0349
   7023SM   H6F 9167   4.000   1.903  15.391 -0.4163  0.4766 -0.0940
   7023SM   H6G 9168   4.143   1.808  15.332 -1.9281 -0.6828 -0.4447
   7023SM   C7F 9169   4.069   1.937  15.185 -0.4529 -0.0278  0.6241
   7023SM   H7F 9170   4.156   1.896  15.130 -0.2550  0.9749  0.1675
   7023SM   H7G 9171   4.069   2.046  15.163  0.6235 -0.1967 -0.3194
   7023SM   C8F 9172   3.936   1.883  15.145 -0.1706  0.6737  0.1507
   7023SM   H8F 9173   3.854   1.923  15.207 -0.8358  2.3344 -1.6805
   7023SM   H8G 9174   3.945   1.773  15.157  3.0776  0.8722  0.5531
   7023SM   C9F 9175   3.888   1.915  14.998 -0.4608  0.2032  0.8544
   7023SM   H9F 9176   3.847   2.018  14.994  0.9530  0.7531 -0.2801
   7023SM   H9G 9177   3.801   1.849  14.976 -0.4704  0.2064  0.8832
   7023SM  C10F 9178   3.998   1.886  14.895 -0.1444  0.3396  0.1012
   7023SM  H10F 9179   3.954   1.837  14.805  1.3604 -0.7569 -0.0848
   7023SM  H10G 9180   4.081   1.818  14.925  0.8104  0.8930 -1.2043
   7023SM  C11F 9181   4.066   2.010  14.847  0.5935 -0.2069  0.6749
   7023SM  H11F 9182   4.117   2.067  14.927 -0.6918 -0.0734  1.4276
   7023SM  H11G 9183   3.992   2.083  14.807  1.0216  0.2073  0.6394
   7023SM  C12F 9184   4.152   1.972  14.727 -0.2748 -0.4064 -0.1737
   7023SM  H12F 9185   4.159   2.059  14.658 -1.7773  0.3661  0.5965
   7023SM  H12G 9186   4.100   1.893  14.668  0.4363 -1.8306  1.0526
   7023SM  C13F 9187   4.293   1.914  14.766  0.0124 -0.6759 -0.4726
   7023SM  H13F 9188   4.271   1.852  14.856 -0.3787  0.8496  0.5283
   7023SM  H13G 9189   4.356   2.000  14.798  0.3471 -0.4639 -1.6577
   7023SM  C14F 9190   4.356   1.832  14.653 -0.7177  0.2644 -0.0770
   7023SM  H14F 9191   4.346   1.894  14.562 -0.4916  1.4112  0.6566
   7023SM  H14G 9192   4.307   1.734  14.635  1.4325 -1.0267  0.6602
   7023SM  C15F 9193   4.505   1.810  14.686 -0.7492 -0.3100 -0.2408
   7023SM  H15F 9194   4.516   1.760  14.785  2.2643 -0.3458 -0.5016
   7023SM  H15G 9195   4.553   1.910  14.688  0.8825 -1.0631  1.7922
   7023SM  C16F 9196   4.566   1.711  14.587 -0.8345 -0.0974  0.2147
   7023SM  H16F 9197   4.539   1.751  14.487  1.3432  0.9775 -0.0003
   7023SM  H16G 9198   4.528   1.607  14.594 -1.8364  0.1296 -1.3895
   7023SM  C17F 9199   4.719   1.707  14.599 -0.4932  0.2039  0.1889
   7023SM  H17F 9200   4.743   1.692  14.706 -0.8055  0.1260  0.2517
   7023SM  H17G 9201   4.766   1.804  14.573 -1.1750  0.4386 -0.1969
   7023SM  C18F 9202   4.781   1.588  14.520  0.3893  0.3701 -0.1480
   7023SM  H18F 9203   4.882   1.630  14.498  0.1063  0.5365 -1.1503
   7023SM  H18G 9204   4.747   1.588  14.414  2.0021 -0.5045 -0.7082
   7023SM  C19F 9205   4.783   1.448  14.584 -0.2335 -0.3836 -0.6954
   7023SM  H19F 9206   4.681   1.412  14.558 -0.4260  0.6955 -1.4974
   7023SM  H19G 9207   4.782   1.467  14.694 -0.2517 -0.0652 -0.7499
   7023SM  C20F 9208   4.901   1.357  14.551 -0.1846 -0.1592  0.3737
   7023SM  H20F 9209   4.937   1.287  14.629 -2.1709 -1.3514  0.2932
   7023SM  H20G 9210   4.997   1.410  14.533 -0.9025  0.5318 -1.6836
   7023SM  C21F 9211   4.861   1.266  14.438  0.4352 -1.6297  0.1846
   7023SM  H21F 9212   4.847   1.328  14.347  0.5609 -0.9810  0.5976
   7023SM  H21G 9213   4.761   1.222  14.460 -0.2815 -1.5668 -2.6176
   7023SM  C22F 9214   4.947   1.142  14.410 -0.2844 -0.0400  0.7224
   7023SM  H22F 9215   4.939   1.073  14.497 -0.3880  0.2283  0.9280
   7023SM  H22G 9216   5.051   1.180  14.407 -0.7122  1.0988 -1.8100
   7023SM  C23F 9217   4.912   1.066  14.283 -0.2615 -0.0849 -0.2428
   7023SM  H23F 9218   4.906   1.131  14.193 -2.1828 -0.0837 -0.1575
   7023SM  H23G 9219   4.810   1.022  14.292 -0.2321  0.1247  1.3899
   7023SM  H23H 9220   4.964   0.968  14.278 -0.9121 -0.5849  1.9112
   7123SM     N 9221   4.615   0.370  16.332 -0.1185  0.1267  0.3957
   7123SM   C15 9222   4.734   0.362  16.423 -0.0191 -0.3838  0.5131
   7123SM  H15A 9223   4.734   0.275  16.487 -1.4172  1.0172  2.5612
   7123SM  H15B 9224   4.744   0.445  16.492 -1.1578 -0.0442  0.2976
   7123SM  H15C 9225   4.830   0.359  16.374 -1.0870  0.5450 -1.7855
   7123SM   C14 9226   4.494   0.370  16.418  0.7444 -0.2537  0.7606
   7123SM  H14A 9227   4.508   0.310  16.507 -1.1711  0.0854  1.3273
   7123SM  H14B 9228   4.413   0.345  16.352 -0.4227  2.4901  1.0031
   7123SM  H14C 9229   4.482   0.471  16.455 -0.5533 -0.5182  1.1079
   7123SM   C13 9230   4.628   0.505  16.264  0.3040  0.0482 -0.1315
   7123SM  H13A 9231   4.715   0.510  16.201  0.9091  0.9084  0.7404
   7123SM  H13B 9232   4.616   0.577  16.343 -0.7796  0.5576 -0.7305
   7123SM  H13C 9233   4.542   0.524  16.200 -1.8499  0.2009  2.6359
   7123SM   C12 9234   4.623   0.256  16.232 -0.5080 -0.2817  0.2852
   7123SM  H12A 9235   4.623   0.158  16.278 -1.1267 -0.6167 -0.3964
   7123SM  H12B 9236   4.714   0.268  16.176 -0.4195 -2.5265 -0.1602
   7123SM   C11 9237   4.511   0.252  16.119  1.1379  0.0783 -0.2040
   7123SM  H11A 9238   4.541   0.177  16.044  0.7827 -1.5360  1.1920
   7123SM  H11B 9239   4.520   0.351  16.070  0.9618  0.4295  0.4491
   7123SM     P 9240   4.322   0.088  16.220  0.0484 -0.3870 -0.1353
   7123SM   O13 9241   4.410   0.029  16.319  0.0577  0.2334 -0.1596
   7123SM   O14 9242   4.186   0.109  16.259  0.2969 -0.0102 -0.1806
   7123SM   O11 9243   4.332   0.016  16.087  0.1484 -0.3272  0.2008
   7123SM   O12 9244   4.378   0.225  16.171  0.0290 -0.4204 -0.7467
   7123SM   C1S 9245   4.220  -0.014  16.000  0.2707 -0.0841  0.4508
   7123SM   H1S 9246   4.137   0.059  16.007 -0.4414 -0.7902 -0.4624
   7123SM   H1T 9247   4.185  -0.118  16.017  0.4726 -0.2015  0.1489
   7123SM    NF 9248   4.149  -0.071  15.773  0.3105  0.1965 -0.1761
   7123SM   HNF 9249   4.145  -0.153  15.717 -3.9457  2.4343 -3.7112
   7123SM   C2S 9250   4.265  -0.026  15.855  0.4866 -0.3418  0.3598
   7123SM   H2S 9251   4.291   0.073  15.812  0.6639 -1.2141 -1.6613
   7123SM   C3S 9252   4.397  -0.113  15.837  0.1273  1.0391  0.4603
   7123SM   H3S 9253   4.354  -0.212  15.864 -1.7074  1.5440 -0.4360
   7123SM    O3 9254   4.497  -0.104  15.936 -0.2944 -0.0330  0.4979
   7123SM   HO3 9255   4.445  -0.074  16.011 -0.7693 -0.7019  0.4364
   7123SM   C4S 9256   4.457  -0.115  15.699 -0.0296 -0.1028 -0.2121
   7123SM   H4S 9257   4.392  -0.178  15.636 -1.0303  2.0411 -1.4180
   7123SM   C5S 9258   4.553  -0.044  15.648 -0.3329  0.1979  0.1221
   7123SM   H5S 9259   4.610   0.021  15.716  2.6876 -0.9091 -1.2059
   7123SM   C6S 9260   4.607  -0.055  15.498 -0.4643  0.1333 -0.5300
   7123SM   H6S 9261   4.533  -0.105  15.432 -1.3096 -1.7210  1.6986
   7123SM   H6T 9262   4.703  -0.110  15.493  0.5667  1.6672  1.0540
   7123SM   C7S 9263   4.630   0.088  15.445  0.5957  0.6107 -0.2466
   7123SM   H7S 9264   4.704   0.130  15.517  1.1892 -1.5028  0.4478
   7123SM   H7T 9265   4.534   0.143  15.449 -0.2956 -0.8960 -0.2053
   7123SM   C8S 9266   4.706   0.078  15.303 -0.2628 -0.1549 -0.7684
   7123SM   H8S 9267   4.808   0.036  15.315  0.4401  0.6109 -3.4607
   7123SM   H8T 9268   4.713   0.179  15.258 -0.3330  0.8985  1.4785
   7123SM   C9S 9269   4.622  -0.007  15.207  0.0946  0.2357  0.3070
   7123SM   H9S 9270   4.523   0.039  15.192  0.4941  1.3040  0.8843
   7123SM   H9T 9271   4.614  -0.113  15.241  3.6010 -0.1957  0.2474
   7123SM  C10S 9272   4.694   0.012  15.073 -0.1531  0.3222 -0.0741
   7123SM  H10S 9273   4.778  -0.060  15.063  0.3624  0.8990 -0.0465
   7123SM  H10T 9274   4.732   0.117  15.065 -1.3375  0.6853 -1.3585
   7123SM  C11S 9275   4.592  -0.013  14.960 -1.0336  0.0259  0.2901
   7123SM  H11S 9276   4.509   0.059  14.977 -0.3193  0.4901  2.0443
   7123SM  H11T 9277   4.551  -0.114  14.979  2.8778 -1.8702 -0.3746
   7123SM  C12S 9278   4.652  -0.012  14.820 -0.7005 -0.1669 -0.3078
   7123SM  H12S 9279   4.757   0.024  14.818 -1.0170  0.7732 -1.2929
   7123SM  H12T 9280   4.607   0.066  14.755  0.4031 -0.2994 -1.2650
   7123SM  C13S 9281   4.636  -0.147  14.752  0.7597  0.4855  0.5213
   7123SM  H13S 9282   4.532  -0.181  14.765  0.8418 -0.9285 -2.0101
   7123SM  H13T 9283   4.707  -0.213  14.806  0.8114  0.3600  0.3006
   7123SM  C14S 9284   4.689  -0.160  14.605 -0.0441 -0.1568 -0.0392
   7123SM  H14S 9285   4.743  -0.255  14.586  1.0987  0.4728 -0.0037
   7123SM  H14T 9286   4.767  -0.084  14.587 -1.7799  2.2460  1.9025
   7123SM  C15S 9287   4.570  -0.137  14.503 -0.1392 -0.9002 -0.0627
   7123SM  H15S 9288   4.531  -0.034  14.517  0.8849 -0.2017 -1.9968
   7123SM  H15T 9289   4.490  -0.213  14.518 -1.6670  0.6372 -0.0636
   7123SM  C16S 9290   4.635  -0.155  14.371 -0.2804 -0.8654 -0.4120
   7123SM  H16S 9291   4.679  -0.257  14.373  1.6295 -0.0997 -1.3495
   7123SM  H16T 9292   4.718  -0.082  14.356  0.2178 -1.7275 -2.0445
   7123SM  C17S 9293   4.542  -0.146  14.253  0.0230 -0.5901 -0.3229
   7123SM  H17S 9294   4.593  -0.108  14.163 -1.3456  1.4153 -0.3156
   7123SM  H17T 9295   4.474  -0.059  14.259  0.9299  0.1655 -0.8349
   7123SM  C18S 9296   4.458  -0.263  14.223 -0.1102 -0.3471 -0.2158
   7123SM  H18S 9297   4.378  -0.293  14.293 -0.1336 -0.7976 -0.4343
   7123SM  H18T 9298   4.519  -0.355  14.209 -1.0143 -0.9885 -0.0234
   7123SM  H18U 9299   4.405  -0.246  14.126 -0.1655 -1.0936 -0.3234
   7123SM   C1F 9300   4.034   0.003  15.767 -0.4909 -0.4201  0.0170
   7123SM    OF 9301   4.029   0.107  15.827 -0.4124  0.3235  0.1169
   7123SM   C2F 9302   3.919  -0.059  15.692  0.2348 -0.3316 -0.0923
   7123SM   H2F 9303   3.847  -0.084  15.773 -0.4147  2.0800  0.1506
   7123SM   H2G 9304   3.943  -0.152  15.637  2.5610  0.1068  0.0982
   7123SM   C3F 9305   3.842   0.041  15.603 -0.3049  0.6923  0.0467
   7123SM   H3F 9306   3.834   0.139  15.656 -0.1522  0.0087  1.3746
   7123SM   H3G 9307   3.737   0.007  15.595 -0.1568  0.0630  0.7116
   7123SM   C4F 9308   3.893   0.036  15.458  0.0757 -0.0861 -0.3131
   7123SM   H4F 9309   4.003   0.022  15.453  0.1389  0.4429 -0.4659
   7123SM   H4G 9310   3.874   0.127  15.398 -0.5014 -0.4756 -0.7392
   7123SM   C5F 9311   3.826  -0.080  15.371 -0.6391 -0.0608 -0.0286
   7123SM   H5F 9312   3.717  -0.091  15.386 -0.7322 -0.2392 -0.8142
   7123SM   H5G 9313   3.859  -0.178  15.412 -1.1763 -0.6916 -1.0746
   7123SM   C6F 9314   3.854  -0.072  15.222 -0.5163  0.6214 -0.8400
   7123SM   H6F 9315   3.834  -0.165  15.164 -0.3363  0.6646 -0.9709
   7123SM   H6G 9316   3.963  -0.069  15.198 -0.5163  0.0504 -0.9193
   7123SM   C7F 9317   3.792   0.052  15.153  0.2335  0.7515  0.6815
   7123SM   H7F 9318   3.843   0.143  15.193  0.5404  0.4490  0.9874
   7123SM   H7G 9319   3.688   0.060  15.189 -0.7453 -0.5517 -1.6520
   7123SM   C8F 9320   3.805   0.047  15.002 -0.5654 -0.1966  0.5807
   7123SM   H8F 9321   3.898   0.006  14.958 -0.3371  0.6072  0.2903
   7123SM   H8G 9322   3.798   0.153  14.968 -0.5021 -0.6527 -0.9250
   7123SM   C9F 9323   3.687  -0.031  14.941 -0.5172  0.1364 -0.5970
   7123SM   H9F 9324   3.596   0.018  14.981  1.7845  3.3856  1.1374
   7123SM   H9G 9325   3.684  -0.135  14.979  1.7455 -0.2405 -1.2703
   7123SM  C10F 9326   3.687  -0.040  14.789 -0.1547 -0.4899  0.0473
   7123SM  H10F 9327   3.785  -0.081  14.755  0.3179  1.1157 -0.6182
   7123SM  H10G 9328   3.671   0.058  14.739 -1.7907  0.1792  1.7616
   7123SM  C11F 9329   3.580  -0.143  14.735 -0.0713  0.4675 -0.1561
   7123SM  H11F 9330   3.481  -0.106  14.770 -1.0238  1.6872 -3.6518
   7123SM  H11G 9331   3.613  -0.241  14.776 -0.4005 -0.0446 -1.0849
   7123SM  C12F 9332   3.578  -0.164  14.583 -0.2322  0.2477 -0.1487
   7123SM  H12F 9333   3.535  -0.264  14.559  2.0703 -1.0258  0.7267
   7123SM  H12G 9334   3.682  -0.177  14.547  0.6973  2.3992  1.5427
   7123SM  C13F 9335   3.500  -0.052  14.507 -0.1652 -0.0312  0.0837
   7123SM  H13F 9336   3.551   0.044  14.527 -0.8318  0.0827  1.3283
   7123SM  H13G 9337   3.406  -0.045  14.564 -0.0708 -0.0438  0.2423
   7123SM  C14F 9338   3.482  -0.071  14.359  0.0682  0.4701  0.2958
   7123SM  H14F 9339   3.401  -0.010  14.313  0.8113  0.8472 -0.5355
   7123SM  H14G 9340   3.461  -0.180  14.349  1.7004  0.1500 -0.0225
   7123SM  C15F 9341   3.600  -0.037  14.273  0.4348  0.6042 -0.4565
   7123SM  H15F 9342   3.685  -0.085  14.326  1.0554  2.1302 -0.0316
   7123SM  H15G 9343   3.608   0.073  14.276 -0.7888  0.7449 -1.4216
   7123SM  C16F 9344   3.579  -0.088  14.134 -0.5972  0.4653  0.0076
   7123SM  H16F 9345   3.526  -0.185  14.144 -2.0254  1.1385 -0.6190
   7123SM  H16G 9346   3.675  -0.119  14.089 -0.7399 -2.2669  1.3525
   7123SM  C17F 9347   3.508   0.019  14.044 -0.2666  0.8294 -0.4082
   7123SM  H17F 9348   3.563   0.115  14.057  0.4712  0.7108 -2.3291
   7123SM  H17G 9349   3.404   0.026  14.081 -0.2027 -0.5331  0.0630
   7123SM  C18F 9350   3.498  -0.033  13.903 -0.0320  0.6354 -0.4201
   7123SM  H18F 9351   3.480  -0.143  13.907  2.1016  0.2265 -0.6501
   7123SM  H18G 9352   3.605  -0.032  13.872 -0.0084 -2.3610 -0.7264
   7123SM  C19F 9353   3.397   0.041  13.815  0.4944 -0.2703  0.5262
   7123SM  H19F 9354   3.394   0.151  13.831 -1.5393 -0.1983 -0.1070
   7123SM  H19G 9355   3.297   0.002  13.843  0.0948  0.0798 -0.3699
   7123SM  C20F 9356   3.403  -0.000  13.673 -0.3564  0.7725  0.5974
   7123SM  H20F 9357   3.385  -0.110  13.679  0.5902  0.6209  0.9126
   7123SM  H20G 9358   3.507   0.010  13.635 -0.2935  1.9654  1.0542
   7123SM  C21F 9359   3.303   0.086  13.599  0.1717 -0.3718  0.5901
   7123SM  H21F 9360   3.340   0.191  13.607  2.2652 -1.1962  4.3990
   7123SM  H21G 9361   3.203   0.080  13.646 -0.2711  0.5232 -0.2158
   7123SM  C22F 9362   3.287   0.047  13.455 -0.7675 -0.3648 -0.2995
   7123SM  H22F 9363   3.191   0.093  13.423 -0.1738  1.5590  0.5215
   7123SM  H22G 9364   3.281  -0.062  13.434  1.2977 -0.2929 -1.4253
   7123SM  C23F 9365   3.396   0.109  13.365  0.3465  0.3861  0.1615
   7123SM  H23F 9366   3.418   0.212  13.402 -0.6289  0.6012  0.1873
   7123SM  H23G 9367   3.348   0.113  13.265 -1.3188 -0.8361  0.8639
   7123SM  H23H 9368   3.478   0.035  13.375 -2.1442 -2.4822  0.7957
   7223SM     N 9369   6.675   3.115  16.551 -0.4311  0.0308  0.2259
   7223SM   C15 9370   6.778   3.223  16.583 -0.6922  0.0302 -0.7169
   7223SM  H15A 9371   6.818   3.220  16.683  0.2385 -0.2760 -1.0820
   7223SM  H15B 9372   6.732   3.319  16.562 -0.9256 -0.0169 -0.4236
   7223SM  H15C 9373   6.865   3.229  16.520 -0.1378 -0.7024 -0.0368
   7223SM   C14 9374   6.553   3.145  16.609  0.8024 -0.0544  0.0129
   7223SM  H14A 9375   6.479   3.067  16.595  1.8509 -1.0958  0.1132
   7223SM  H14B 9376   6.523   3.237  16.562  3.1869 -0.8555 -3.4699
   7223SM  H14C 9377   6.564   3.160  16.716 -2.6131  0.9088  0.3586
   7223SM   C13 9378   6.655   3.102  16.404 -0.1659  0.2817  0.0560
   7223SM  H13A 9379   6.570   3.042  16.374 -0.0463  0.3611 -0.4601
   7223SM  H13B 9380   6.745   3.066  16.357  0.0145  0.8771 -0.0655
   7223SM  H13C 9381   6.625   3.195  16.359 -0.4441 -0.3839 -1.1939
   7223SM   C12 9382   6.743   2.987  16.608  0.0126 -1.1137 -0.2778
   7223SM  H12A 9383   6.742   2.982  16.716 -1.0329  0.5914 -0.1825
   7223SM  H12B 9384   6.848   2.985  16.581  0.2517  0.6719  0.3940
   7223SM   C11 9385   6.680   2.853  16.554 -0.5634 -0.8965 -0.8037
   7223SM  H11A 9386   6.743   2.766  16.581 -1.3056 -0.5613  2.4077
   7223SM  H11B 9387   6.688   2.865  16.443 -0.9492  2.4983 -0.5800
   7223SM     P 9388   6.421   2.794  16.531  0.3171  0.7220 -0.1145
   7223SM   O13 9389   6.382   2.668  16.596  0.7392  0.0129 -0.3741
   7223SM   O14 9390   6.327   2.912  16.536 -0.3829 -0.4497  0.7036
   7223SM   O11 9391   6.464   2.767  16.382  0.3104  0.7296 -0.2571
   7223SM   O12 9392   6.551   2.839  16.614  0.3624 -0.0041 -0.0792
   7223SM   C1S 9393   6.368   2.721  16.285  0.2819  0.3270  0.8192
   7223SM   H1S 9394   6.267   2.764  16.305 -0.0605  0.3457 -0.8026
   7223SM   H1T 9395   6.370   2.610  16.284 -0.0062  0.3212  0.8092
   7223SM    NF 9396   6.310   2.715  16.039 -0.4907  0.2162  0.6087
   7223SM   HNF 9397   6.319   2.626  15.996  0.0730  1.5119 -2.1538
   7223SM   C2S 9398   6.407   2.749  16.135  0.4192  0.5424  0.0534
   7223SM   H2S 9399   6.408   2.860  16.131  2.0734  0.5336 -0.5154
   7223SM   C3S 9400   6.554   2.702  16.105  0.1533 -0.1044  0.3292
   7223SM   H3S 9401   6.553   2.592  16.090 -1.2702  0.0272 -0.7846
   7223SM    O3 9402   6.653   2.739  16.200 -0.0992 -0.1093  0.3307
   7223SM   HO3 9403   6.608   2.770  16.279  0.1318  1.5101 -0.1422
   7223SM   C4S 9404   6.592   2.761  15.968  1.1887 -0.4446 -0.0003
   7223SM   H4S 9405   6.558   2.864  15.949 -2.1556 -1.3769  0.2593
   7223SM   C5S 9406   6.647   2.693  15.861  0.2669 -0.1043 -0.3664
   7223SM   H5S 9407   6.667   2.585  15.862  0.4589 -0.0814  1.3528
   7223SM   C6S 9408   6.657   2.763  15.731  0.0120 -0.3106  0.2504
   7223SM   H6S 9409   6.756   2.741  15.685 -0.8834 -0.0811 -1.8988
   7223SM   H6T 9410   6.680   2.871  15.744  0.8972  0.2013 -3.9824
   7223SM   C7S 9411   6.531   2.747  15.644  1.1376  0.3137  0.8137
   7223SM   H7S 9412   6.448   2.788  15.705 -1.0850 -0.0144 -1.8085
   7223SM   H7T 9413   6.511   2.638  15.630 -1.1825  0.6461  1.1853
   7223SM   C8S 9414   6.527   2.822  15.519 -0.7964 -0.4235  0.2720
   7223SM   H8S 9415   6.612   2.776  15.463 -0.5247  0.0531  0.2889
   7223SM   H8T 9416   6.541   2.930  15.539  1.4159 -0.3094 -1.4363
   7223SM   C9S 9417   6.399   2.794  15.434 -0.4473 -0.2395 -0.3602
   7223SM   H9S 9418   6.322   2.871  15.456  0.4772  0.7071 -0.3803
   7223SM   H9T 9419   6.360   2.692  15.457 -0.0905  0.2008  2.6021
   7223SM  C10S 9420   6.424   2.797  15.284  0.3673 -0.5943  0.1037
   7223SM  H10S 9421   6.521   2.745  15.264 -0.6811 -2.8046  0.4090
   7223SM  H10T 9422   6.447   2.903  15.262  0.0414 -0.6137 -0.3369
   7223SM  C11S 9423   6.302   2.752  15.207  0.1997  0.1026 -0.4382
   7223SM  H11S 9424   6.221   2.822  15.239 -0.3369 -1.7564  2.6555
   7223SM  H11T 9425   6.265   2.649  15.225 -0.8041  0.6218  0.6243
   7223SM  C12S 9426   6.327   2.765  15.062  0.9114 -0.2351 -0.7479
   7223SM  H12S 9427   6.413   2.711  15.017  2.0855  0.6667  0.3236
   7223SM  H12T 9428   6.351   2.872  15.042 -0.2076  0.1985  0.0967
   7223SM  C13S 9429   6.200   2.736  14.977 -0.3684 -0.2893 -0.2123
   7223SM  H13S 9430   6.135   2.826  14.971  0.1919  0.0586 -1.6393
   7223SM  H13T 9431   6.136   2.658  15.025 -0.7401 -0.2213 -0.5877
   7223SM  C14S 9432   6.240   2.685  14.842 -0.4168  0.4401 -0.3695
   7223SM  H14S 9433   6.276   2.580  14.852 -0.8516  0.2915 -0.3408
   7223SM  H14T 9434   6.320   2.751  14.804  1.5779 -0.1334  2.4921
   7223SM  C15S 9435   6.123   2.673  14.738 -0.7705 -0.1881 -0.2525
   7223SM  H15S 9436   6.078   2.775  14.742 -1.5022 -0.5487  1.0758
   7223SM  H15T 9437   6.049   2.599  14.775 -0.9284 -0.6284 -1.4290
   7223SM  C16S 9438   6.181   2.650  14.599  0.2813 -0.4434  0.1218
   7223SM  H16S 9439   6.252   2.564  14.602 -0.9710 -1.4851  1.1275
   7223SM  H16T 9440   6.249   2.734  14.574 -1.4854  2.1571  3.2731
   7223SM  C17S 9441   6.075   2.615  14.495  0.1918 -0.0126 -0.4236
   7223SM  H17S 9442   6.004   2.696  14.470  0.0423 -0.3371 -1.0745
   7223SM  H17T 9443   6.008   2.541  14.544  1.2028 -0.2019  0.7236
   7223SM  C18S 9444   6.135   2.556  14.368  0.5276 -0.6836 -0.1272
   7223SM  H18S 9445   6.061   2.542  14.287  0.0764 -1.3615  0.3928
   7223SM  H18T 9446   6.178   2.457  14.394  1.3748 -0.0144  1.1060
   7223SM  H18U 9447   6.218   2.622  14.336  1.9940 -1.4041  1.9512
   7223SM   C1F 9448   6.193   2.775  16.039  0.1166  0.0456 -0.5369
   7223SM    OF 9449   6.165   2.865  16.115  0.0798  0.0408 -0.2918
   7223SM   C2F 9450   6.090   2.721  15.943  0.5701 -0.0485 -0.4619
   7223SM   H2F 9451   6.007   2.668  15.995 -0.4867  0.7988 -1.2402
   7223SM   H2G 9452   6.127   2.653  15.863  0.4946  0.2461 -0.7487
   7223SM   C3F 9453   6.019   2.837  15.870  0.3047 -0.0495 -0.5758
   7223SM   H3F 9454   6.100   2.898  15.823 -0.8664 -0.3495 -3.1553
   7223SM   H3G 9455   5.951   2.890  15.939  1.0637  2.9834 -1.9521
   7223SM   C4F 9456   5.935   2.763  15.766  0.3385 -0.4992 -0.5884
   7223SM   H4F 9457   5.855   2.708  15.819 -1.2476  0.1019 -2.2342
   7223SM   H4G 9458   5.987   2.694  15.696  1.0275  0.6157 -1.2250
   7223SM   C5F 9459   5.861   2.879  15.687 -0.3099 -0.1563  0.2580
   7223SM   H5F 9460   5.935   2.962  15.686 -0.6396  0.1400  0.1729
   7223SM   H5G 9461   5.770   2.920  15.736  0.1449  1.0156  0.1681
   7223SM   C6F 9462   5.837   2.826  15.549 -0.1097  0.2213  0.1936
   7223SM   H6F 9463   5.765   2.742  15.559  0.1528  0.2907  3.7506
   7223SM   H6G 9464   5.928   2.776  15.508 -0.1325 -0.0146  0.4306
   7223SM   C7F 9465   5.783   2.924  15.445  0.5352 -0.2434  0.1161
   7223SM   H7F 9466   5.869   2.985  15.411 -0.3468 -0.3270 -2.5908
   7223SM   H7G 9467   5.704   2.985  15.494  0.7647 -1.1360  1.6511
   7223SM   C8F 9468   5.707   2.873  15.321 -0.1351 -0.1576  0.4514
   7223SM   H8F 9469   5.640   2.955  15.286  1.3925  1.5086  1.2798
   7223SM   H8G 9470   5.649   2.783  15.351  1.1160 -1.2383 -0.2689
   7223SM   C9F 9471   5.805   2.825  15.206  0.6979  0.0781 -0.2171
   7223SM   H9F 9472   5.867   2.739  15.240  0.6080 -0.0450 -0.3628
   7223SM   H9G 9473   5.878   2.906  15.187 -1.0932  1.6085 -0.9211
   7223SM  C10F 9474   5.724   2.808  15.074 -0.0570 -0.6860 -0.3581
   7223SM  H10F 9475   5.679   2.903  15.037  2.8184  0.7134 -0.5557
   7223SM  H10G 9476   5.640   2.744  15.108  0.0276 -1.4308 -1.5046
   7223SM  C11F 9477   5.809   2.734  14.971  0.0543 -0.9480  0.0079
   7223SM  H11F 9478   5.832   2.635  15.014  1.1803 -0.4958  0.4876
   7223SM  H11G 9479   5.903   2.787  14.946  0.3546 -0.5308  1.8654
   7223SM  C12F 9480   5.725   2.697  14.844 -0.2567 -0.2650  0.2298
   7223SM  H12F 9481   5.630   2.645  14.870 -1.0175  0.8631 -0.1950
   7223SM  H12G 9482   5.789   2.629  14.785  1.1317  0.0861  1.2686
   7223SM  C13F 9483   5.688   2.804  14.748  0.1250 -0.4001 -0.3290
   7223SM  H13F 9484   5.786   2.850  14.722 -0.4381  2.5440  2.1731
   7223SM  H13G 9485   5.630   2.885  14.796  1.0760  0.9734 -1.4301
   7223SM  C14F 9486   5.618   2.762  14.612 -0.3431 -0.1360 -0.0002
   7223SM  H14F 9487   5.604   2.859  14.560 -1.0260 -0.6007 -0.7111
   7223SM  H14G 9488   5.516   2.724  14.631  0.9374 -4.1403 -0.2167
   7223SM  C15F 9489   5.695   2.658  14.524  0.7780  0.5885 -0.1664
   7223SM  H15F 9490   5.669   2.557  14.563  1.5976  0.6789  0.6439
   7223SM  H15G 9491   5.804   2.678  14.538  0.8434  0.9092 -1.1022
   7223SM  C16F 9492   5.678   2.667  14.366 -0.1224 -0.2653 -0.1738
   7223SM  H16F 9493   5.743   2.595  14.312  2.4222  1.3260  0.5863
   7223SM  H16G 9494   5.716   2.770  14.348  1.0229 -0.0737  2.8112
   7223SM  C17F 9495   5.529   2.670  14.336 -0.9723 -0.2293 -0.3335
   7223SM  H17F 9496   5.488   2.761  14.384  0.1700  0.1881 -0.1172
   7223SM  H17G 9497   5.490   2.581  14.389  1.6323 -1.5154 -0.4166
   7223SM  C18F 9498   5.493   2.679  14.189  0.0403 -0.4164 -0.5726
   7223SM  H18F 9499   5.384   2.672  14.173  0.0011 -1.4273  0.0344
   7223SM  H18G 9500   5.540   2.591  14.140  1.2526 -0.5694  0.7771
   7223SM  C19F 9501   5.552   2.806  14.122 -0.1703 -0.6584 -0.1800
   7223SM  H19F 9502   5.662   2.806  14.139 -0.2392  3.5657  1.2914
   7223SM  H19G 9503   5.503   2.886  14.181 -1.1513 -0.1826 -1.5747
   7223SM  C20F 9504   5.511   2.815  13.979 -0.1506  0.4506  0.4870
   7223SM  H20F 9505   5.402   2.795  13.970  0.1580 -0.3690 -2.2730
   7223SM  H20G 9506   5.580   2.749  13.922  1.1305 -1.1291  3.5749
   7223SM  C21F 9507   5.530   2.958  13.917 -0.4288 -0.6387 -0.0942
   7223SM  H21F 9508   5.633   2.984  13.950 -0.1284 -2.3576  0.4357
   7223SM  H21G 9509   5.459   3.034  13.956 -0.1107 -1.5465  2.5085
   7223SM  C22F 9510   5.532   2.951  13.760  0.7887 -0.6647  0.2714
   7223SM  H22F 9511   5.440   2.892  13.741  1.3457 -1.4927  0.0886
   7223SM  H22G 9512   5.620   2.893  13.725 -0.2282 -0.1005 -3.6785
   7223SM  C23F 9513   5.512   3.083  13.679  0.8380 -0.8220  0.3371
   7223SM  H23F 9514   5.504   3.062  13.570 -0.2100 -2.2282  0.6590
   7223SM  H23G 9515   5.589   3.162  13.697  1.9178 -1.8773  0.4817
   7223SM  H23H 9516   5.417   3.129  13.713 -0.2784 -0.6611 -2.7483
   7323SM     N 9517   4.326   1.607  16.177  0.0326  0.9790 -0.1973
   7323SM   C15 9518   4.359   1.486  16.253 -0.1417 -0.4100 -0.0436
   7323SM  H15A 9519   4.291   1.405  16.230  0.6636 -1.0490 -0.2623
   7323SM  H15B 9520   4.358   1.500  16.360  0.3402  0.7695 -0.1779
   7323SM  H15C 9521   4.462   1.453  16.243 -0.2066 -1.3522  1.8552
   7323SM   C14 9522   4.343   1.580  16.034  0.2888 -0.4706  0.5679
   7323SM  H14A 9523   4.265   1.514  15.998 -2.7954  3.4873 -0.7533
   7323SM  H14B 9524   4.438   1.534  16.014 -0.0449 -0.8183 -0.3023
   7323SM  H14C 9525   4.329   1.674  15.981  1.6874 -0.1268  0.7703
   7323SM   C13 9526   4.180   1.641  16.192 -0.1578 -0.7268  0.1638
   7323SM  H13A 9527   4.157   1.746  16.184  0.9505 -0.5786 -1.6139
   7323SM  H13B 9528   4.145   1.611  16.289  1.2752  0.4518  1.0722
   7323SM  H13C 9529   4.107   1.591  16.130 -1.3107  0.4525  0.5396
   7323SM   C12 9530   4.413   1.725  16.221  0.9440 -0.0379 -0.0540
   7323SM  H12A 9531   4.365   1.811  16.177  2.0212  1.0430  0.8124
   7323SM  H12B 9532   4.513   1.720  16.178  0.6101 -4.1457 -0.7802
   7323SM   C11 9533   4.431   1.757  16.369  0.1073 -0.9372 -0.2584
   7323SM  H11A 9534   4.334   1.744  16.421  1.1464 -0.8779  1.7773
   7323SM  H11B 9535   4.454   1.865  16.381  3.2571 -1.4946 -0.3137
   7323SM     P 9536   4.673   1.692  16.448  0.2256 -0.0134 -0.0667
   7323SM   O13 9537   4.707   1.822  16.508  0.1679 -0.3592  0.1649
   7323SM   O14 9538   4.741   1.583  16.521 -0.5100  0.0078 -0.0156
   7323SM   O11 9539   4.729   1.700  16.306  0.1877 -0.0127  0.0403
   7323SM   O12 9540   4.518   1.661  16.428 -0.1888 -0.3186 -0.0250
   7323SM   C1S 9541   4.728   1.577  16.229 -0.2726  0.7427 -0.0824
   7323SM   H1S 9542   4.625   1.559  16.192  0.4072  0.4785 -1.9074
   7323SM   H1T 9543   4.768   1.490  16.285  1.4405 -0.6607 -3.2591
   7323SM    NF 9544   4.789   1.480  16.000 -0.1226  0.1639 -0.4289
   7323SM   HNF 9545   4.846   1.398  16.001  0.4512  0.5546 -0.4074
   7323SM   C2S 9546   4.821   1.583  16.097  0.1317  0.3902  0.9161
   7323SM   H2S 9547   4.793   1.686  16.064  0.0259  0.0822  0.0210
   7323SM   C3S 9548   4.970   1.590  16.144  0.0664  0.5283  0.8042
   7323SM   H3S 9549   4.989   1.489  16.186 -0.6610  0.4105  0.8637
   7323SM    O3 9550   4.996   1.693  16.245  0.4715  0.3960  0.6271
   7323SM   HO3 9551   4.909   1.719  16.275 -0.7992  0.4268 -2.7006
   7323SM   C4S 9552   5.061   1.610  16.026  0.5552 -0.1475 -0.4447
   7323SM   H4S 9553   5.059   1.717  16.002  1.0975  0.3660  1.5708
   7323SM   C5S 9554   5.132   1.514  15.962 -0.3508  0.3495 -0.5457
   7323SM   H5S 9555   5.112   1.409  15.986  1.9855  0.6060  3.5273
   7323SM   C6S 9556   5.239   1.544  15.853  0.9831  0.0446 -0.0934
   7323SM   H6S 9557   5.185   1.532  15.756  2.0337  1.9368 -0.9568
   7323SM   H6T 9558   5.316   1.464  15.860  0.4909 -0.2912  1.9717
   7323SM   C7S 9559   5.302   1.686  15.862  0.0660  0.4859  0.0257
   7323SM   H7S 9560   5.339   1.702  15.966 -2.9308  1.4457  1.0451
   7323SM   H7T 9561   5.226   1.763  15.836 -1.1331 -1.3613 -2.2987
   7323SM   C8S 9562   5.425   1.689  15.778 -0.2547  0.7386  0.9851
   7323SM   H8S 9563   5.516   1.646  15.825 -0.3530 -0.3303  0.2495
   7323SM   H8T 9564   5.452   1.794  15.753  2.7513  0.3269  2.0023
   7323SM   C9S 9565   5.403   1.617  15.638 -0.3574  0.2554 -0.4715
   7323SM   H9S 9566   5.311   1.659  15.594  0.9532  1.4729 -2.1740
   7323SM   H9T 9567   5.402   1.507  15.657  1.3272  0.0147 -1.5956
   7323SM  C10S 9568   5.524   1.646  15.549  0.0531  0.4724 -0.1765
   7323SM  H10S 9569   5.616   1.623  15.607  0.2198  0.1933 -0.5486
   7323SM  H10T 9570   5.530   1.755  15.527 -1.6266  0.0523 -3.3119
   7323SM  C11S 9571   5.521   1.582  15.406 -0.1914 -0.6874  0.3116
   7323SM  H11S 9572   5.615   1.617  15.359 -0.2055 -0.8274  0.1783
   7323SM  H11T 9573   5.439   1.622  15.342  0.9814  0.4931 -0.4913
   7323SM  C12S 9574   5.532   1.428  15.405 -0.0035  0.5444 -0.4072
   7323SM  H12S 9575   5.441   1.392  15.458  0.9543  0.9410  1.5998
   7323SM  H12T 9576   5.624   1.391  15.454  0.0310 -0.1795 -0.9955
   7323SM  C13S 9577   5.520   1.375  15.260 -0.6343  0.3161 -0.1734
   7323SM  H13S 9578   5.613   1.411  15.211 -2.1571  2.5550 -1.6309
   7323SM  H13T 9579   5.435   1.432  15.215  0.0013  1.0576 -0.4630
   7323SM  C14S 9580   5.500   1.222  15.245  0.1294 -0.3411 -0.7272
   7323SM  H14S 9581   5.390   1.207  15.257  0.4105 -3.6769 -1.1741
   7323SM  H14T 9582   5.545   1.183  15.338  0.1276  3.4237  1.0120
   7323SM  C15S 9583   5.553   1.156  15.118  0.5116 -0.1936  0.2910
   7323SM  H15S 9584   5.662   1.154  15.138  0.5086  0.2798  0.3872
   7323SM  H15T 9585   5.540   1.218  15.026  0.6352  0.0729  0.4528
   7323SM  C16S 9586   5.494   1.013  15.100  0.0765  0.0113  0.7266
   7323SM  H16S 9587   5.389   1.019  15.065  0.0251  0.3753  0.9406
   7323SM  H16T 9588   5.488   0.966  15.201  0.4138 -0.6377  0.4512
   7323SM  C17S 9589   5.572   0.928  15.005 -0.2911 -0.3711 -0.2156
   7323SM  H17S 9590   5.551   0.822  15.031  1.7572 -0.2571  2.3873
   7323SM  H17T 9591   5.682   0.940  15.020 -0.2117 -0.6598 -0.5705
   7323SM  C18S 9592   5.523   0.942  14.864 -0.2655  0.0694  0.6399
   7323SM  H18S 9593   5.562   0.869  14.791  1.5330  1.8535 -0.2753
   7323SM  H18T 9594   5.550   1.044  14.829  0.4596  0.7325  2.9490
   7323SM  H18U 9595   5.412   0.943  14.862 -0.2907  1.7443  1.0605
   7323SM   C1F 9596   4.681   1.489  15.932  0.2658  0.1830 -0.2422
   7323SM    OF 9597   4.609   1.588  15.941  0.4192 -0.1435 -0.0584
   7323SM   C2F 9598   4.653   1.366  15.845 -0.1494  0.6668  0.1273
   7323SM   H2F 9599   4.639   1.280  15.914  0.9141  0.6554  0.3367
   7323SM   H2G 9600   4.750   1.343  15.797  0.9337  2.0676  1.5242
   7323SM   C3F 9601   4.539   1.385  15.750  0.6594 -0.3313 -0.5334
   7323SM   H3F 9602   4.451   1.426  15.805  1.2302 -0.1891  0.2935
   7323SM   H3G 9603   4.521   1.283  15.709  0.1442  0.2574 -1.7946
   7323SM   C4F 9604   4.565   1.473  15.623  0.3685 -0.3254 -0.2446
   7323SM   H4F 9605   4.667   1.453  15.584  0.2457  0.6808 -1.1156
   7323SM   H4G 9606   4.563   1.581  15.648  0.4344 -0.3879  0.0391
   7323SM   C5F 9607   4.484   1.452  15.498  0.1750  0.5291  0.6908
   7323SM   H5F 9608   4.375   1.471  15.513 -0.1740  1.9618 -2.7602
   7323SM   H5G 9609   4.486   1.345  15.469 -1.2924  0.0915  2.0749
   7323SM   C6F 9610   4.517   1.541  15.387  0.5372  0.1994 -0.8350
   7323SM   H6F 9611   4.627   1.536  15.374  0.2906  0.8167 -3.9747
   7323SM   H6G 9612   4.490   1.649  15.397 -0.9339  0.1071 -3.1113
   7323SM   C7F 9613   4.457   1.496  15.250 -0.8563  0.1780  0.1483
   7323SM   H7F 9614   4.483   1.389  15.246 -3.2067 -0.6885  3.5753
   7323SM   H7G 9615   4.501   1.565  15.176 -0.0961 -1.8317 -1.3388
   7323SM   C8F 9616   4.310   1.514  15.244 -0.5525 -0.7575  0.1438
   7323SM   H8F 9617   4.282   1.609  15.294 -0.1705  1.3253 -3.3499
   7323SM   H8G 9618   4.248   1.439  15.299 -2.6955  0.3787 -0.6006
   7323SM   C9F 9619   4.262   1.524  15.100 -0.3677  0.5116  0.1073
   7323SM   H9F 9620   4.324   1.592  15.036  2.0237 -0.9597  0.7225
   7323SM   H9G 9621   4.159   1.565  15.098  0.0897  1.6822 -1.2401
   7323SM  C10F 9622   4.266   1.391  15.022 -0.4183  0.2022  0.7267
   7323SM  H10F 9623   4.167   1.394  14.971  0.0894  0.5125 -0.2717
   7323SM  H10G 9624   4.271   1.301  15.087 -0.2517 -2.1236 -2.2830
   7323SM  C11F 9625   4.374   1.385  14.913  0.0809  0.2236  0.5865
   7323SM  H11F 9626   4.411   1.285  14.881  0.8730  0.7439 -0.1755
   7323SM  H11G 9627   4.461   1.440  14.955 -0.5580  2.3000 -0.6476
   7323SM  C12F 9628   4.340   1.455  14.785  0.0935 -0.2153  0.8540
   7323SM  H12F 9629   4.433   1.457  14.724  0.0087  1.9073  0.7462
   7323SM  H12G 9630   4.306   1.559  14.800 -0.3834 -0.2301 -0.0498
   7323SM  C13F 9631   4.228   1.387  14.704 -0.2590  0.0946  0.2754
   7323SM  H13F 9632   4.232   1.430  14.602  2.1030 -2.1399 -0.6750
   7323SM  H13G 9633   4.128   1.415  14.745  0.2852  2.0065  0.4061
   7323SM  C14F 9634   4.234   1.232  14.675 -0.3065 -0.8330 -0.4428
   7323SM  H14F 9635   4.151   1.197  14.610  0.7059 -0.9999 -1.6915
   7323SM  H14G 9636   4.232   1.186  14.776 -1.3995  0.9703  0.4325
   7323SM  C15F 9637   4.366   1.207  14.605 -0.3846 -0.3971 -0.1099
   7323SM  H15F 9638   4.433   1.154  14.676 -0.6660  2.1594  2.2204
   7323SM  H15G 9639   4.420   1.298  14.572 -0.7978 -0.0199  0.2462
   7323SM  C16F 9640   4.345   1.120  14.476  0.1103  0.0164  0.0225
   7323SM  H16F 9641   4.290   1.026  14.497  0.7961 -0.1730  1.0531
   7323SM  H16G 9642   4.446   1.091  14.440 -0.0608 -2.4354  1.2881
   7323SM  C17F 9643   4.275   1.202  14.357  0.1670  0.4076  0.6191
   7323SM  H17F 9644   4.320   1.301  14.337 -2.0854  2.1923  3.5122
   7323SM  H17G 9645   4.168   1.216  14.385 -0.7313  0.5921 -2.5346
   7323SM  C18F 9646   4.265   1.112  14.227 -0.6162 -0.7343  0.0906
   7323SM  H18F 9647   4.195   1.029  14.245 -0.8178 -0.7236 -0.6025
   7323SM  H18G 9648   4.366   1.080  14.194 -1.2601  0.0906 -3.0843
   7323SM  C19F 9649   4.216   1.203  14.110 -0.2355 -0.6689 -0.3697
   7323SM  H19F 9650   4.274   1.298  14.106 -1.7024  0.2296 -0.9745
   7323SM  H19G 9651   4.112   1.236  14.131 -0.1475 -0.1669 -0.7021
   7323SM  C20F 9652   4.211   1.120  13.985  0.7025 -0.1386  0.4885
   7323SM  H20F 9653   4.175   1.017  14.005 -0.1545  0.4355  2.0272
   7323SM  H20G 9654   4.312   1.103  13.942  1.0076  1.2385  0.6194
   7323SM  C21F 9655   4.133   1.183  13.869 -0.2453  0.7409 -0.0846
   7323SM  H21F 9656   4.189   1.274  13.841 -2.1082  2.3982  1.3065
   7323SM  H21G 9657   4.028   1.205  13.899  0.1387  2.9401 -0.2027
   7323SM  C22F 9658   4.133   1.079  13.751  0.1350 -0.0127  1.1531
   7323SM  H22F 9659   4.061   1.115  13.674  0.2483 -2.1214 -0.0141
   7323SM  H22G 9660   4.098   0.981  13.788  1.1358 -0.8312 -0.0084
   7323SM  C23F 9661   4.267   1.055  13.676 -0.2480 -0.0976 -0.3164
   7323SM  H23F 9662   4.251   0.960  13.620  1.4893 -1.2599  1.0851
   7323SM  H23G 9663   4.345   1.033  13.752 -0.1261  0.1313 -0.3726
   7323SM  H23H 9664   4.302   1.136  13.608  0.4580  0.2939  0.5073
   7423SM     N 9665   0.625   4.554  16.614  0.8053  0.0116 -0.1770
   7423SM   C15 9666   0.511   4.657  16.617 -0.3299  0.1539  0.2287
   7423SM  H15A 9667   0.428   4.609  16.567 -0.1760  0.0364  0.0846
   7423SM  H15B 9668   0.548   4.746  16.568 -0.9047  0.5398  0.4832
   7423SM  H15C 9669   0.487   4.690  16.717  5.7177  4.0571  0.8705
   7423SM   C14 9670   0.753   4.624  16.657 -0.4346 -0.2555  0.4909
   7423SM  H14A 9671   0.771   4.715  16.602  0.3327 -0.4689  0.3796
   7423SM  H14B 9672   0.836   4.562  16.627 -1.2548 -0.9193 -0.4967
   7423SM  H14C 9673   0.773   4.636  16.763  1.6832 -0.5586  0.1713
   7423SM   C13 9674   0.595   4.440  16.705  0.0136  0.5006  0.0658
   7423SM  H13A 9675   0.496   4.399  16.694  0.4616 -0.7255  0.4651
   7423SM  H13B 9676   0.597   4.462  16.811 -0.0257 -0.9385  0.3890
   7423SM  H13C 9677   0.657   4.354  16.687  2.2512  1.3654  2.8169
   7423SM   C12 9678   0.649   4.506  16.465 -0.3681 -0.1380 -0.5200
   7423SM  H12A 9679   0.678   4.598  16.416 -1.5686  1.9956  2.3949
   7423SM  H12B 9680   0.561   4.469  16.416 -0.5514  0.5854 -0.7590
   7423SM   C11 9681   0.761   4.402  16.437  0.4379  0.2050 -0.0072
   7423SM  H11A 9682   0.853   4.444  16.483  0.1563  0.9318 -0.0946
   7423SM  H11B 9683   0.775   4.401  16.327  2.4532  2.8783  0.1033
   7423SM     P 9684   0.846   4.170  16.546  0.1451 -0.2971  0.3024
   7423SM   O13 9685   0.918   4.246  16.652 -0.2921 -0.2041  0.6037
   7423SM   O14 9686   0.780   4.046  16.595 -0.3483  0.2634 -0.1215
   7423SM   O11 9687   0.940   4.130  16.424  0.2156  0.7650  0.6429
   7423SM   O12 9688   0.729   4.265  16.485 -0.2538  0.1588 -0.3927
   7423SM   C1S 9689   0.882   4.101  16.293 -0.2652 -0.1676  0.4216
   7423SM   H1S 9690   0.775   4.130  16.285  0.2976  1.5632 -2.0213
   7423SM   H1T 9691   0.888   3.991  16.279  2.1269  0.0556 -0.7207
   7423SM    NF 9692   0.901   4.156  16.048 -0.0538  0.4551 -0.6674
   7423SM   HNF 9693   0.917   4.066  16.009 -0.1817 -0.4732  1.3514
   7423SM   C2S 9694   0.968   4.172  16.184  0.0328  0.1224  0.5643
   7423SM   H2S 9695   0.965   4.280  16.206  0.7808  0.4358 -0.7219
   7423SM   C3S 9696   1.115   4.127  16.198  0.4249 -0.7624  0.2771
   7423SM   H3S 9697   1.118   4.017  16.190  0.5848 -0.6269 -2.4447
   7423SM    O3 9698   1.183   4.163  16.320  0.6571 -0.4440 -0.2367
   7423SM   HO3 9699   1.105   4.174  16.376 -0.5303  1.4188 -2.0734
   7423SM   C4S 9700   1.199   4.182  16.083 -0.2556  0.3008 -0.2465
   7423SM   H4S 9701   1.215   4.291  16.081 -2.7484  0.7980  1.5469
   7423SM   C5S 9702   1.282   4.112  16.009 -0.4166 -0.3481  0.0712
   7423SM   H5S 9703   1.295   4.003  16.025  1.0843 -0.2205 -0.1263
   7423SM   C6S 9704   1.376   4.169  15.902  0.6588 -0.3006  0.3543
   7423SM   H6S 9705   1.477   4.124  15.910 -0.0354 -1.8252  1.0368
   7423SM   H6T 9706   1.388   4.276  15.929 -0.8490  0.1429 -0.6079
   7423SM   C7S 9707   1.334   4.165  15.752 -0.8758 -0.1642  0.6387
   7423SM   H7S 9708   1.400   4.242  15.706  0.3806 -1.8971 -0.6144
   7423SM   H7T 9709   1.225   4.185  15.747 -1.1438 -0.8615  2.8394
   7423SM   C8S 9710   1.363   4.023  15.685 -0.5191 -0.3819 -0.3029
   7423SM   H8S 9711   1.284   3.950  15.712 -2.2673  1.1098 -1.1544
   7423SM   H8T 9712   1.461   3.993  15.728  0.3649  1.3635 -0.9759
   7423SM   C9S 9713   1.390   4.027  15.529  0.1760  0.5582 -0.3073
   7423SM   H9S 9714   1.472   4.093  15.493 -0.2312  0.1140 -2.1696
   7423SM   H9T 9715   1.300   4.072  15.482  1.8273  2.7135 -1.5376
   7423SM  C10S 9716   1.406   3.879  15.483  0.5786 -0.2549  0.5369
   7423SM  H10S 9717   1.334   3.820  15.543 -0.9725  2.5873  1.6922
   7423SM  H10T 9718   1.510   3.843  15.488  0.6519 -0.2116 -0.4465
   7423SM  C11S 9719   1.377   3.865  15.336  0.5139  0.5465 -0.3831
   7423SM  H11S 9720   1.272   3.886  15.307  0.3505  0.5123  0.1737
   7423SM  H11T 9721   1.387   3.759  15.305  1.9055  0.6187 -0.2553
   7423SM  C12S 9722   1.470   3.947  15.250 -0.4949 -0.7161  1.3649
   7423SM  H12S 9723   1.577   3.924  15.270  0.1027  0.6605  0.0017
   7423SM  H12T 9724   1.470   4.056  15.272  0.3391 -0.5880  0.7922
   7423SM  C13S 9725   1.447   3.921  15.093  0.2797  0.3076 -0.5788
   7423SM  H13S 9726   1.350   3.970  15.072 -0.6852 -1.3793 -0.2421
   7423SM  H13T 9727   1.441   3.814  15.067  0.6208 -0.2772  1.5637
   7423SM  C14S 9728   1.564   4.000  15.024  0.9278  0.2251  0.1076
   7423SM  H14S 9729   1.652   3.935  15.039  0.9559  0.3057  0.2860
   7423SM  H14T 9730   1.585   4.101  15.066 -1.1884  1.2707 -1.1505
   7423SM  C15S 9731   1.527   4.026  14.881 -0.4668 -0.1100 -0.3693
   7423SM  H15S 9732   1.475   4.121  14.858  0.0472  0.3449  0.2953
   7423SM  H15T 9733   1.455   3.952  14.843 -1.2085 -0.0066  0.7768
   7423SM  C16S 9734   1.640   4.006  14.779 -0.4482  0.5203  0.4857
   7423SM  H16S 9735   1.727   3.940  14.800  0.0236  1.0988  0.3742
   7423SM  H16T 9736   1.694   4.103  14.782  1.3244 -0.3854 -0.0860
   7423SM  C17S 9737   1.590   3.975  14.642 -0.8433  0.4868  0.4064
   7423SM  H17S 9738   1.564   3.867  14.631 -0.6994  0.5475 -0.6625
   7423SM  H17T 9739   1.675   3.995  14.572 -1.1081  0.2685  0.0161
   7423SM  C18S 9740   1.473   4.056  14.584  0.0145 -0.1271 -0.3439
   7423SM  H18S 9741   1.474   4.167  14.591 -3.2846  0.0060 -0.4305
   7423SM  H18T 9742   1.378   4.037  14.638 -0.9494  0.4198 -1.7960
   7423SM  H18U 9743   1.460   4.023  14.479 -0.9138  0.0237 -0.2858
   7423SM   C1F 9744   0.786   4.215  16.013  0.6254 -0.0787  0.2161
   7423SM    OF 9745   0.742   4.308  16.078 -0.0556 -0.0021  0.3183
   7423SM   C2F 9746   0.710   4.157  15.902  0.9074  0.4128 -0.1093
   7423SM   H2F 9747   0.616   4.110  15.939  1.0382  0.0210 -0.2745
   7423SM   H2G 9748   0.755   4.062  15.867  2.1949  0.0544  2.2777
   7423SM   C3F 9749   0.683   4.263  15.787  0.0148  0.8751  0.3041
   7423SM   H3F 9750   0.785   4.286  15.747  0.2540  0.9202  0.9147
   7423SM   H3G 9751   0.653   4.363  15.825 -2.3003 -0.3306  1.8914
   7423SM   C4F 9752   0.589   4.218  15.678  0.3003  0.6112 -0.2053
   7423SM   H4F 9753   0.496   4.166  15.712  1.0253 -0.4207  0.2455
   7423SM   H4G 9754   0.647   4.145  15.617 -1.7790  0.3697 -2.0402
   7423SM   C5F 9755   0.530   4.328  15.590 -0.4014 -0.3236 -0.7939
   7423SM   H5F 9756   0.486   4.410  15.650  1.8640  0.6375 -0.3618
   7423SM   H5G 9757   0.436   4.287  15.545 -1.2021  0.2195  0.3470
   7423SM   C6F 9758   0.635   4.370  15.486  0.0263  0.8759 -0.1107
   7423SM   H6F 9759   0.643   4.307  15.395  0.5536 -1.1794  1.2774
   7423SM   H6G 9760   0.736   4.362  15.531  0.2530 -1.5959 -0.9243
   7423SM   C7F 9761   0.605   4.509  15.429  0.3325  1.4242  0.3337
   7423SM   H7F 9762   0.601   4.575  15.519  1.6343 -0.7522  2.1102
   7423SM   H7G 9763   0.508   4.497  15.376  0.7582  0.3126 -0.2191
   7423SM   C8F 9764   0.700   4.566  15.326  0.6740 -0.6610 -0.3670
   7423SM   H8F 9765   0.804   4.581  15.364  1.4307  3.2994 -3.2590
   7423SM   H8G 9766   0.672   4.670  15.298 -0.4329 -1.0424 -0.7054
   7423SM   C9F 9767   0.704   4.479  15.203 -0.3229  0.1714  1.0254
   7423SM   H9F 9768   0.611   4.421  15.185 -0.7764  1.2195 -0.1660
   7423SM   H9G 9769   0.788   4.409  15.222 -0.5849  0.1576  2.2406
   7423SM  C10F 9770   0.741   4.567  15.078 -0.0710  0.0890  0.5268
   7423SM  H10F 9771   0.845   4.603  15.090  1.4010 -2.7857 -2.0983
   7423SM  H10G 9772   0.664   4.646  15.063 -1.1356 -0.8929  0.6937
   7423SM  C11F 9773   0.760   4.481  14.951 -0.4919 -0.0488 -0.4321
   7423SM  H11F 9774   0.749   4.553  14.867  0.9383  2.3558  1.3420
   7423SM  H11G 9775   0.684   4.401  14.963  1.2545 -1.7383 -0.1076
   7423SM  C12F 9776   0.907   4.423  14.944  0.4841  0.1871  0.7708
   7423SM  H12F 9777   0.919   4.346  15.023 -0.8715 -0.5307  0.3112
   7423SM  H12G 9778   0.979   4.506  14.960  1.3378 -0.3426 -0.2259
   7423SM  C13F 9779   0.939   4.339  14.819  0.2216  0.4719  0.3381
   7423SM  H13F 9780   0.869   4.253  14.812  2.0801 -1.0677 -0.3955
   7423SM  H13G 9781   1.035   4.284  14.831 -0.0724  0.0380  0.7443
   7423SM  C14F 9782   0.940   4.407  14.682 -0.1458 -0.5851 -0.3893
   7423SM  H14F 9783   0.998   4.501  14.697  0.8140 -1.1504 -0.5026
   7423SM  H14G 9784   0.831   4.429  14.675 -0.2973  0.2565  2.9995
   7423SM  C15F 9785   0.982   4.316  14.566 -0.0275  0.5802  0.0145
   7423SM  H15F 9786   0.929   4.219  14.554  0.3192  0.1719  1.5507
   7423SM  H15G 9787   1.091   4.293  14.567 -0.0831  0.2139 -1.1463
   7423SM  C16F 9788   0.960   4.385  14.435  0.0666 -0.2224  0.5949
   7423SM  H16F 9789   1.040   4.460  14.421  0.1351 -0.6778 -1.9886
   7423SM  H16G 9790   0.862   4.437  14.431 -0.1426 -0.5535  1.2668
   7423SM  C17F 9791   0.939   4.295  14.311  0.0691 -0.5974  0.2351
   7423SM  H17F 9792   0.862   4.217  14.329 -0.2640 -0.2045  0.5566
   7423SM  H17G 9793   1.027   4.228  14.298  1.9137  1.6798  0.3464
   7423SM  C18F 9794   0.932   4.367  14.182 -0.2269  0.5713  0.6724
   7423SM  H18F 9795   0.939   4.296  14.096 -0.3685 -0.4963  1.5156
   7423SM  H18G 9796   1.019   4.434  14.173  1.3292 -1.1363  2.2347
   7423SM  C19F 9797   0.806   4.452  14.156 -0.2118  0.2948  0.2078
   7423SM  H19F 9798   0.803   4.521  14.243 -1.3255 -0.6047  0.9086
   7423SM  H19G 9799   0.714   4.391  14.166  1.2040 -2.5082 -2.2549
   7423SM  C20F 9800   0.812   4.542  14.026  0.9652 -0.5854  0.4046
   7423SM  H20F 9801   0.816   4.476  13.936  0.6903  0.5606 -0.4649
   7423SM  H20G 9802   0.899   4.610  14.035 -0.3607  1.5455 -1.7159
   7423SM  C21F 9803   0.696   4.636  14.011 -0.5503 -0.0234  0.2051
   7423SM  H21F 9804   0.713   4.689  13.915  0.3764 -0.7490 -0.0508
   7423SM  H21G 9805   0.688   4.711  14.093  1.0129  0.3384  0.0677
   7423SM  C22F 9806   0.567   4.561  13.996 -0.2192  0.0249 -0.0035
   7423SM  H22F 9807   0.538   4.515  14.092  0.7920  1.6898  1.1494
   7423SM  H22G 9808   0.578   4.479  13.921 -1.3824  0.2501 -0.4493
   7423SM  C23F 9809   0.456   4.664  13.958 -0.9660  0.1652  0.4705
   7423SM  H23F 9810   0.363   4.608  13.937 -1.8439  1.3692  1.0589
   7423SM  H23G 9811   0.488   4.724  13.870  0.1711 -1.0989 -0.0082
   7423SM  H23H 9812   0.441   4.735  14.042 -1.0826  0.6431  0.0459
   7523SM     N 9813   7.467   6.236  16.607  1.0289  0.1158 -0.4832
   7523SM   C15 9814   7.325   6.206  16.652 -0.7879  0.9285  0.7290
   7523SM  H15A 9815   7.276   6.296  16.689 -2.8382 -0.7615  2.4446
   7523SM  H15B 9816   7.331   6.151  16.745  0.7274 -0.3239 -0.0658
   7523SM  H15C 9817   7.262   6.153  16.582  0.6936 -1.0740  0.8387
   7523SM   C14 9818   7.535   6.319  16.704 -0.9143  0.3302 -0.5407
   7523SM  H14A 9819   7.521   6.265  16.796  0.8491 -0.3002 -0.6029
   7523SM  H14B 9820   7.503   6.422  16.709 -0.7643  0.3804 -0.5893
   7523SM  H14C 9821   7.643   6.316  16.697 -0.7616 -1.3294  1.6051
   7523SM   C13 9822   7.542   6.107  16.598 -0.5633 -0.0924 -0.4038
   7523SM  H13A 9823   7.539   6.058  16.694 -1.6666  0.1054 -0.3206
   7523SM  H13B 9824   7.643   6.123  16.565 -0.2406 -0.2695  0.4606
   7523SM  H13C 9825   7.502   6.037  16.526 -0.6647  0.8360 -1.2774
   7523SM   C12 9826   7.463   6.305  16.467 -0.1633  0.2410  0.9554
   7523SM  H12A 9827   7.559   6.340  16.430 -1.5234  0.0431 -3.3501
   7523SM  H12B 9828   7.403   6.395  16.468 -1.7987 -0.7007 -1.5106
   7523SM   C11 9829   7.416   6.210  16.348  0.3971 -0.2612 -0.1650
   7523SM  H11A 9830   7.500   6.139  16.332 -0.9664 -1.8544 -0.4297
   7523SM  H11B 9831   7.419   6.271  16.256 -0.2366  1.1690  0.7218
   7523SM     P 9832   7.155   6.231  16.354  0.0784  0.3653 -0.0121
   7523SM   O13 9833   7.068   6.178  16.462  0.4448 -0.3096 -0.4186
   7523SM   O14 9834   7.177   6.378  16.344  0.2017 -0.6485  0.5535
   7523SM   O11 9835   7.102   6.174  16.218  0.5422 -0.6319 -0.3862
   7523SM   O12 9836   7.290   6.143  16.364 -0.4606  0.5691 -0.4859
   7523SM   C1S 9837   7.182   6.188  16.096  0.1338  1.1269  0.1200
   7523SM   H1S 9838   7.275   6.131  16.118 -1.5302 -1.3182  1.2501
   7523SM   H1T 9839   7.207   6.293  16.068  2.9386  0.8005  1.1620
   7523SM    NF 9840   7.199   6.118  15.863 -0.1221  0.1225  0.1437
   7523SM   HNF 9841   7.226   6.204  15.820  0.3515 -0.9128 -1.7803
   7523SM   C2S 9842   7.111   6.117  15.978  0.0350  0.3566  0.1216
   7523SM   H2S 9843   7.092   6.016  16.022 -0.5570  0.5911  0.4201
   7523SM   C3S 9844   6.971   6.182  15.959 -0.1973  0.2177 -0.0311
   7523SM   H3S 9845   6.976   6.287  15.922  1.2547  0.3992  0.6088
   7523SM    O3 9846   6.882   6.192  16.069 -0.6087 -0.0119  0.0087
   7523SM   HO3 9847   6.928   6.158  16.146  0.8252 -0.9344 -1.1990
   7523SM   C4S 9848   6.895   6.103  15.849  0.5968  0.1204 -0.3072
   7523SM   H4S 9849   6.869   6.000  15.877  1.5502 -0.2500 -0.7277
   7523SM   C5S 9850   6.857   6.149  15.728 -0.4302  0.2205 -0.2246
   7523SM   H5S 9851   6.895   6.250  15.709 -0.6841 -0.0931 -2.7591
   7523SM   C6S 9852   6.786   6.068  15.618 -0.0369 -0.0590  0.1678
   7523SM   H6S 9853   6.687   6.110  15.590  1.0589 -0.0722 -4.6318
   7523SM   H6T 9854   6.789   5.959  15.637  1.3004 -0.3000 -1.2177
   7523SM   C7S 9855   6.861   6.088  15.481  0.1756  0.2456 -0.2722
   7523SM   H7S 9856   6.953   6.030  15.500 -0.3941 -0.4535  0.4540
   7523SM   H7T 9857   6.886   6.196  15.467 -1.2596  0.6913  0.3251
   7523SM   C8S 9858   6.787   6.029  15.353 -0.0937  0.3302  0.5367
   7523SM   H8S 9859   6.855   6.049  15.268 -0.2138 -0.5598  0.2219
   7523SM   H8T 9860   6.695   6.091  15.342 -1.2834 -1.1708  1.7150
   7523SM   C9S 9861   6.762   5.869  15.359 -0.1447  0.1274 -1.1828
   7523SM   H9S 9862   6.728   5.846  15.462  0.2286  2.5782 -0.4385
   7523SM   H9T 9863   6.855   5.819  15.324 -0.0252 -0.2033 -0.3991
   7523SM  C10S 9864   6.638   5.825  15.280  0.8422  0.4444  0.4347
   7523SM  H10S 9865   6.561   5.901  15.304  1.0762  0.8677 -0.1424
   7523SM  H10T 9866   6.598   5.729  15.320 -0.9874 -0.6161 -3.4660
   7523SM  C11S 9867   6.671   5.810  15.125  0.2159 -0.4550  0.7600
   7523SM  H11S 9868   6.709   5.708  15.102  0.4578 -0.2035  0.0217
   7523SM  H11T 9869   6.754   5.882  15.108  1.1017 -0.9761  2.6665
   7523SM  C12S 9870   6.559   5.840  15.026  0.2301 -0.4571 -0.0419
   7523SM  H12S 9871   6.492   5.751  15.021  1.9115 -1.8505  0.8385
   7523SM  H12T 9872   6.596   5.860  14.924  0.4766 -0.8764 -0.0399
   7523SM  C13S 9873   6.469   5.960  15.064 -0.2425 -0.1965 -0.2184
   7523SM  H13S 9874   6.538   6.047  15.060  0.3104 -0.6748 -1.3700
   7523SM  H13T 9875   6.422   5.951  15.165 -0.3419 -1.1195 -0.3399
   7523SM  C14S 9876   6.348   5.991  14.987 -0.3868 -0.0102  0.4714
   7523SM  H14S 9877   6.262   5.921  14.993 -0.0312 -0.5637 -0.6835
   7523SM  H14T 9878   6.381   5.993  14.881 -1.4245 -0.8910  0.1184
   7523SM  C15S 9879   6.285   6.129  15.043 -0.0537 -0.2306  0.0152
   7523SM  H15S 9880   6.366   6.204  15.035  0.6186 -0.8152  1.0249
   7523SM  H15T 9881   6.252   6.112  15.148 -1.8707  0.5594 -0.3844
   7523SM  C16S 9882   6.164   6.171  14.965 -0.1475 -1.2882  0.6046
   7523SM  H16S 9883   6.132   6.270  15.004  2.0115 -0.0070 -0.6586
   7523SM  H16T 9884   6.070   6.113  14.965 -0.9194 -0.1414 -1.2834
   7523SM  C17S 9885   6.195   6.183  14.817  0.1346 -0.2240  0.1385
   7523SM  H17S 9886   6.197   6.082  14.771  1.7398  0.0207 -0.3861
   7523SM  H17T 9887   6.294   6.230  14.801 -0.1551  0.3873  0.1088
   7523SM  C18S 9888   6.090   6.282  14.749  0.4945 -0.5755 -0.0224
   7523SM  H18S 9889   6.131   6.385  14.763 -0.4495 -0.4328  2.2511
   7523SM  H18T 9890   5.990   6.272  14.797  0.6648  1.4118  0.8943
   7523SM  H18U 9891   6.088   6.254  14.642  1.1619 -3.8187  0.7226
   7523SM   C1F 9892   7.303   6.037  15.860  0.2307 -0.3237  0.4604
   7523SM    OF 9893   7.303   5.943  15.940 -0.1621 -0.9229  0.4572
   7523SM   C2F 9894   7.415   6.065  15.758 -0.1060  0.0769  0.1948
   7523SM   H2F 9895   7.503   6.111  15.808  0.1578 -0.1713 -0.0396
   7523SM   H2G 9896   7.370   6.140  15.691  1.7300  0.6773 -0.4150
   7523SM   C3F 9897   7.477   5.937  15.694 -0.2751  0.1445 -0.3035
   7523SM   H3F 9898   7.502   5.857  15.767  1.2169  2.0731  1.4009
   7523SM   H3G 9899   7.572   5.956  15.640 -0.1736  1.3872  0.2779
   7523SM   C4F 9900   7.373   5.863  15.597 -0.6665  0.2739 -0.4179
   7523SM   H4F 9901   7.294   5.825  15.666  1.2476 -0.9228  1.2337
   7523SM   H4G 9902   7.417   5.770  15.554  0.3193  1.0571 -1.1507
   7523SM   C5F 9903   7.310   5.943  15.487  0.3550  0.3883  0.3702
   7523SM   H5F 9904   7.385   6.008  15.437  0.6051 -0.0507  0.1604
   7523SM   H5G 9905   7.235   6.008  15.537 -3.0421 -3.1480  0.4153
   7523SM   C6F 9906   7.242   5.847  15.387  0.3498  0.5962  0.0555
   7523SM   H6F 9907   7.174   5.779  15.443 -0.4533  2.1599  1.0521
   7523SM   H6G 9908   7.315   5.771  15.352 -0.5739 -0.8648  1.1610
   7523SM   C7F 9909   7.165   5.919  15.276  0.5275  0.8073  0.0789
   7523SM   H7F 9910   7.226   6.000  15.230  0.2707 -1.0066 -3.7677
   7523SM   H7G 9911   7.066   5.945  15.319  0.2397 -0.1907  0.0466
   7523SM   C8F 9912   7.126   5.829  15.156  0.1444  0.6387  0.4053
   7523SM   H8F 9913   7.070   5.743  15.198 -1.0547  1.1791 -0.0534
   7523SM   H8G 9914   7.226   5.791  15.127 -0.8208 -1.1203 -0.7791
   7523SM   C9F 9915   7.069   5.902  15.029  0.0287 -0.4599 -0.2484
   7523SM   H9F 9916   7.001   5.984  15.063  0.9443 -0.1003  0.7849
   7523SM   H9G 9917   7.009   5.827  14.973  0.8852  0.9595 -3.2856
   7523SM  C10F 9918   7.177   5.949  14.934 -0.6621 -0.5611 -0.2839
   7523SM  H10F 9919   7.228   5.860  14.890 -2.2272 -1.7228  0.1853
   7523SM  H10G 9920   7.256   5.999  14.994  2.0040 -1.8926 -2.4480
   7523SM  C11F 9921   7.130   6.048  14.820  0.1256  0.0765 -0.0777
   7523SM  H11F 9922   7.208   6.059  14.742 -1.4574 -1.6769 -2.0016
   7523SM  H11G 9923   7.111   6.148  14.866 -2.5451  1.1379 -3.0994
   7523SM  C12F 9924   7.001   5.999  14.744 -0.0171  1.0079 -0.1649
   7523SM  H12F 9925   6.923   5.955  14.809  0.6449  0.1414  0.0505
   7523SM  H12G 9926   7.024   5.911  14.681 -1.3790 -0.7630  1.7052
   7523SM  C13F 9927   6.949   6.111  14.658 -0.2298  0.2097 -0.3665
   7523SM  H13F 9928   7.034   6.149  14.597  0.3712  0.9765  0.9103
   7523SM  H13G 9929   6.922   6.187  14.733 -1.0915 -1.3357  0.9327
   7523SM  C14F 9930   6.825   6.078  14.584  0.1933  0.2443 -0.3835
   7523SM  H14F 9931   6.774   5.995  14.637 -0.2689  0.4440 -0.5064
   7523SM  H14G 9932   6.866   6.038  14.489  1.3852  2.4161 -0.8628
   7523SM  C15F 9933   6.727   6.195  14.560  0.2313 -0.5468 -0.4014
   7523SM  H15F 9934   6.661   6.164  14.476 -0.2759  0.9106 -0.5590
   7523SM  H15G 9935   6.782   6.284  14.524 -0.0165 -1.0310 -2.0221
   7523SM  C16F 9936   6.646   6.226  14.684  0.2477  0.5578 -0.3557
   7523SM  H16F 9937   6.717   6.216  14.769  1.1512 -2.6451 -1.3339
   7523SM  H16G 9938   6.581   6.138  14.704  1.8947 -0.8866 -1.0580
   7523SM  C17F 9939   6.562   6.360  14.686  0.1044  0.5803 -0.3246
   7523SM  H17F 9940   6.525   6.373  14.790  0.4388 -1.0010  0.0074
   7523SM  H17G 9941   6.471   6.346  14.623 -0.4642  1.3841  0.2791
   7523SM  C18F 9942   6.634   6.492  14.665  0.2381 -0.0358 -0.2899
   7523SM  H18F 9943   6.669   6.502  14.560  2.2705  0.0192  0.3693
   7523SM  H18G 9944   6.728   6.484  14.723  0.5858 -0.3199 -0.8805
   7523SM  C19F 9945   6.558   6.620  14.715  0.2446 -0.0763  0.1862
   7523SM  H19F 9946   6.625   6.703  14.684 -1.7580  1.6595  0.2928
   7523SM  H19G 9947   6.542   6.616  14.825  1.2757 -0.8039  0.3195
   7523SM  C20F 9948   6.417   6.647  14.653  0.5004 -0.1399 -0.2073
   7523SM  H20F 9949   6.345   6.565  14.677  0.9699 -0.3259  0.5611
   7523SM  H20G 9950   6.424   6.644  14.542 -0.8846  0.9831 -0.3537
   7523SM  C21F 9951   6.355   6.774  14.696  0.4496 -0.4625 -0.6634
   7523SM  H21F 9952   6.422   6.855  14.660  0.6862 -0.7283 -0.8214
   7523SM  H21G 9953   6.335   6.787  14.804 -0.8687  4.0343 -1.2013
   7523SM  C22F 9954   6.215   6.785  14.623 -0.1911  0.3289  0.1907
   7523SM  H22F 9955   6.157   6.698  14.660 -0.3633  0.2345 -0.2969
   7523SM  H22G 9956   6.228   6.757  14.516  0.5517  2.1096 -0.2230
   7523SM  C23F 9957   6.141   6.916  14.642  0.2533  0.2698  0.3432
   7523SM  H23F 9958   6.173   7.001  14.578 -3.1892  0.3290 -1.5389
   7523SM  H23G 9959   6.133   6.949  14.748  0.0699 -1.0896  0.7765
   7523SM  H23H 9960   6.037   6.896  14.609 -0.4306  0.7596  2.0844
   7623SM     N 9961   1.360   4.717  16.734 -0.0449  0.3519  0.1162
   7623SM   C15 9962   1.223   4.647  16.755 -0.2639 -0.1834  0.8864
   7623SM  H15A 9963   1.209   4.589  16.665 -0.4060  1.1917 -0.0108
   7623SM  H15B 9964   1.139   4.715  16.754 -1.0673 -1.1446  0.9107
   7623SM  H15C 9965   1.229   4.577  16.836 -2.1481 -1.2000  0.2121
   7623SM   C14 9966   1.412   4.774  16.863  0.1770  0.6301 -0.7025
   7623SM  H14A 9967   1.504   4.831  16.859  0.7053 -0.2694 -1.9713
   7623SM  H14B 9968   1.426   4.696  16.937  1.1604  1.6804  0.2595
   7623SM  H14C 9969   1.333   4.831  16.910  1.1418  0.0415  1.7587
   7623SM   C13 9970   1.453   4.622  16.674 -0.3264 -0.1869 -0.3322
   7623SM  H13A 9971   1.551   4.659  16.647  0.3410 -1.8217 -0.3141
   7623SM  H13B 9972   1.416   4.574  16.585  0.3870  1.8946 -1.8072
   7623SM  H13C 9973   1.469   4.543  16.747  0.3653 -0.4706 -0.7780
   7623SM   C12 9974   1.332   4.832  16.630 -0.2480  0.7332  0.4329
   7623SM  H12A 9975   1.426   4.884  16.621 -1.0428  2.2484  0.4158
   7623SM  H12B 9976   1.258   4.900  16.669 -1.2285 -0.4341  0.6709
   7623SM   C11 9977   1.283   4.795  16.492  0.2023  0.3368  0.4169
   7623SM  H11A 9978   1.346   4.714  16.449 -0.8717 -0.4427  0.2558
   7623SM  H11B 9979   1.297   4.877  16.418  1.2721 -0.3453 -0.1613
   7623SM     P 9980   1.034   4.867  16.530  0.0836  0.0996  0.0317
   7623SM   O13 9981   0.898   4.820  16.497 -0.6209 -0.4702 -0.2719
   7623SM   O14 9982   1.053   4.925  16.666  0.3202  0.4432 -0.5238
   7623SM   O11 9983   1.064   4.985  16.427 -0.5084  0.4258 -0.2778
   7623SM   O12 9984   1.145   4.755  16.495  0.3965  0.3987  0.4378
   7623SM   C1S 9985   1.047   4.954  16.289 -0.3679  0.1158  0.0536
   7623SM   H1S 9986   0.943   4.920  16.271 -0.3410  0.5516 -1.0138
   7623SM   H1T 9987   1.118   4.876  16.251  0.3012  1.5776 -1.8793
   7623SM    NF 9988   1.010   5.041  16.066 -0.5294 -0.0786  0.0741
   7623SM   HNF 9989   1.087   5.037  16.003  0.9703  2.5598  1.5648
   7623SM   C2S 9990   1.065   5.081  16.201  0.2527  0.1428  0.0681
   7623SM   H2S 9991   0.990   5.152  16.241 -1.4545 -1.9601  0.7664
   7623SM   C3S 9992   1.212   5.133  16.212 -0.6771 -0.5451  0.3755
   7623SM   H3S 9993   1.272   5.057  16.159 -1.3176 -0.6372 -0.2451
   7623SM    O3 9994   1.266   5.131  16.349  0.3451 -0.6671  0.9126
   7623SM   HO3 9995   1.210   5.066  16.394 -0.4430 -1.9513 -1.7267
   7623SM   C4S 9996   1.228   5.268  16.137  0.6690 -0.4411 -0.6884
   7623SM   H4S 9997   1.248   5.262  16.030 -0.8581  0.3661 -1.0537
   7623SM   C5S 9998   1.229   5.397  16.189  0.6640 -0.3200 -0.5923
   7623SM   H5S 9999   1.211   5.415  16.296 -3.3486  0.5148 -1.2567
   7623SM   C6S10000   1.234   5.519  16.102 -0.6670  0.0026  0.0443
   7623SM   H6S10001   1.291   5.497  16.008  0.1518  3.0576 -0.2762
   7623SM   H6T10002   1.286   5.609  16.142 -0.4239  0.8439 -2.0324
   7623SM   C7S10003   1.094   5.562  16.054 -0.5594  0.8678 -0.4298
   7623SM   H7S10004   1.107   5.656  15.996  1.1171  1.3994  0.7059
   7623SM   H7T10005   1.040   5.598  16.145  0.2773  2.9828 -0.7069
   7623SM   C8S10006   1.022   5.460  15.964  0.5680  0.0266  0.7665
   7623SM   H8S10007   1.007   5.359  16.009  3.4378 -0.6294  0.4405
   7623SM   H8T10008   1.093   5.438  15.882 -0.2647 -0.3433  0.1209
   7623SM   C9S10009   0.888   5.510  15.902  0.0973 -0.1403  0.3260
   7623SM   H9S10010   0.931   5.607  15.871  0.1028 -0.1025  0.4507
   7623SM   H9T10011   0.814   5.537  15.981 -0.8779  0.8913 -0.9092
   7623SM  C10S10012   0.833   5.428  15.787  0.0943 -0.0917 -0.1149
   7623SM  H10S10013   0.729   5.464  15.773 -0.7986 -1.0677  3.0844
   7623SM  H10T10014   0.820   5.322  15.820 -1.2537  0.3967  1.0176
   7623SM  C11S10015   0.919   5.423  15.658  0.0708  0.5411  0.9918
   7623SM  H11S10016   0.874   5.342  15.596 -1.6074  1.0819  1.4464
   7623SM  H11T10017   1.026   5.410  15.686 -0.3369 -1.5456  1.7584
   7623SM  C12S10018   0.915   5.553  15.578  0.2791 -0.4550 -0.3346
   7623SM  H12S10019   0.989   5.617  15.631  0.2156 -1.4498  0.9967
   7623SM  H12T10020   0.815   5.602  15.580 -0.5973 -2.1800  1.4959
   7623SM  C13S10021   0.952   5.525  15.431  0.3641 -0.3165  0.4640
   7623SM  H13S10022   0.857   5.480  15.395 -0.0446  0.7306  0.1714
   7623SM  H13T10023   1.031   5.448  15.425  0.6470  0.0805 -1.7227
   7623SM  C14S10024   1.011   5.649  15.351 -0.2094  0.4586 -0.0738
   7623SM  H14S10025   1.036   5.608  15.250  0.5890 -1.1971  0.7526
   7623SM  H14T10026   1.111   5.681  15.386  1.3304 -2.5014 -1.3431
   7623SM  C15S10027   0.913   5.770  15.335 -0.3562 -0.4280 -0.0349
   7623SM  H15S10028   0.891   5.824  15.430 -1.7591 -2.2796  0.7570
   7623SM  H15T10029   0.817   5.737  15.291 -0.4842  0.7292 -0.6614
   7623SM  C16S10030   0.965   5.877  15.243 -0.8035  0.6326 -0.7803
   7623SM  H16S10031   0.965   5.833  15.141  1.6449 -0.9971 -0.1589
   7623SM  H16T10032   1.073   5.893  15.259 -0.3815 -1.6213 -1.0831
   7623SM  C17S10033   0.893   6.013  15.253  0.0482  0.8412 -0.5943
   7623SM  H17S10034   0.911   6.057  15.353  0.0186 -1.0823  0.2995
   7623SM  H17T10035   0.788   5.987  15.229  1.1530 -0.9421 -4.3888
   7623SM  C18S10036   0.931   6.110  15.140 -0.7266 -0.2204 -0.3247
   7623SM  H18S10037   0.890   6.070  15.045  0.5833  1.1836 -1.5272
   7623SM  H18T10038   1.041   6.117  15.129 -0.8121  2.0649 -0.2376
   7623SM  H18U10039   0.878   6.206  15.160 -1.0519 -0.1812 -1.3208
   7623SM   C1F10040   0.893   4.996  16.025  0.1638 -0.1280 -0.8778
   7623SM    OF10041   0.794   5.000  16.101 -0.8107 -0.3177 -0.7397
   7623SM   C2F10042   0.891   4.928  15.893  0.2839  0.6542  0.6593
   7623SM   H2F10043   0.954   4.837  15.898 -0.0220  0.5119  2.8095
   7623SM   H2G10044   0.936   5.000  15.821  2.9154 -0.4855  1.0489
   7623SM   C3F10045   0.752   4.892  15.842 -0.0073 -0.0687  0.6691
   7623SM   H3F10046   0.695   4.987  15.834 -0.1646 -0.2962 -1.3942
   7623SM   H3G10047   0.697   4.822  15.908  0.1402  0.9981  1.9532
   7623SM   C4F10048   0.751   4.823  15.702  0.1544  0.0164 -0.4939
   7623SM   H4F10049   0.656   4.766  15.696  0.1130  0.0286  0.0632
   7623SM   H4G10050   0.837   4.753  15.699 -0.4716 -0.8740  1.1751
   7623SM   C5F10051   0.751   4.936  15.597 -0.7106 -0.7397  0.7828
   7623SM   H5F10052   0.848   4.989  15.602 -1.1350  0.3612 -1.3029
   7623SM   H5G10053   0.665   5.004  15.616 -0.4825 -0.4635  0.8357
   7623SM   C6F10054   0.718   4.887  15.450  0.1897  0.4057 -1.2825
   7623SM   H6F10055   0.628   4.825  15.472  1.0078  0.3825  2.8371
   7623SM   H6G10056   0.807   4.824  15.431 -0.1011 -0.1537 -0.8138
   7623SM   C7F10057   0.710   4.994  15.333  0.5222 -0.6209 -0.0760
   7623SM   H7F10058   0.800   5.057  15.352  1.5563 -2.2144  0.5010
   7623SM   H7G10059   0.614   5.048  15.341  1.7640  1.7958 -0.4128
   7623SM   C8F10060   0.715   4.919  15.201  0.4888 -0.0405 -0.5131
   7623SM   H8F10061   0.622   4.861  15.185  1.7515 -1.8485 -1.6602
   7623SM   H8G10062   0.799   4.846  15.195  0.8988  0.4293 -0.5320
   7623SM   C9F10063   0.713   5.006  15.082 -0.1661  0.2368 -0.2707
   7623SM   H9F10064   0.624   5.073  15.080  0.0702  0.5873  0.4308
   7623SM   H9G10065   0.704   4.942  14.992 -0.9651 -3.7679  2.3639
   7623SM  C10F10066   0.840   5.097  15.069  0.1117  0.7416 -0.2376
   7623SM  H10F10067   0.932   5.035  15.080  0.9195  2.0813  0.9180
   7623SM  H10G10068   0.842   5.159  15.161 -0.9153 -0.3671  0.5567
   7623SM  C11F10069   0.856   5.170  14.935  0.0636  0.1520 -0.6795
   7623SM  H11F10070   0.749   5.192  14.911 -1.0924 -4.7300 -1.0426
   7623SM  H11G10071   0.880   5.113  14.843  1.2034  1.7563 -1.4146
   7623SM  C12F10072   0.939   5.299  14.945  0.3449  0.2963 -0.4506
   7623SM  H12F10073   0.866   5.376  14.977 -0.5104  0.1139 -1.8590
   7623SM  H12G10074   0.968   5.316  14.839 -2.8949 -0.9394 -1.6495
   7623SM  C13F10075   1.064   5.290  15.028  0.4969  0.7388 -0.1910
   7623SM  H13F10076   1.121   5.199  15.001 -0.1736  0.2602 -0.0055
   7623SM  H13G10077   1.039   5.293  15.136  1.5004  1.0329  0.0396
   7623SM  C14F10078   1.156   5.411  15.014 -0.9000 -0.4910 -0.2607
   7623SM  H14F10079   1.191   5.435  15.117 -0.7204  1.9806 -0.8298
   7623SM  H14G10080   1.093   5.498  14.985 -0.4452  0.3476  1.1536
   7623SM  C15F10081   1.274   5.401  14.917  0.3651  0.3081 -0.1080
   7623SM  H15F10082   1.244   5.362  14.818  0.2270  0.7076 -0.2256
   7623SM  H15G10083   1.337   5.321  14.961 -0.8702  0.5366  2.2680
   7623SM  C16F10084   1.355   5.533  14.891  0.1745  0.0513  0.7471
   7623SM  H16F10085   1.386   5.578  14.988  0.3625  2.0025 -0.1707
   7623SM  H16G10086   1.303   5.609  14.830  0.0968 -0.9585 -0.4865
   7623SM  C17F10087   1.499   5.511  14.824  0.1341  0.4542 -0.6265
   7623SM  H17F10088   1.558   5.450  14.897  0.2252  0.5355 -0.6324
   7623SM  H17G10089   1.551   5.609  14.819  1.9332 -0.4262 -0.0413
   7623SM  C18F10090   1.490   5.448  14.687  0.9517 -0.1891 -0.4758
   7623SM  H18F10091   1.396   5.493  14.649  0.8143 -0.7561 -0.8174
   7623SM  H18G10092   1.466   5.342  14.706 -1.8091  0.4632  0.0903
   7623SM  C19F10093   1.612   5.475  14.593 -0.3481 -0.8290 -0.4187
   7623SM  H19F10094   1.706   5.439  14.641 -0.0569  1.4853  0.9085
   7623SM  H19G10095   1.620   5.585  14.579  0.8434 -0.7176  0.8763
   7623SM  C20F10096   1.604   5.410  14.460  0.2117 -0.5318  0.3388
   7623SM  H20F10097   1.508   5.435  14.411  0.2068 -4.6737 -2.2935
   7623SM  H20G10098   1.610   5.300  14.445 -0.2147 -0.4016 -0.9687
   7623SM  C21F10099   1.707   5.471  14.352  0.2218 -0.4158 -0.1811
   7623SM  H21F10100   1.806   5.440  14.391  0.8084  0.1191 -1.1814
   7623SM  H21G10101   1.699   5.582  14.360  1.1785 -0.4599  1.7648
   7623SM  C22F10102   1.689   5.422  14.207 -0.0988  0.2102  0.5792
   7623SM  H22F10103   1.761   5.473  14.140 -1.2061  1.9844  0.6842
   7623SM  H22G10104   1.588   5.444  14.169 -0.7127 -3.3679 -0.2682
   7623SM  C23F10105   1.697   5.269  14.191 -0.1099 -0.2761  0.1296
   7623SM  H23F10106   1.614   5.222  14.249 -1.3012  1.7837  0.1829
   7623SM  H23G10107   1.796   5.233  14.227  0.2499  2.3618  2.0602
   7623SM  H23H10108   1.682   5.248  14.083 -0.1917  0.3519  0.0175
   7723SM     N10109   0.532   2.141  16.260 -0.2693  0.1882 -0.9648
   7723SM   C1510110   0.505   2.286  16.280 -0.7821  0.2501  0.0630
   7723SM  H15A10111   0.419   2.304  16.342 -0.6470  2.1633 -0.2471
   7723SM  H15B10112   0.524   2.345  16.191  0.5364 -0.9017 -0.4681
   7723SM  H15C10113   0.574   2.327  16.353 -1.9418  0.5580  1.0124
   7723SM   C1410114   0.472   2.067  16.375 -0.7741  0.4797  0.2689
   7723SM  H14A10115   0.507   1.966  16.360  1.9404  1.5548 -1.4687
   7723SM  H14B10116   0.365   2.079  16.377 -0.6782  1.4038  1.8266
   7723SM  H14C10117   0.526   2.080  16.468  1.7341  0.3816 -1.0859
   7723SM   C1310118   0.437   2.110  16.140  0.0707  0.0015  0.2290
   7723SM  H13A10119   0.334   2.114  16.174  0.1203  2.8227  0.2714
   7723SM  H13B10120   0.457   2.015  16.092  0.6080 -1.1517  2.5490
   7723SM  H13C10121   0.445   2.187  16.065 -0.1200 -0.4300 -0.2370
   7723SM   C1210122   0.667   2.111  16.216  0.1059  0.0437  0.2297
   7723SM  H12A10123   0.732   2.133  16.300  0.7907  0.8891 -0.4909
   7723SM  H12B10124   0.687   2.166  16.125 -0.4022 -0.3111 -0.0995
   7723SM   C1110125   0.692   1.964  16.175  0.1449 -0.0662 -0.1044
   7723SM  H11A10126   0.798   1.953  16.144 -0.0039 -2.8659  0.1109
   7723SM  H11B10127   0.629   1.940  16.087 -0.2417 -0.2841  0.2251
   7723SM     P10128   0.757   1.842  16.395  0.1554  0.1195 -0.2159
   7723SM   O1310129   0.848   1.957  16.417 -0.7010  0.2165 -0.3062
   7723SM   O1410130   0.699   1.787  16.518 -0.0401  0.0666  0.0367
   7723SM   O1110131   0.846   1.733  16.318  0.4016 -0.0291 -0.2628
   7723SM   O1210132   0.654   1.873  16.281 -0.6799  0.3284 -0.0078
   7723SM   C1S10133   0.788   1.626  16.235  0.2274 -0.5741  0.4130
   7723SM   H1S10134   0.682   1.603  16.256  0.1843 -1.4235 -0.6439
   7723SM   H1T10135   0.843   1.533  16.266  2.1012  0.5757  0.7156
   7723SM    NF10136   0.726   1.540  16.009 -0.3868 -0.1417  0.4615
   7723SM   HNF10137   0.781   1.459  15.990 -2.4781 -1.6062  0.3586
   7723SM   C2S10138   0.797   1.648  16.082  0.1405 -0.1545  0.0968
   7723SM   H2S10139   0.749   1.747  16.066 -0.2797 -0.5672 -1.3690
   7723SM   C3S10140   0.953   1.665  16.034 -0.5128  0.2139 -0.1851
   7723SM   H3S10141   1.003   1.569  16.057  1.6352  1.1852 -0.5208
   7723SM    O310142   1.023   1.763  16.118  0.9982 -0.5111  0.2128
   7723SM   HO310143   0.970   1.748  16.197 -0.0990 -3.9733 -0.9896
   7723SM   C4S10144   0.959   1.704  15.888 -0.0085  0.0518 -0.0465
   7723SM   H4S10145   0.942   1.616  15.823 -3.0051 -1.2576  2.2477
   7723SM   C5S10146   0.951   1.824  15.838 -0.3378 -0.2108 -0.1703
   7723SM   H5S10147   0.937   1.915  15.897 -0.9001  0.4427 -1.2881
   7723SM   C6S10148   0.944   1.860  15.688 -0.1198 -0.3540  0.1858
   7723SM   H6S10149   1.045   1.890  15.654 -1.0752 -0.7793 -3.4418
   7723SM   H6T10150   0.887   1.956  15.678  0.9765  0.4099  1.0220
   7723SM   C7S10151   0.893   1.753  15.587 -0.3568 -0.1613  0.2665
   7723SM   H7S10152   0.976   1.680  15.577  1.1670  1.3485  1.3132
   7723SM   H7T10153   0.873   1.814  15.496 -1.2782 -1.0928 -0.1725
   7723SM   C8S10154   0.759   1.687  15.619  0.0883  0.3416  0.1006
   7723SM   H8S10155   0.759   1.640  15.720 -1.0315 -1.6520 -0.7746
   7723SM   H8T10156   0.743   1.616  15.536  2.8976  1.8380 -1.9031
   7723SM   C9S10157   0.639   1.777  15.611  0.3601 -0.3622 -0.1129
   7723SM   H9S10158   0.561   1.698  15.620 -0.2673  0.4667  2.5481
   7723SM   H9T10159   0.629   1.823  15.511  1.3355 -0.9719 -0.5170
   7723SM  C10S10160   0.614   1.873  15.728 -0.5675 -0.9028 -0.1392
   7723SM  H10S10161   0.698   1.937  15.762 -0.4939 -1.0120 -0.1144
   7723SM  H10T10162   0.592   1.808  15.816  0.2435 -0.3136  0.5195
   7723SM  C11S10163   0.491   1.962  15.703  0.6264  0.3163 -0.3314
   7723SM  H11S10164   0.439   1.992  15.797 -1.1048 -0.9226 -0.8497
   7723SM  H11T10165   0.411   1.905  15.653  1.0371 -0.8927  0.3288
   7723SM  C12S10166   0.532   2.086  15.627 -0.0044 -0.4674  0.6995
   7723SM  H12S10167   0.545   2.070  15.518  1.1940  1.4623  0.5294
   7723SM  H12T10168   0.624   2.130  15.672 -0.4294  0.3295  0.8009
   7723SM  C13S10169   0.428   2.203  15.637 -0.7426  0.9580 -0.0041
   7723SM  H13S10170   0.420   2.233  15.744  0.0054  1.7496 -0.1601
   7723SM  H13T10171   0.330   2.168  15.598  0.7473 -1.9483 -1.4632
   7723SM  C14S10172   0.477   2.318  15.543 -0.6680  0.8263  0.3771
   7723SM  H14S10173   0.488   2.281  15.439  0.4726  1.9581  0.0737
   7723SM  H14T10174   0.580   2.342  15.577  0.9671 -3.3411 -1.0419
   7723SM  C15S10175   0.402   2.450  15.551  1.0113 -0.6840 -0.5950
   7723SM  H15S10176   0.418   2.482  15.657  2.5344  2.3935 -1.6207
   7723SM  H15T10177   0.297   2.418  15.537  1.1272 -1.4505  0.1799
   7723SM  C16S10178   0.451   2.566  15.467  0.4574 -0.7900  0.0757
   7723SM  H16S10179   0.446   2.552  15.357 -0.2609  3.0604 -0.5332
   7723SM  H16T10180   0.559   2.586  15.485  0.3790 -0.2352 -0.0432
   7723SM  C17S10181   0.371   2.688  15.508 -0.4278 -0.2086 -0.3965
   7723SM  H17S10182   0.387   2.698  15.617  1.6623 -0.9662 -0.5899
   7723SM  H17T10183   0.265   2.667  15.484 -0.7828 -1.3974  1.9582
   7723SM  C18S10184   0.428   2.812  15.430 -0.1823  0.5534  0.0914
   7723SM  H18S10185   0.383   2.910  15.455 -0.5793  0.3219  0.3005
   7723SM  H18T10186   0.401   2.792  15.324 -0.5615 -1.9201  0.5806
   7723SM  H18U10187   0.537   2.818  15.451 -0.1917  2.8149 -0.2703
   7723SM   C1F10188   0.600   1.536  15.988  0.4490  0.5806 -0.1487
   7723SM    OF10189   0.529   1.624  16.036  0.0277 -0.7695 -0.7579
   7723SM   C2F10190   0.544   1.431  15.897  0.1560  0.7527  0.5875
   7723SM   H2F10191   0.532   1.335  15.951 -0.8454  0.7707  0.4211
   7723SM   H2G10192   0.627   1.421  15.823  0.0370  2.4702  0.1596
   7723SM   C3F10193   0.407   1.467  15.830  0.0142  0.0625  0.8515
   7723SM   H3F10194   0.419   1.552  15.760  1.9832 -2.0183 -1.5456
   7723SM   H3G10195   0.335   1.486  15.912 -1.3343  0.2971 -0.3386
   7723SM   C4F10196   0.359   1.357  15.746  0.4459 -0.5535 -0.4084
   7723SM   H4F10197   0.256   1.386  15.715 -1.7629 -2.7432  3.9062
   7723SM   H4G10198   0.339   1.268  15.808  1.3848 -1.8179 -1.8440
   7723SM   C5F10199   0.437   1.329  15.616  0.7741 -0.0569 -0.1928
   7723SM   H5F10200   0.527   1.267  15.637  0.1854 -0.3964  1.4325
   7723SM   H5G10201   0.480   1.419  15.567  0.9082  0.8703  1.5682
   7723SM   C6F10202   0.348   1.252  15.512 -0.1794 -0.6160  0.4651
   7723SM   H6F10203   0.255   1.311  15.501  0.9112  1.1561  0.3896
   7723SM   H6G10204   0.327   1.148  15.546  1.0633 -1.8176 -2.1726
   7723SM   C7F10205   0.398   1.252  15.369 -0.6706 -0.0968 -0.2813
   7723SM   H7F10206   0.339   1.180  15.309  0.2523  0.4739 -1.9282
   7723SM   H7G10207   0.503   1.215  15.365 -0.4691  0.5010 -0.6344
   7723SM   C8F10208   0.396   1.391  15.302  0.6251  0.1895 -0.0605
   7723SM   H8F10209   0.473   1.390  15.222  1.3511  0.0584  0.6319
   7723SM   H8G10210   0.414   1.478  15.369  1.8418 -0.2680  0.2319
   7723SM   C9F10211   0.265   1.419  15.225  0.9138 -0.7467  0.3720
   7723SM   H9F10212   0.183   1.402  15.298 -1.2788  0.7755 -1.6057
   7723SM   H9G10213   0.262   1.344  15.143 -1.5521  1.0284 -1.2586
   7723SM  C10F10214   0.260   1.558  15.156  0.1042  0.3835 -0.3813
   7723SM  H10F10215   0.352   1.564  15.094  0.3015  0.3578 -0.0894
   7723SM  H10G10216   0.281   1.627  15.240  2.3641  0.0627 -0.6364
   7723SM  C11F10217   0.125   1.566  15.082  0.4610 -0.2666  0.5053
   7723SM  H11F10218   0.048   1.538  15.156  0.7688 -0.5953  0.7039
   7723SM  H11G10219   0.129   1.487  15.003  0.8882 -0.5044  0.7582
   7723SM  C12F10220   0.101   1.707  15.032  0.3809 -0.7859 -0.5701
   7723SM  H12F10221   0.175   1.726  14.952 -1.3302  1.7933 -1.7003
   7723SM  H12G10222   0.114   1.783  15.113  0.3533  0.3811 -1.6251
   7723SM  C13F10223  -0.044   1.724  14.975 -0.1368  0.4473  0.4077
   7723SM  H13F10224  -0.095   1.675  15.061  0.0701  0.7342  0.6970
   7723SM  H13G10225  -0.057   1.654  14.890 -1.7616  1.8611 -0.5825
   7723SM  C14F10226  -0.087   1.870  14.941  0.0283 -0.5689 -0.1260
   7723SM  H14F10227  -0.042   1.932  15.021 -1.1271 -0.2957  0.3365
   7723SM  H14G10228  -0.196   1.883  14.955  0.2663 -0.6622  2.1630
   7723SM  C15F10229  -0.052   1.935  14.808  0.7620  0.0228  0.2592
   7723SM  H15F10230   0.048   1.897  14.778  0.3707 -2.9003  2.2246
   7723SM  H15G10231  -0.040   2.044  14.819  2.4619 -0.1785  0.6636
   7723SM  C16F10232  -0.162   1.918  14.694  0.7657  0.3931  0.1623
   7723SM  H16F10233  -0.127   1.986  14.614  1.0449  0.1900  0.1096
   7723SM  H16G10234  -0.265   1.945  14.723  0.4890 -0.6485  0.1952
   7723SM  C17F10235  -0.169   1.774  14.645 -0.2249  0.5451 -0.6244
   7723SM  H17F10236  -0.236   1.729  14.721  1.2423  1.0771  1.0508
   7723SM  H17G10237  -0.067   1.729  14.640 -0.2295  0.6183 -1.4608
   7723SM  C18F10238  -0.234   1.757  14.506 -0.0222 -0.2293  0.2995
   7723SM  H18F10239  -0.204   1.842  14.441 -2.0806 -1.2924 -2.2208
   7723SM  H18G10240  -0.345   1.751  14.498 -0.0552 -0.6758  1.0660
   7723SM  C19F10241  -0.188   1.626  14.430 -0.3033 -0.1190  0.2372
   7723SM  H19F10242  -0.197   1.536  14.494 -1.7179 -1.1781 -1.3574
   7723SM  H19G10243  -0.085   1.652  14.399 -0.4779 -1.1936 -1.3876
   7723SM  C20F10244  -0.266   1.598  14.305 -0.2563  0.0691  0.0467
   7723SM  H20F10245  -0.219   1.528  14.232 -0.9310 -2.0454  1.5148
   7723SM  H20G10246  -0.285   1.686  14.241 -2.1129 -0.3846 -0.0728
   7723SM  C21F10247  -0.402   1.530  14.331  0.2550 -0.1676  0.3003
   7723SM  H21F10248  -0.470   1.605  14.376  2.0606  1.6486  0.1657
   7723SM  H21G10249  -0.386   1.454  14.411  2.0538 -1.8075 -1.4853
   7723SM  C22F10250  -0.470   1.473  14.199 -0.1050 -0.0865 -0.2010
   7723SM  H22F10251  -0.427   1.379  14.158  0.4759 -0.1735  0.5869
   7723SM  H22G10252  -0.474   1.552  14.120 -0.2146  0.3876  0.2701
   7723SM  C23F10253  -0.614   1.451  14.224  0.5321 -0.0020  0.1334
   7723SM  H23F10254  -0.641   1.400  14.320 -0.9181  0.3956 -0.0350
   7723SM  H23G10255  -0.664   1.396  14.142 -1.0572 -0.1405  1.1395
   7723SM  H23H10256  -0.668   1.548  14.232  0.6717  0.2092 -1.2777
   7823SM     N10257   1.534   7.334  16.768  0.1331 -0.2198  0.6197
   7823SM   C1510258   1.415   7.245  16.800 -0.2807  0.1078  0.2552
   7823SM  H15A10259   1.422   7.141  16.771 -1.2181  0.1511 -0.1713
   7823SM  H15B10260   1.316   7.275  16.770 -1.0335 -2.2067  0.2511
   7823SM  H15C10261   1.413   7.250  16.908  0.0542  0.6422  0.2396
   7823SM   C1410262   1.495   7.472  16.821 -0.2403  0.3833  0.1095
   7823SM  H14A10263   1.485   7.483  16.928  0.0797  1.5569  0.0228
   7823SM  H14B10264   1.398   7.498  16.782 -0.9601  0.8904  2.0876
   7823SM  H14C10265   1.565   7.546  16.787 -0.3276 -0.5286 -2.2319
   7823SM   C1310266   1.645   7.279  16.848 -0.0575 -0.3866  0.0519
   7823SM  H13A10267   1.734   7.338  16.833  0.3021 -1.1719 -0.9976
   7823SM  H13B10268   1.666   7.179  16.814  1.7392  0.7854 -2.6440
   7823SM  H13C10269   1.632   7.279  16.956 -1.2304  2.8105  0.0272
   7823SM   C1210270   1.563   7.338  16.619  0.4924 -0.2977  0.4516
   7823SM  H12A10271   1.653   7.396  16.607 -0.2965  0.7674 -0.6357
   7823SM  H12B10272   1.492   7.407  16.577  0.5111 -0.7532 -0.3383
   7823SM   C1110273   1.581   7.210  16.551  0.4933 -0.2769  0.0597
   7823SM  H11A10274   1.576   7.248  16.447 -0.2757 -0.2153  0.1143
   7823SM  H11B10275   1.489   7.152  16.572  0.4371 -0.4123 -0.5577
   7823SM     P10276   1.830   7.176  16.496 -0.0759 -0.1349 -0.0126
   7823SM   O1310277   1.878   7.316  16.512 -0.3823  0.5808 -0.0565
   7823SM   O1410278   1.926   7.067  16.530  0.1819  0.3431 -0.4393
   7823SM   O1110279   1.775   7.157  16.349  0.1302 -0.6349 -0.3173
   7823SM   O1210280   1.701   7.148  16.581 -0.3031  0.2390  0.4909
   7823SM   C1S10281   1.754   7.023  16.296 -0.9063  0.4789 -0.4658
   7823SM   H1S10282   1.669   6.974  16.348  0.7532 -0.7554  1.2121
   7823SM   H1T10283   1.838   6.954  16.318 -1.4566  0.1806  0.7764
   7823SM    NF10284   1.672   6.881  16.115 -0.1754 -0.2761  0.3529
   7823SM   HNF10285   1.727   6.822  16.056  1.8351  1.1909  0.6560
   7823SM   C2S10286   1.709   7.018  16.146 -0.5081  0.4354  0.0227
   7823SM   H2S10287   1.619   7.082  16.132  0.2585  1.3175 -1.1255
   7823SM   C3S10288   1.826   7.065  16.051 -0.3205  1.0652 -0.0687
   7823SM   H3S10289   1.903   6.985  16.052 -1.8818 -0.5075 -0.8110
   7823SM    O310290   1.891   7.186  16.090 -0.2752  0.2447 -0.3605
   7823SM   HO310291   1.880   7.182  16.185 -0.2080 -2.3234 -0.4011
   7823SM   C4S10292   1.772   7.077  15.914 -0.9173  0.4985  0.6593
   7823SM   H4S10293   1.700   7.157  15.891 -0.1722  0.9163 -0.3046
   7823SM   C5S10294   1.828   7.006  15.807 -0.1592 -0.4011 -0.1471
   7823SM   H5S10295   1.916   6.942  15.828  0.4233  0.4939  0.2140
   7823SM   C6S10296   1.784   7.018  15.663  0.7284 -0.0759  0.5364
   7823SM   H6S10297   1.861   7.078  15.611  2.5791 -2.1089  0.7857
   7823SM   H6T10298   1.683   7.065  15.664  0.2932 -0.9169 -0.7414
   7823SM   C7S10299   1.755   6.887  15.592 -0.9020  0.7119  0.0205
   7823SM   H7S10300   1.671   6.833  15.640 -1.7698 -0.1447 -2.3024
   7823SM   H7T10301   1.842   6.819  15.598 -0.1818  1.1068 -3.5470
   7823SM   C8S10302   1.728   6.908  15.448  0.4477  0.3468  0.2544
   7823SM   H8S10303   1.809   6.963  15.396  0.8118 -0.1546  0.2826
   7823SM   H8T10304   1.635   6.968  15.444  0.7907  1.0978  2.3712
   7823SM   C9S10305   1.703   6.782  15.367 -0.2876  0.3957  0.0082
   7823SM   H9S10306   1.619   6.728  15.416 -2.0695  1.0203 -2.2019
   7823SM   H9T10307   1.796   6.721  15.372  1.2194  2.4044 -1.8404
   7823SM  C10S10308   1.670   6.809  15.214 -0.1356  0.1699 -0.3180
   7823SM  H10S10309   1.748   6.883  15.185 -1.6662  2.7943  1.7997
   7823SM  H10T10310   1.573   6.862  15.205 -1.2288 -2.0981 -3.2710
   7823SM  C11S10311   1.663   6.679  15.134 -0.5632 -0.6902 -0.3294
   7823SM  H11S10312   1.566   6.626  15.141 -1.3075  0.7841  1.2693
   7823SM  H11T10313   1.757   6.622  15.150  0.2072  0.5673 -0.2444
   7823SM  C12S10314   1.677   6.713  14.982  0.8675 -0.4368  0.1002
   7823SM  H12S10315   1.675   6.617  14.926  0.1346  1.1225 -2.7729
   7823SM  H12T10316   1.777   6.752  14.952  2.2612 -2.7377  1.4552
   7823SM  C13S10317   1.560   6.797  14.923 -0.0144  0.3876  0.6125
   7823SM  H13S10318   1.568   6.896  14.973  0.5551  0.7311 -0.1348
   7823SM  H13T10319   1.465   6.757  14.963 -0.1100 -1.2268 -1.0896
   7823SM  C14S10320   1.556   6.811  14.768  0.6472 -0.5174 -0.8058
   7823SM  H14S10321   1.578   6.718  14.712 -0.5237 -0.7563 -0.8730
   7823SM  H14T10322   1.638   6.882  14.740 -0.7348  2.5842  2.1601
   7823SM  C15S10323   1.416   6.858  14.725 -0.4522 -0.0231  0.0862
   7823SM  H15S10324   1.393   6.962  14.757 -1.4397  0.2957 -1.5787
   7823SM  H15T10325   1.339   6.796  14.776 -0.8024  0.9938  0.8162
   7823SM  C16S10326   1.410   6.844  14.568  0.3226  0.4130 -0.7164
   7823SM  H16S10327   1.417   6.735  14.551 -0.7851  0.1127  0.5447
   7823SM  H16T10328   1.495   6.897  14.520  1.7091 -1.4511 -0.4323
   7823SM  C17S10329   1.279   6.901  14.511 -0.4919  0.8199  0.2696
   7823SM  H17S10330   1.261   7.005  14.547 -0.3755  1.1394 -0.5653
   7823SM  H17T10331   1.206   6.829  14.554  2.0299 -3.0424 -1.3008
   7823SM  C18S10332   1.283   6.890  14.358  0.0849 -0.6162 -0.9989
   7823SM  H18S10333   1.372   6.932  14.306 -0.2348 -0.2780 -1.2815
   7823SM  H18T10334   1.201   6.949  14.311 -0.0121 -0.6211 -0.8335
   7823SM  H18U10335   1.271   6.782  14.333 -1.2218 -0.6562 -0.2660
   7823SM   C1F10336   1.563   6.818  16.157 -0.0252 -1.0431 -0.8711
   7823SM    OF10337   1.479   6.880  16.219  0.2374 -0.0112  0.1099
   7823SM   C2F10338   1.549   6.673  16.123  0.2056  0.3509 -0.3780
   7823SM   H2F10339   1.540   6.635  16.227  2.7537  0.5151 -0.0169
   7823SM   H2G10340   1.646   6.646  16.076  1.0269 -2.7225  2.6888
   7823SM   C3F10341   1.443   6.632  16.039  0.3914 -0.6878  0.2872
   7823SM   H3F10342   1.344   6.647  16.087  1.4947  0.4556  2.3461
   7823SM   H3G10343   1.446   6.521  16.031 -0.8639 -0.8321  1.4716
   7823SM   C4F10344   1.450   6.691  15.901 -0.2027  0.9289  0.1793
   7823SM   H4F10345   1.555   6.720  15.875 -0.3725 -0.5707 -2.5552
   7823SM   H4G10346   1.383   6.780  15.893  1.6754  2.3954 -0.0342
   7823SM   C5F10347   1.387   6.595  15.798  0.0240  0.3900  0.1361
   7823SM   H5F10348   1.283   6.568  15.827  0.4153 -0.4469  0.8235
   7823SM   H5G10349   1.439   6.497  15.803 -0.3848  0.1597 -0.1326
   7823SM   C6F10350   1.388   6.655  15.657  0.2151  0.2788  0.1157
   7823SM   H6F10351   1.367   6.570  15.589  0.3720  0.3256  0.0077
   7823SM   H6G10352   1.494   6.683  15.638  0.4504  0.0005  0.9370
   7823SM   C7F10353   1.306   6.790  15.641 -0.3463  0.3353 -0.6165
   7823SM   H7F10354   1.366   6.869  15.690  0.1712 -0.0289 -0.6558
   7823SM   H7G10355   1.203   6.784  15.684 -0.8401 -2.0496 -1.9145
   7823SM   C8F10356   1.305   6.833  15.492  0.3317  0.3296 -0.0080
   7823SM   H8F10357   1.401   6.802  15.446  0.3887  0.5087 -0.0097
   7823SM   H8G10358   1.303   6.944  15.482 -3.0714  0.2376 -2.0671
   7823SM   C9F10359   1.188   6.778  15.405  0.8219  1.1242  0.1870
   7823SM   H9F10360   1.101   6.769  15.473  1.4656  2.0122  1.1574
   7823SM   H9G10361   1.208   6.671  15.383  1.0844  1.1712  0.1967
   7823SM  C10F10362   1.139   6.852  15.284 -0.5024  0.6819  0.9795
   7823SM  H10F10363   1.091   6.948  15.312 -2.0404  0.6842 -1.4407
   7823SM  H10G10364   1.060   6.794  15.233 -1.4902  1.8484  1.1457
   7823SM  C11F10365   1.249   6.902  15.189 -0.0802 -0.2850 -0.1112
   7823SM  H11F10366   1.298   6.808  15.155  2.0889  0.7815 -0.1688
   7823SM  H11G10367   1.324   6.972  15.233  0.8516  0.6562 -2.9413
   7823SM  C12F10368   1.202   6.989  15.069 -0.0088  0.6944  0.4746
   7823SM  H12F10369   1.291   7.002  15.004 -0.3975  0.4416 -0.1175
   7823SM  H12G10370   1.166   7.090  15.097 -2.5731  0.1670 -0.6649
   7823SM  C13F10371   1.095   6.915  14.986 -0.6699 -0.1484  0.2832
   7823SM  H13F10372   1.004   6.910  15.050 -0.9264 -1.0647 -0.1332
   7823SM  H13G10373   1.124   6.813  14.952  1.1835  0.6966 -0.8143
   7823SM  C14F10374   1.055   6.988  14.843 -0.2361 -0.0172 -0.3890
   7823SM  H14F10375   1.149   7.002  14.786  0.1015 -1.5412 -0.2647
   7823SM  H14G10376   1.001   7.082  14.864 -0.8497 -0.0521 -1.7240
   7823SM  C15F10377   0.972   6.888  14.760 -0.3280 -0.0233  0.0073
   7823SM  H15F10378   1.003   6.785  14.788 -2.0073 -1.0869 -1.7495
   7823SM  H15G10379   1.002   6.908  14.655 -1.2487 -3.8026 -1.1570
   7823SM  C16F10380   0.818   6.904  14.776 -0.6231 -0.3472  0.0978
   7823SM  H16F10381   0.775   6.999  14.738 -1.3865 -0.8763 -0.3712
   7823SM  H16G10382   0.806   6.914  14.886  3.3618  1.2666  0.5608
   7823SM  C17F10383   0.729   6.794  14.712 -0.2769 -0.3107 -0.6946
   7823SM  H17F10384   0.783   6.700  14.736 -0.1760  0.0274  0.4641
   7823SM  H17G10385   0.726   6.810  14.602 -1.3997  1.3318 -0.4522
   7823SM  C18F10386   0.591   6.796  14.778 -0.3582  0.7714 -0.2941
   7823SM  H18F10387   0.608   6.769  14.884 -1.8365 -0.9726 -0.4554
   7823SM  H18G10388   0.534   6.717  14.724 -0.1912  1.0478 -0.8899
   7823SM  C19F10389   0.516   6.928  14.777  0.6216  0.8234  0.6879
   7823SM  H19F10390   0.563   7.007  14.839  0.5646  0.0614  1.7252
   7823SM  H19G10391   0.416   6.909  14.822  0.9942 -2.3767  0.4022
   7823SM  C20F10392   0.491   6.987  14.630 -0.0055  0.3563 -0.2383
   7823SM  H20F10393   0.514   6.910  14.553 -1.5933 -0.7082  0.2985
   7823SM  H20G10394   0.557   7.075  14.612  1.3195 -1.1270 -3.4840
   7823SM  C21F10395   0.346   7.022  14.615  0.2873 -0.7778  0.1337
   7823SM  H21F10396   0.309   7.082  14.701  3.9457 -0.6719  1.8027
   7823SM  H21G10397   0.284   6.931  14.629 -0.8233  0.0466  0.7074
   7823SM  C22F10398   0.322   7.099  14.483  0.0914 -0.3195 -0.0836
   7823SM  H22F10399   0.362   7.201  14.501 -2.6648  1.0058 -0.8241
   7823SM  H22G10400   0.212   7.106  14.468  0.2604  1.5780 -0.6997
   7823SM  C23F10401   0.387   7.030  14.364  0.0237 -0.7763 -0.2809
   7823SM  H23F10402   0.496   7.048  14.376  0.5448 -1.0226 -3.5516
   7823SM  H23G10403   0.347   7.082  14.273  0.7185 -1.0326 -0.7435
   7823SM  H23H10404   0.369   6.921  14.362 -1.5208 -0.5513 -0.0941
   7923SM     N10405   7.389   0.818  16.383 -0.7250 -0.2097 -0.9639
   7923SM   C1510406   7.299   0.935  16.366 -0.9172 -0.5049 -0.3850
   7923SM  H15A10407   7.298   0.987  16.461  3.5279  1.1126 -0.9625
   7923SM  H15B10408   7.200   0.912  16.329 -0.7444 -1.4166 -0.2961
   7923SM  H15C10409   7.344   1.011  16.304  2.3107 -0.2667  1.9947
   7923SM   C1410410   7.439   0.773  16.250  0.5812  0.3654  0.4542
   7923SM  H14A10411   7.532   0.825  16.229  1.0558 -0.4371  0.5065
   7923SM  H14B10412   7.362   0.776  16.175  0.7050 -0.0332  0.3056
   7923SM  H14C10413   7.472   0.670  16.255 -0.1880  0.0099 -1.0817
   7923SM   C1310414   7.512   0.867  16.452 -0.5353 -0.1899 -0.1352
   7923SM  H13A10415   7.592   0.800  16.424 -1.5887 -1.3940 -0.3123
   7923SM  H13B10416   7.491   0.869  16.557 -0.3569  2.1832 -0.0918
   7923SM  H13C10417   7.538   0.965  16.413  0.2023 -0.5388 -0.5582
   7923SM   C1210418   7.318   0.707  16.457 -0.4669  0.2668 -0.0346
   7923SM  H12A10419   7.239   0.674  16.391  0.3188 -0.5733 -0.5818
   7923SM  H12B10420   7.271   0.741  16.548  0.4340 -0.1084  0.5919
   7923SM   C1110421   7.406   0.576  16.489  0.7584 -0.2289  0.3764
   7923SM  H11A10422   7.349   0.511  16.559  0.2338  0.9420  1.0800
   7923SM  H11B10423   7.493   0.608  16.551  0.5488  1.5623 -0.1774
   7923SM     P10424   7.597   0.442  16.372  0.1831 -0.0707 -0.4911
   7923SM   O1310425   7.688   0.557  16.352  0.1363  0.2333 -0.8435
   7923SM   O1410426   7.621   0.344  16.480 -0.8157  0.2845  0.4859
   7923SM   O1110427   7.588   0.364  16.236 -0.4587  0.1072 -0.3175
   7923SM   O1210428   7.439   0.493  16.379 -0.0362  0.4348 -0.2323
   7923SM   C1S10429   7.556   0.420  16.111 -0.8199 -0.1165  0.1770
   7923SM   H1S10430   7.562   0.531  16.111  1.0130 -0.1187 -1.9920
   7923SM   H1T10431   7.450   0.402  16.085 -1.0895 -0.6478  1.5958
   7923SM    NF10432   7.615   0.440  15.875  0.4854 -0.0399 -0.1336
   7923SM   HNF10433   7.549   0.397  15.814  0.4921  0.2434 -0.3394
   7923SM   C2S10434   7.650   0.365  15.994  0.2991 -0.1422 -0.4252
   7923SM   H2S10435   7.751   0.408  16.012 -0.8830  2.1453  1.2028
   7923SM   C3S10436   7.638   0.206  15.982 -0.5498 -0.2274 -0.4167
   7923SM   H3S10437   7.534   0.179  15.952  0.5119 -0.9535 -3.8774
   7923SM    O310438   7.652   0.147  16.110 -0.2878  0.0040 -0.3984
   7923SM   HO310439   7.644   0.218  16.174 -1.5983 -0.9230  0.5274
   7923SM   C4S10440   7.743   0.147  15.894  0.5435  0.7937 -0.4672
   7923SM   H4S10441   7.837   0.121  15.947 -0.7679 -0.6408  1.3006
   7923SM   C5S10442   7.724   0.094  15.773 -0.5941  0.4468  0.4605
   7923SM   H5S10443   7.618   0.100  15.747 -0.5319  0.9025  0.2976
   7923SM   C6S10444   7.812  -0.007  15.699  0.0316  0.2926  0.6084
   7923SM   H6S10445   7.860  -0.065  15.780  0.0285  0.9039  1.0570
   7923SM   H6T10446   7.891   0.047  15.643 -2.7358  3.7406 -0.3656
   7923SM   C7S10447   7.717  -0.100  15.631  0.3759  0.0046  0.4119
   7923SM   H7S10448   7.648  -0.051  15.560  0.0220 -2.6218 -1.1935
   7923SM   H7T10449   7.661  -0.155  15.709  0.0407  1.9295  1.5954
   7923SM   C8S10450   7.794  -0.206  15.541 -0.0225 -0.3722  1.0770
   7923SM   H8S10451   7.867  -0.267  15.599 -0.7129 -0.7107  1.5975
   7923SM   H8T10452   7.849  -0.149  15.463 -2.8809  2.0242  0.6430
   7923SM   C9S10453   7.701  -0.294  15.457  0.7892  0.3970 -0.1518
   7923SM   H9S10454   7.630  -0.360  15.511  0.2332  1.5980  0.6285
   7923SM   H9T10455   7.765  -0.364  15.399  0.3663  0.3770 -0.6066
   7923SM  C10S10456   7.605  -0.226  15.363  0.0016 -0.1309 -0.2906
   7923SM  H10S10457   7.658  -0.141  15.316 -1.0266  1.5289  1.4193
   7923SM  H10T10458   7.528  -0.179  15.428 -0.1666  1.0383 -1.3109
   7923SM  C11S10459   7.534  -0.318  15.260 -0.1535  0.0148 -0.2494
   7923SM  H11S10460   7.530  -0.417  15.312  0.6398 -0.2099 -0.5938
   7923SM  H11T10461   7.605  -0.332  15.176 -1.4366  0.7150 -1.5044
   7923SM  C12S10462   7.401  -0.272  15.204 -0.6502 -0.3355 -0.3535
   7923SM  H12S10463   7.413  -0.167  15.169 -1.2238 -0.9663 -2.6095
   7923SM  H12T10464   7.331  -0.271  15.290 -1.7149 -0.6409 -1.1961
   7923SM  C13S10465   7.349  -0.357  15.097  0.4002  0.5854  0.2960
   7923SM  H13S10466   7.351  -0.465  15.124  0.7060  1.1946  3.0767
   7923SM  H13T10467   7.402  -0.340  15.001 -0.2731  1.6107  0.0889
   7923SM  C14S10468   7.195  -0.321  15.072 -0.0691  0.0804 -0.0548
   7923SM  H14S10469   7.176  -0.216  15.040 -1.9979 -0.8107 -2.0387
   7923SM  H14T10470   7.148  -0.348  15.169 -1.0038 -0.2822 -0.6085
   7923SM  C15S10471   7.139  -0.407  14.960  0.1736  0.1307 -0.1684
   7923SM  H15S10472   7.172  -0.508  14.994 -0.3361  0.0990  0.2403
   7923SM  H15T10473   7.190  -0.386  14.863 -0.5552  1.0936 -0.3547
   7923SM  C16S10474   6.984  -0.401  14.937  0.1395  0.0193  0.5622
   7923SM  H16S10475   6.963  -0.307  14.882 -1.5454 -0.8116 -0.3187
   7923SM  H16T10476   6.928  -0.383  15.031  0.4531  0.8654  0.5985
   7923SM  C17S10477   6.927  -0.519  14.855  0.2575 -1.2289 -0.2129
   7923SM  H17S10478   6.817  -0.505  14.846  0.3984  0.1789  0.0215
   7923SM  H17T10479   6.945  -0.612  14.914 -1.7308  0.5819  3.6324
   7923SM  C18S10480   6.977  -0.527  14.712  0.2058  0.1375 -0.2852
   7923SM  H18S10481   6.936  -0.621  14.670  3.4183 -2.4578  1.7974
   7923SM  H18T10482   7.085  -0.549  14.727  0.3272  2.4511  3.3828
   7923SM  H18U10483   6.962  -0.441  14.644 -0.9947 -0.8901 -1.3830
   7923SM   C1F10484   7.652   0.572  15.862  0.6898 -0.3973 -0.1771
   7923SM    OF10485   7.718   0.628  15.950 -0.3378 -0.3774 -0.8802
   7923SM   C2F10486   7.609   0.650  15.732  0.7518  0.0668  1.3934
   7923SM   H2F10487   7.698   0.661  15.668 -1.1731 -1.3135 -1.7387
   7923SM   H2G10488   7.578   0.754  15.759  0.9722  0.6932 -0.6276
   7923SM   C3F10489   7.505   0.572  15.650 -0.1461 -0.4774 -0.5445
   7923SM   H3F10490   7.411   0.563  15.709  0.5284  0.3927  0.7196
   7923SM   H3G10491   7.529   0.465  15.634 -0.4200 -0.5133 -0.7292
   7923SM   C4F10492   7.484   0.646  15.515 -0.5077  1.2133 -0.0613
   7923SM   H4F10493   7.577   0.671  15.460 -1.7139  1.3772 -2.0965
   7923SM   H4G10494   7.437   0.745  15.533 -1.3506  0.9380 -0.7196
   7923SM   C5F10495   7.399   0.572  15.420  0.5732 -0.8394 -0.6723
   7923SM   H5F10496   7.309   0.522  15.463 -1.0784  0.8180 -1.9958
   7923SM   H5G10497   7.454   0.488  15.372 -1.8202 -2.9253 -0.0118
   7923SM   C6F10498   7.342   0.667  15.310 -0.2168  0.1448  0.3613
   7923SM   H6F10499   7.423   0.738  15.285 -0.6872  0.9149  0.9731
   7923SM   H6G10500   7.257   0.728  15.347  1.2162  2.4455  0.0714
   7923SM   C7F10501   7.301   0.596  15.183  0.5292  0.6926 -1.0384
   7923SM   H7F10502   7.231   0.515  15.215  1.3142 -0.7700 -2.8519
   7923SM   H7G10503   7.388   0.538  15.145  0.4068 -1.1648  1.3039
   7923SM   C8F10504   7.228   0.687  15.085 -0.1330 -0.0656  0.2543
   7923SM   H8F10505   7.264   0.791  15.068  0.3731 -0.2768  0.0244
   7923SM   H8G10506   7.127   0.709  15.126 -1.0973 -1.7256 -1.1043
   7923SM   C9F10507   7.215   0.626  14.940  0.1488 -0.1056 -0.3971
   7923SM   H9F10508   7.182   0.521  14.957  2.1320 -0.6212  0.4891
   7923SM   H9G10509   7.307   0.616  14.879 -1.3682 -1.2929 -2.6322
   7923SM  C10F10510   7.111   0.702  14.853 -0.2743  0.2948  0.7724
   7923SM  H10F10511   7.053   0.755  14.932 -1.8193  0.2075 -0.2662
   7923SM  H10G10512   7.055   0.623  14.799  0.7189  0.3352 -0.3481
   7923SM  C11F10513   7.183   0.799  14.763 -0.5205 -0.7539  0.2214
   7923SM  H11F10514   7.258   0.742  14.705 -3.4539 -2.6070 -2.0673
   7923SM  H11G10515   7.241   0.868  14.828 -2.3835  1.2309 -0.1162
   7923SM  C12F10516   7.109   0.883  14.664 -0.4945  0.5337  0.3596
   7923SM  H12F10517   7.018   0.928  14.710 -0.7018 -0.4052  0.9066
   7923SM  H12G10518   7.086   0.828  14.571 -0.6824  2.5480 -0.8299
   7923SM  C13F10519   7.202   0.998  14.625 -0.1030 -0.5478  0.8055
   7923SM  H13F10520   7.289   0.944  14.582  1.0733 -0.2307  2.6690
   7923SM  H13G10521   7.232   1.059  14.712 -1.2032  1.6996 -0.3142
   7923SM  C14F10522   7.143   1.096  14.518 -0.8122  0.3468  0.4770
   7923SM  H14F10523   7.219   1.172  14.492 -1.1188  0.5565  0.1889
   7923SM  H14G10524   7.053   1.147  14.558 -0.7519  1.3586 -0.6378
   7923SM  C15F10525   7.099   1.021  14.390  0.1688  0.2937  0.3020
   7923SM  H15F10526   7.013   0.952  14.404 -0.2879  1.0574  1.4308
   7923SM  H15G10527   7.179   0.956  14.347 -0.8485  1.4841 -3.8532
   7923SM  C16F10528   7.057   1.108  14.276 -0.3794  0.3310  0.0861
   7923SM  H16F10529   7.152   1.157  14.246 -0.3304 -0.3782 -0.9893
   7923SM  H16G10530   6.987   1.188  14.307 -1.0081  0.1379 -0.7746
   7923SM  C17F10531   6.989   1.027  14.163  0.3248 -0.5438 -0.1478
   7923SM  H17F10532   6.887   1.015  14.205  0.8505  1.2604  1.7662
   7923SM  H17G10533   7.037   0.926  14.159  1.0520 -0.2385  0.5640
   7923SM  C18F10534   6.990   1.095  14.022 -0.2298  0.0908 -0.9289
   7923SM  H18F10535   7.088   1.087  13.969 -1.3606 -0.5193 -3.0198
   7923SM  H18G10536   6.974   1.204  14.036  0.3981  0.0977 -0.2034
   7923SM  C19F10537   6.880   1.040  13.930 -1.0995 -0.5185  0.4384
   7923SM  H19F10538   6.786   1.035  13.989 -0.6359 -0.5700  1.1830
   7923SM  H19G10539   6.902   0.935  13.899 -2.8040 -0.3269 -1.7013
   7923SM  C20F10540   6.876   1.119  13.802  0.0942  0.4968  0.3340
   7923SM  H20F10541   6.976   1.158  13.772  1.1614 -1.8926  0.5661
   7923SM  H20G10542   6.810   1.209  13.804 -2.1801 -1.0310 -1.0251
   7923SM  C21F10543   6.843   1.024  13.677 -0.0664 -0.3197  0.3459
   7923SM  H21F10544   6.753   0.963  13.701 -0.1915  0.1639  1.1380
   7923SM  H21G10545   6.930   0.958  13.656 -0.8621 -1.9426  1.9119
   7923SM  C22F10546   6.825   1.094  13.544 -0.2826 -0.1777 -0.1043
   7923SM  H22F10547   6.918   1.152  13.529 -0.7021  0.5761  0.1456
   7923SM  H22G10548   6.743   1.168  13.553 -0.4216 -0.4743  1.5420
   7923SM  C23F10549   6.792   1.010  13.427 -0.0296 -0.6850  0.0407
   7923SM  H23F10550   6.698   0.950  13.430 -1.4238  1.1231 -2.7238
   7923SM  H23G10551   6.880   0.944  13.410  1.2394  0.3919  2.1092
   7923SM  H23H10552   6.780   1.079  13.341  1.6130  2.7652  2.3425
   8023SM     N10553   0.930   7.010  16.927 -0.1180 -0.1867 -0.2616
   8023SM   C1510554   1.033   6.945  17.014 -0.2706 -0.6910  0.4865
   8023SM  H15A10555   1.010   6.969  17.117 -1.9443 -0.2914  0.0446
   8023SM  H15B10556   1.135   6.976  16.995 -0.0058 -1.0171  1.3201
   8023SM  H15C10557   1.036   6.839  16.994  0.8522 -0.7007  0.6298
   8023SM   C1410558   0.804   6.925  16.930 -0.2355 -0.4952  0.7446
   8023SM  H14A10559   0.739   6.945  17.013  0.3133  3.0980  0.4507
   8023SM  H14B10560   0.838   6.822  16.931 -1.2241 -0.8881 -1.1071
   8023SM  H14C10561   0.743   6.942  16.842  2.5408  1.1212 -1.0213
   8023SM   C1310562   0.892   7.139  16.980 -0.5593 -0.8617 -0.0258
   8023SM  H13A10563   0.818   7.196  16.926 -0.7671 -1.4427 -0.3750
   8023SM  H13B10564   0.983   7.194  17.002  0.4845 -2.2545 -0.6909
   8023SM  H13C10565   0.851   7.119  17.078 -0.0322 -1.6372  0.0518
   8023SM   C1210566   0.982   7.020  16.787 -0.4034 -0.2683  0.0789
   8023SM  H12A10567   0.905   7.063  16.726  0.4553  1.9187  0.4594
   8023SM  H12B10568   1.013   6.926  16.743 -1.5840 -1.0204  0.7816
   8023SM   C1110569   1.089   7.124  16.761 -0.7795  0.1530  0.0111
   8023SM  H11A10570   1.133   7.118  16.659 -1.5161  1.1669 -0.3727
   8023SM  H11B10571   1.176   7.099  16.826 -0.8752  0.1258  0.1299
   8023SM     P10572   0.944   7.341  16.705 -0.0723 -0.0882  0.1473
   8023SM   O1310573   0.808   7.281  16.723  0.0390 -0.1861 -0.1497
   8023SM   O1410574   0.957   7.485  16.751 -0.1671  0.3107 -0.1095
   8023SM   O1110575   0.987   7.327  16.553  0.0831  0.3478  0.2213
   8023SM   O1210576   1.048   7.255  16.794 -0.2529 -0.1143 -0.5834
   8023SM   C1S10577   1.106   7.387  16.504 -0.0260 -0.1244  0.2276
   8023SM   H1S10578   1.193   7.344  16.557  0.3791  1.4570  0.8808
   8023SM   H1T10579   1.125   7.495  16.519  2.3538 -0.6270  1.1147
   8023SM    NF10580   1.048   7.409  16.250  0.4150  0.4569  1.0580
   8023SM   HNF10581   0.998   7.352  16.185 -0.3562  1.3166  0.8884
   8023SM   C2S10582   1.134   7.347  16.350 -0.0992  0.4409 -0.3307
   8023SM   H2S10583   1.237   7.384  16.333  0.0635 -0.7093 -2.1281
   8023SM   C3S10584   1.162   7.190  16.348 -0.0867 -0.0198 -0.1894
   8023SM   H3S10585   1.073   7.134  16.383  1.2053 -1.8797  0.2485
   8023SM    O310586   1.258   7.139  16.448  0.5882 -0.6141 -0.1593
   8023SM   HO310587   1.283   7.216  16.499  0.5949 -0.6262 -0.1445
   8023SM   C4S10588   1.202   7.140  16.216 -0.2817  0.0995 -0.2784
   8023SM   H4S10589   1.308   7.132  16.189  0.4513 -1.1876  2.6234
   8023SM   C5S10590   1.112   7.068  16.143 -0.5410 -0.7008  0.1332
   8023SM   H5S10591   1.016   7.051  16.193  0.3201  2.8072  3.3783
   8023SM   C6S10592   1.146   7.011  16.004  0.7458  0.3023 -0.0214
   8023SM   H6S10593   1.149   6.900  15.992  1.1970  0.4806 -1.9882
   8023SM   H6T10594   1.248   7.051  15.986  0.4987  0.7649 -0.4072
   8023SM   C7S10595   1.041   7.075  15.910  0.3794 -0.1929  0.1846
   8023SM   H7S10596   1.059   7.185  15.912 -1.2250  0.1302 -0.6574
   8023SM   H7T10597   0.938   7.049  15.945  0.9360 -0.2951  1.8021
   8023SM   C8S10598   1.057   7.019  15.769  0.0505  0.1664 -0.5464
   8023SM   H8S10599   1.050   6.908  15.769  1.0380  0.0645 -2.1057
   8023SM   H8T10600   1.155   7.040  15.721  0.3346  1.1723  0.4274
   8023SM   C9S10601   0.951   7.074  15.670 -0.5329  0.1676  0.8379
   8023SM   H9S10602   0.849   7.060  15.713 -0.1620  1.3452  2.2008
   8023SM   H9T10603   0.970   7.021  15.575 -1.8106  0.0974  0.5957
   8023SM  C10S10604   0.975   7.225  15.649  0.8698  0.0519 -0.3799
   8023SM  H10S10605   1.074   7.257  15.612  2.2917 -1.5897  1.7509
   8023SM  H10T10606   0.961   7.279  15.745  1.4939 -0.6825  0.1395
   8023SM  C11S10607   0.874   7.290  15.554  0.1979  0.2195  0.9907
   8023SM  H11S10608   0.868   7.398  15.579  0.9946  0.6210 -0.4413
   8023SM  H11T10609   0.775   7.241  15.572 -0.4213  1.1521  0.2344
   8023SM  C12S10610   0.917   7.274  15.401  0.8696 -0.5191 -0.0361
   8023SM  H12S10611   0.954   7.172  15.378 -1.4040 -1.1147 -1.3720
   8023SM  H12T10612   1.002   7.342  15.377 -0.0932  0.3265 -1.1436
   8023SM  C13S10613   0.796   7.290  15.309 -0.3203 -0.6346  0.1653
   8023SM  H13S10614   0.772   7.397  15.328 -1.3933 -1.0997  1.5740
   8023SM  H13T10615   0.709   7.231  15.346 -1.1203 -0.4725 -1.3641
   8023SM  C14S10616   0.820   7.268  15.155  0.4805 -0.0612 -0.0970
   8023SM  H14S10617   0.864   7.170  15.127  1.1813  0.8564 -2.4195
   8023SM  H14T10618   0.885   7.352  15.121  0.0132  1.4852  2.5161
   8023SM  C15S10619   0.688   7.282  15.082  0.6587 -0.5413  0.2329
   8023SM  H15S10620   0.637   7.374  15.118  0.3564  0.2755 -2.0945
   8023SM  H15T10621   0.632   7.193  15.115 -0.5714  0.5654  1.2154
   8023SM  C16S10622   0.694   7.298  14.927  0.0389  0.0439  0.0245
   8023SM  H16S10623   0.730   7.199  14.892  2.1423  0.3029  1.2928
   8023SM  H16T10624   0.783   7.359  14.899  0.1259  0.4498  1.1236
   8023SM  C17S10625   0.567   7.341  14.857  0.1872 -0.4350  0.1941
   8023SM  H17S10626   0.505   7.432  14.871  0.5306  0.6324 -3.9468
   8023SM  H17T10627   0.482   7.271  14.866 -0.1889  0.1707  1.7655
   8023SM  C18S10628   0.581   7.346  14.698 -0.1608  0.4789  0.9345
   8023SM  H18S10629   0.679   7.302  14.670  0.1054  0.9271  1.1487
   8023SM  H18T10630   0.562   7.446  14.654  0.2271  0.0298 -0.2754
   8023SM  H18U10631   0.500   7.280  14.660  1.5006 -1.3885  0.5057
   8023SM   C1F10632   1.047   7.543  16.228 -0.0713  0.3285 -0.1661
   8023SM    OF10633   1.130   7.609  16.293 -0.1575  0.3925 -0.1876
   8023SM   C2F10634   0.949   7.602  16.133  0.0243 -0.3199 -0.4074
   8023SM   H2F10635   0.902   7.687  16.188  2.0272 -1.3728  3.2265
   8023SM   H2G10636   0.865   7.532  16.114  1.2708 -1.2606 -2.9046
   8023SM   C3F10637   1.007   7.642  15.991 -0.1381  0.4294 -0.0513
   8023SM   H3F10638   1.103   7.698  16.000  0.3348 -0.3806  0.0413
   8023SM   H3G10639   0.943   7.709  15.930  0.3684 -1.1716 -2.4768
   8023SM   C4F10640   1.045   7.524  15.905 -0.6100  0.3885 -0.2702
   8023SM   H4F10641   0.951   7.468  15.884 -0.7152  0.5058 -0.1215
   8023SM   H4G10642   1.118   7.462  15.960  2.4342  2.1748 -2.0169
   8023SM   C5F10643   1.111   7.563  15.773  0.2177  1.0155 -0.0555
   8023SM   H5F10644   1.133   7.467  15.720  2.3448  1.0951  0.5760
   8023SM   H5G10645   1.191   7.638  15.791  0.2926  0.3457  3.0479
   8023SM   C6F10646   1.018   7.640  15.675 -0.7990  0.1368  0.3090
   8023SM   H6F10647   1.031   7.747  15.700  1.3761 -0.1514  0.5756
   8023SM   H6G10648   0.910   7.617  15.686 -0.9380  0.5491 -0.1518
   8023SM   C7F10649   1.071   7.627  15.532 -0.6097 -0.0168  0.4350
   8023SM   H7F10650   1.102   7.523  15.507  2.7688  1.6137 -3.3023
   8023SM   H7G10651   1.166   7.684  15.528 -0.5932 -0.0769 -0.0592
   8023SM   C8F10652   0.963   7.681  15.440  0.2884 -0.1588 -0.8220
   8023SM   H8F10653   0.930   7.780  15.478  1.2820 -0.7787  1.8538
   8023SM   H8G10654   0.876   7.611  15.447  0.9586 -0.8142  2.3603
   8023SM   C9F10655   1.020   7.696  15.299 -0.2275 -0.5897 -0.1978
   8023SM   H9F10656   1.065   7.599  15.270  2.5461 -0.1088  2.0847
   8023SM   H9G10657   1.108   7.763  15.290 -0.2782 -0.5692 -0.5715
   8023SM  C10F10658   0.911   7.740  15.196 -0.3431 -0.7917  0.3055
   8023SM  H10F10659   0.884   7.842  15.232 -1.3051 -0.5410 -1.0710
   8023SM  H10G10660   0.833   7.661  15.204 -0.7852 -0.4663 -0.7204
   8023SM  C11F10661   0.952   7.750  15.049 -0.3767  0.0073 -0.3530
   8023SM  H11F10662   1.006   7.661  15.012  2.6859  1.2840  0.7212
   8023SM  H11G10663   1.032   7.826  15.042 -0.5451  0.9445  4.4147
   8023SM  C12F10664   0.835   7.766  14.952 -0.1127 -0.0710 -0.6684
   8023SM  H12F10665   0.790   7.867  14.943  0.0012  0.2419  1.6320
   8023SM  H12G10666   0.755   7.699  14.991 -1.0287  1.0227 -0.6165
   8023SM  C13F10667   0.885   7.715  14.815 -0.8286 -0.4874  0.0804
   8023SM  H13F10668   0.947   7.624  14.824  0.0422  0.1470  0.6613
   8023SM  H13G10669   0.957   7.789  14.774 -1.1000  0.1638  0.7627
   8023SM  C14F10670   0.777   7.689  14.712  0.2991  0.1863 -0.2825
   8023SM  H14F10671   0.751   7.791  14.676  0.6281 -0.0426 -1.1968
   8023SM  H14G10672   0.689   7.645  14.764  0.3673  1.0159  0.5577
   8023SM  C15F10673   0.820   7.611  14.591  0.3034  0.9614  0.0188
   8023SM  H15F10674   0.733   7.601  14.522  1.4488  0.1700 -1.3500
   8023SM  H15G10675   0.844   7.509  14.627  0.9531  0.7312 -1.0329
   8023SM  C16F10676   0.941   7.662  14.517 -0.3147 -0.3577 -0.4981
   8023SM  H16F10677   1.027   7.681  14.585  0.4678 -1.1051 -1.2561
   8023SM  H16G10678   0.918   7.758  14.466  0.3693 -0.7503 -1.5957
   8023SM  C17F10679   0.990   7.594  14.387 -0.4431  0.8102 -0.3470
   8023SM  H17F10680   0.904   7.549  14.332  0.0482 -0.6285  0.0106
   8023SM  H17G10681   1.050   7.505  14.415  0.7646  1.8552  0.4666
   8023SM  C18F10682   1.076   7.689  14.296  0.3419  0.1682 -0.4580
   8023SM  H18F10683   1.174   7.709  14.345  0.3191  1.4388 -0.9098
   8023SM  H18G10684   1.021   7.783  14.273  1.2972  0.9560  0.3658
   8023SM  C19F10685   1.093   7.618  14.154 -0.4472  0.4632 -0.2904
   8023SM  H19F10686   0.990   7.612  14.113 -0.0939 -0.0707 -1.1234
   8023SM  H19G10687   1.121   7.511  14.166 -1.5405  0.1022 -0.8191
   8023SM  C20F10688   1.175   7.703  14.058  0.5652  0.0664 -0.3111
   8023SM  H20F10689   1.283   7.707  14.083  1.2200  0.9541 -2.9311
   8023SM  H20G10690   1.137   7.807  14.068  0.5250 -0.0119  0.4079
   8023SM  C21F10691   1.160   7.664  13.911 -0.2593  0.3198 -0.0740
   8023SM  H21F10692   1.093   7.725  13.847  0.3086 -0.0851 -1.0778
   8023SM  H21G10693   1.139   7.555  13.904  0.9299  0.0723 -0.0756
   8023SM  C22F10694   1.297   7.675  13.844 -0.3361 -1.0239  0.2443
   8023SM  H22F10695   1.357   7.591  13.885 -1.6284 -1.6093  1.0281
   8023SM  H22G10696   1.347   7.770  13.874 -0.4312 -1.2104  1.0349
   8023SM  C23F10697   1.290   7.673  13.688  0.4688 -0.4978 -0.5738
   8023SM  H23F10698   1.393   7.665  13.648  0.5009 -0.5555 -0.4805
   8023SM  H23G10699   1.257   7.776  13.662  1.8062  0.2717  0.6172
   8023SM  H23H10700   1.235   7.587  13.644 -0.4709 -0.1931 -0.0299
   8123SM     N10701   3.408   4.599  11.776 -0.0757  0.1215 -0.1574
   8123SM   C1510702   3.385   4.501  11.658 -0.7363 -0.1624  0.0454
   8123SM  H15A10703   3.282   4.468  11.655 -0.9185  0.3251 -3.5700
   8123SM  H15B10704   3.442   4.409  11.665  1.8832  1.3780  0.2055
   8123SM  H15C10705   3.409   4.547  11.563 -1.1540 -0.4387 -0.1974
   8123SM   C1410706   3.550   4.658  11.744  0.6125  0.2554  0.7640
   8123SM  H14A10707   3.543   4.695  11.643 -1.6529  1.1930  1.2150
   8123SM  H14B10708   3.611   4.569  11.733 -1.0461 -0.8359  0.0316
   8123SM  H14C10709   3.591   4.728  11.816  2.7804 -1.7245  1.6255
   8123SM   C1310710   3.307   4.709  11.779  0.5422 -0.3754  0.7589
   8123SM  H13A10711   3.298   4.772  11.866 -4.0041  0.5976 -0.1521
   8123SM  H13B10712   3.210   4.665  11.760  0.9011 -0.2191 -1.7787
   8123SM  H13C10713   3.323   4.777  11.696 -0.1340  0.8884  1.6133
   8123SM   C1210714   3.416   4.521  11.904 -0.2481  0.1956  0.6973
   8123SM  H12A10715   3.447   4.592  11.980 -1.1589  0.0511  1.2134
   8123SM  H12B10716   3.493   4.447  11.888 -0.4760  0.4951 -2.1849
   8123SM   C1110717   3.282   4.447  11.945  0.5345 -0.1057  0.2065
   8123SM  H11A10718   3.195   4.510  11.919  0.0123 -0.5022  0.9665
   8123SM  H11B10719   3.290   4.429  12.055 -0.6238 -1.0890  0.1467
   8123SM     P10720   3.370   4.204  11.904  0.3273 -0.3790 -0.3073
   8123SM   O1310721   3.320   4.084  11.831 -0.0185 -0.0580 -0.1499
   8123SM   O1410722   3.506   4.259  11.877  0.8383  0.0613  0.4377
   8123SM   O1110723   3.373   4.191  12.063 -0.4926  0.1031  0.2032
   8123SM   O1210724   3.266   4.320  11.882  0.0641 -0.0996  0.1670
   8123SM   C1S10725   3.293   4.092  12.130 -0.4840 -0.2323  0.2124
   8123SM   H1S10726   3.318   3.991  12.091  1.4461 -0.7899  2.6343
   8123SM   H1T10727   3.187   4.124  12.125 -0.3722  0.0774 -0.3956
   8123SM    NF10728   3.278   3.981  12.351  0.2355 -0.1764 -0.2777
   8123SM   HNF10729   3.205   4.005  12.414  0.2329 -1.9120  0.4501
   8123SM   C2S10730   3.342   4.083  12.279  0.1478  0.2062  0.2744
   8123SM   H2S10731   3.451   4.061  12.274 -0.2252 -1.4894 -1.7378
   8123SM   C3S10732   3.344   4.219  12.353 -0.0020  0.1193  0.5367
   8123SM   H3S10733   3.239   4.256  12.359  0.4995  1.9815 -1.2082
   8123SM    O310734   3.423   4.314  12.286  0.0775 -0.0203 -0.0741
   8123SM   HO310735   3.434   4.278  12.197 -1.9117  0.4679 -0.5641
   8123SM   C4S10736   3.411   4.206  12.491 -0.1849 -0.2471 -0.0532
   8123SM   H4S10737   3.347   4.164  12.570 -0.5118 -0.5191 -0.4585
   8123SM   C5S10738   3.543   4.227  12.513 -0.1899  0.2594  0.5328
   8123SM   H5S10739   3.610   4.263  12.434  0.7840  1.4901  1.8541
   8123SM   C6S10740   3.618   4.217  12.643 -0.4164  0.0827  0.6013
   8123SM   H6S10741   3.634   4.321  12.678 -0.6504  0.4852 -0.4569
   8123SM   H6T10742   3.721   4.175  12.637  0.5618  2.4543 -0.6801
   8123SM   C7S10743   3.541   4.157  12.765  0.2628  0.1481 -0.6620
   8123SM   H7S10744   3.494   4.059  12.739 -0.9505  0.7828 -0.9044
   8123SM   H7T10745   3.467   4.234  12.794 -0.4226 -1.6881  3.0918
   8123SM   C8S10746   3.623   4.112  12.892  0.5186 -0.4100 -0.3661
   8123SM   H8S10747   3.690   4.198  12.914  1.4972 -1.4970  1.1374
   8123SM   H8T10748   3.686   4.021  12.882 -0.3806 -1.2288  1.1603
   8123SM   C9S10749   3.541   4.068  13.016 -0.2005  0.0157  0.9265
   8123SM   H9S10750   3.476   3.979  13.003  1.1566 -0.7088 -1.3687
   8123SM   H9T10751   3.474   4.156  13.029  1.1623  1.2791 -0.2616
   8123SM  C10S10752   3.623   4.057  13.140  0.0706  0.3935 -0.2555
   8123SM  H10S10753   3.687   4.145  13.163 -0.6110  1.1865 -1.2806
   8123SM  H10T10754   3.693   3.971  13.145  2.3153  1.7842 -3.8933
   8123SM  C11S10755   3.529   4.034  13.265  0.8458 -0.3785  0.1071
   8123SM  H11S10756   3.473   3.944  13.232  1.3620 -1.1536  1.2663
   8123SM  H11T10757   3.451   4.113  13.274  1.0929 -0.2062  0.8392
   8123SM  C12S10758   3.598   4.007  13.395 -0.0756 -0.0720 -1.1705
   8123SM  H12S10759   3.636   4.107  13.426 -3.4910  0.7187  0.9204
   8123SM  H12T10760   3.682   3.935  13.383 -1.4307 -1.5062 -2.5173
   8123SM  C13S10761   3.507   3.954  13.503 -0.0303  0.7124 -0.0244
   8123SM  H13S10762   3.457   3.864  13.461  0.0934 -0.0998  1.5303
   8123SM  H13T10763   3.421   4.021  13.529 -0.0731  1.5803 -2.1607
   8123SM  C14S10764   3.582   3.906  13.625 -0.4750  0.7252  0.1656
   8123SM  H14S10765   3.650   3.988  13.655  0.6263  0.2548 -0.9438
   8123SM  H14T10766   3.645   3.820  13.593 -1.2200 -0.5118  1.8994
   8123SM  C15S10767   3.482   3.870  13.732 -0.4534 -0.2027  0.0639
   8123SM  H15S10768   3.405   3.796  13.702 -1.1147  0.6104 -0.2838
   8123SM  H15T10769   3.426   3.962  13.760 -0.7282 -0.5784  0.7997
   8123SM  C16S10770   3.557   3.819  13.859 -0.1227  0.5161 -0.6274
   8123SM  H16S10771   3.631   3.893  13.894  0.6305 -0.3540 -0.3441
   8123SM  H16T10772   3.615   3.726  13.841  2.2455  1.6567  0.6660
   8123SM  C17S10773   3.454   3.804  13.975  0.2521  0.6686 -0.2462
   8123SM  H17S10774   3.415   3.905  14.004  0.9651  0.5814  1.1340
   8123SM  H17T10775   3.507   3.767  14.066  0.4541 -0.7857 -0.9315
   8123SM  C18S10776   3.345   3.704  13.955  0.3534  0.0907 -0.6722
   8123SM  H18S10777   3.277   3.694  14.042  1.6143  0.1927  0.3498
   8123SM  H18T10778   3.394   3.605  13.942  0.5451 -0.0151  0.7245
   8123SM  H18U10779   3.284   3.725  13.864  1.2633 -3.1150 -2.1612
   8123SM   C1F10780   3.290   3.852  12.317  0.6760 -0.6869  0.6146
   8123SM    OF10781   3.393   3.828  12.254  0.1260  0.3640 -0.2652
   8123SM   C2F10782   3.193   3.752  12.366 -0.4767 -0.6315  0.5632
   8123SM   H2F10783   3.201   3.657  12.309  1.8388  0.2128 -0.6486
   8123SM   H2G10784   3.092   3.795  12.345  0.7366  4.0014  2.8647
   8123SM   C3F10785   3.211   3.734  12.516  0.3554 -0.4067 -0.0951
   8123SM   H3F10786   3.179   3.818  12.581 -0.9104  1.5898 -3.0806
   8123SM   H3G10787   3.319   3.711  12.530  0.6088  1.1172  0.6373
   8123SM   C4F10788   3.133   3.612  12.572  0.4105 -0.1512 -0.5115
   8123SM   H4F10789   3.154   3.522  12.511  0.3734 -0.1867 -0.4718
   8123SM   H4G10790   3.023   3.627  12.566  0.4379 -0.1304 -1.0141
   8123SM   C5F10791   3.165   3.586  12.715  0.9249 -0.6812  0.2061
   8123SM   H5F10792   3.110   3.657  12.782 -0.7508 -2.0026  0.2870
   8123SM   H5G10793   3.273   3.592  12.743  0.7606  1.1002  0.6022
   8123SM   C6F10794   3.110   3.450  12.760  0.2655 -0.4603 -0.2632
   8123SM   H6F10795   3.031   3.411  12.692 -0.3973 -0.6378  0.5888
   8123SM   H6G10796   3.062   3.462  12.859 -0.2369 -0.1026 -0.5455
   8123SM   C7F10797   3.228   3.352  12.763  0.4876  0.3895  0.1365
   8123SM   H7F10798   3.307   3.396  12.828 -0.5049  1.3252  0.7538
   8123SM   H7G10799   3.262   3.334  12.658 -1.2391 -1.1905 -0.1975
   8123SM   C8F10800   3.178   3.212  12.825 -0.0791  0.3986  0.7409
   8123SM   H8F10801   3.098   3.187  12.752  0.6604 -0.2592  0.1451
   8123SM   H8G10802   3.149   3.240  12.929 -2.2667  1.6103 -0.1346
   8123SM   C9F10803   3.266   3.088  12.818 -0.4947  0.4138 -0.1030
   8123SM   H9F10804   3.296   3.057  12.715  1.1624 -0.8230  0.6959
   8123SM   H9G10805   3.203   3.005  12.856  0.0438 -0.2765 -0.6763
   8123SM  C10F10806   3.393   3.109  12.899  0.1282 -0.5234  0.0191
   8123SM  H10F10807   3.384   3.171  12.991 -1.1020  1.0619 -1.1175
   8123SM  H10G10808   3.464   3.158  12.828 -2.0408 -0.5554 -2.3069
   8123SM  C11F10809   3.469   2.984  12.940  0.7355 -0.0075  0.0525
   8123SM  H11F10810   3.458   2.915  12.854  0.2913  0.7082 -0.4756
   8123SM  H11G10811   3.412   2.928  13.017 -0.7261  2.1709  0.6604
   8123SM  C12F10812   3.617   3.003  12.964 -0.0723  0.4544 -0.3299
   8123SM  H12F10813   3.635   3.059  13.058  0.8778  1.2059 -0.9331
   8123SM  H12G10814   3.662   3.068  12.886  0.2505 -0.4169 -0.8791
   8123SM  C13F10815   3.700   2.872  12.984  0.0780  0.0062 -0.0063
   8123SM  H13F10816   3.658   2.786  12.927 -1.3226  0.2916  0.5462
   8123SM  H13G10817   3.678   2.854  13.091 -1.8142 -0.8715 -0.4953
   8123SM  C14F10818   3.855   2.885  12.967 -0.0430 -0.0513 -0.3611
   8123SM  H14F10819   3.875   2.915  12.862  3.5856  0.4151  0.3512
   8123SM  H14G10820   3.893   2.781  12.965 -0.7970 -0.3401 -0.2627
   8123SM  C15F10821   3.939   2.970  13.071 -0.6983  0.4104  0.4155
   8123SM  H15F10822   3.915   3.077  13.053  1.7374  0.7636 -1.1259
   8123SM  H15G10823   4.044   2.949  13.041 -0.5056  1.0330  0.6285
   8123SM  C16F10824   3.921   2.925  13.218  0.3700 -0.5641 -0.3580
   8123SM  H16F10825   3.850   2.840  13.229  1.3918 -1.3688  0.1628
   8123SM  H16G10826   3.891   3.011  13.281  2.3030 -1.1291  1.4219
   8123SM  C17F10827   4.053   2.866  13.281  0.1051  0.4446 -0.2115
   8123SM  H17F10828   4.092   2.781  13.220  4.6601  2.7276 -0.9474
   8123SM  H17G10829   4.028   2.837  13.385  1.1300  0.2573 -0.0076
   8123SM  C18F10830   4.177   2.960  13.289 -0.1590  0.9216  0.5365
   8123SM  H18F10831   4.203   3.012  13.194  0.6801 -0.1415  0.1602
   8123SM  H18G10832   4.275   2.910  13.304  0.8155  2.4079 -0.5434
   8123SM  C19F10833   4.146   3.078  13.382  1.1605  0.3034  0.1987
   8123SM  H19F10834   4.142   3.029  13.481 -0.7229 -1.0412 -0.4869
   8123SM  H19G10835   4.051   3.127  13.351 -0.0305 -1.0747  1.5018
   8123SM  C20F10836   4.258   3.180  13.380 -0.2251  0.1580  0.3678
   8123SM  H20F10837   4.242   3.234  13.284 -0.0533 -1.8584 -0.8486
   8123SM  H20G10838   4.362   3.141  13.390 -0.9319 -1.2489  3.2304
   8123SM  C21F10839   4.247   3.285  13.490 -0.1826 -0.2932 -0.3997
   8123SM  H21F10840   4.249   3.224  13.583  1.0490 -1.7613 -1.3252
   8123SM  H21G10841   4.152   3.343  13.491  0.2478  0.4112  0.7562
   8123SM  C22F10842   4.364   3.384  13.481  0.1888 -0.4421 -0.5864
   8123SM  H22F10843   4.395   3.410  13.378  1.9632 -2.9638 -0.7930
   8123SM  H22G10844   4.453   3.324  13.511  0.0818  1.0185  3.2882
   8123SM  C23F10845   4.372   3.497  13.578  0.4401  0.8765 -0.7555
   8123SM  H23F10846   4.387   3.457  13.680  1.6607 -0.0165 -1.2517
   8123SM  H23G10847   4.274   3.549  13.575 -1.0959 -1.6465  1.9328
   8123SM  H23H10848   4.459   3.566  13.570 -0.3040  2.0953  1.1067
   8223SM     N10849   4.225   3.717  11.704  0.2466 -0.1557 -0.2742
   8223SM   C1510850   4.157   3.820  11.619 -1.0357 -0.2461 -0.2032
   8223SM  H15A10851   4.088   3.777  11.548 -0.8629  0.3512 -0.7485
   8223SM  H15B10852   4.226   3.868  11.551 -0.7485  1.6430  1.3166
   8223SM  H15C10853   4.123   3.905  11.678 -0.0266  1.5931 -2.1301
   8223SM   C1410854   4.118   3.622  11.747 -0.6815  0.3684 -0.1489
   8223SM  H14A10855   4.169   3.553  11.813 -2.6522  0.7587  1.8916
   8223SM  H14B10856   4.074   3.563  11.668 -2.1162 -1.9113  2.1645
   8223SM  H14C10857   4.045   3.666  11.812  1.0454  2.1570  0.6765
   8223SM   C1310858   4.312   3.633  11.623 -0.3167  0.4666 -0.1103
   8223SM  H13A10859   4.413   3.671  11.615  0.5484 -1.1252  2.1180
   8223SM  H13B10860   4.282   3.630  11.519 -1.1413  1.0932  0.1031
   8223SM  H13C10861   4.327   3.531  11.656 -2.4022 -0.1439 -0.9050
   8223SM   C1210862   4.294   3.770  11.824 -0.0868  0.3822 -0.2404
   8223SM  H12A10863   4.332   3.688  11.882  0.4971  1.1548  0.4965
   8223SM  H12B10864   4.229   3.819  11.895 -1.2245  0.8252 -1.5330
   8223SM   C1110865   4.408   3.870  11.800  0.1490 -1.1840 -0.7276
   8223SM  H11A10866   4.485   3.825  11.733  1.5986 -0.6983  0.5564
   8223SM  H11B10867   4.456   3.888  11.898 -2.2824  1.7833  0.0589
   8223SM     P10868   4.272   4.089  11.847 -0.2165  0.1076 -0.1503
   8223SM   O1310869   4.283   4.226  11.797  0.0663 -0.6277  0.1444
   8223SM   O1410870   4.135   4.040  11.840 -0.4659  0.4888 -0.0901
   8223SM   O1110871   4.320   4.086  11.994  0.9485 -0.2442 -0.7757
   8223SM   O1210872   4.363   4.000  11.762  0.5168 -0.2338  0.0950
   8223SM   C1S10873   4.220   4.106  12.101  0.3591  0.0295  0.0330
   8223SM   H1S10874   4.139   4.030  12.093  0.8848 -0.4063 -1.7460
   8223SM   H1T10875   4.183   4.211  12.099  2.7652  0.9380 -0.0165
   8223SM    NF10876   4.175   4.110  12.344  0.2771 -0.0059 -0.0472
   8223SM   HNF10877   4.135   4.200  12.360 -0.9430 -0.7245  1.1293
   8223SM   C2S10878   4.282   4.086  12.249 -0.7650 -0.0185  1.5133
   8223SM   H2S10879   4.311   3.979  12.257 -0.5660  0.0180  1.2951
   8223SM   C3S10880   4.401   4.174  12.273 -0.3055 -0.4071  0.1798
   8223SM   H3S10881   4.368   4.280  12.279 -0.1309 -0.3032 -0.5560
   8223SM    O310882   4.502   4.163  12.172 -0.0961  0.3178 -0.2584
   8223SM   HO310883   4.455   4.137  12.092  1.3278  1.2449 -1.4501
   8223SM   C4S10884   4.471   4.150  12.412 -0.0803 -0.0058 -0.2995
   8223SM   H4S10885   4.416   4.189  12.498  0.7377  2.1703 -0.7076
   8223SM   C5S10886   4.594   4.094  12.438 -0.6689  0.2457  0.3781
   8223SM   H5S10887   4.649   4.048  12.355  0.1549  1.7090  0.0861
   8223SM   C6S10888   4.657   4.083  12.572  0.1842 -0.1136  0.0587
   8223SM   H6S10889   4.753   4.139  12.571  0.4128 -0.4852 -1.6324
   8223SM   H6T10890   4.670   3.976  12.597 -2.4123 -1.1850 -2.5782
   8223SM   C7S10891   4.572   4.147  12.687  0.1121  0.2370  0.6409
   8223SM   H7S10892   4.479   4.088  12.696 -2.2709  3.4066 -1.1025
   8223SM   H7T10893   4.537   4.249  12.661 -0.6179 -0.0749  0.3869
   8223SM   C8S10894   4.642   4.132  12.824  0.8424 -0.1962  0.0387
   8223SM   H8S10895   4.752   4.146  12.821  1.0873 -1.8281  0.4376
   8223SM   H8T10896   4.613   4.030  12.857 -0.1580 -0.0331 -0.2926
   8223SM   C9S10897   4.609   4.232  12.933  0.4299 -0.0091  0.3959
   8223SM   H9S10898   4.498   4.243  12.938  0.2295  0.2812 -2.7593
   8223SM   H9T10899   4.659   4.327  12.903  1.9183 -0.4059  1.5465
   8223SM  C10S10900   4.663   4.205  13.074  0.5766 -0.1027  0.4290
   8223SM  H10S10901   4.770   4.234  13.070  0.7728 -0.9359 -2.6970
   8223SM  H10T10902   4.644   4.097  13.090  1.3365 -0.1521  1.0811
   8223SM  C11S10903   4.593   4.286  13.184  0.4294  0.1263 -0.0981
   8223SM  H11S10904   4.484   4.265  13.179  0.7226 -1.3894 -0.9937
   8223SM  H11T10905   4.600   4.393  13.157 -0.3798 -0.3488 -2.4046
   8223SM  C12S10906   4.650   4.277  13.327  0.0488 -0.1290 -0.1351
   8223SM  H12S10907   4.738   4.345  13.327  0.1787 -0.2351 -2.1489
   8223SM  H12T10908   4.687   4.176  13.354 -0.2553 -0.9612 -2.5889
   8223SM  C13S10909   4.557   4.343  13.434  0.4231  0.3326 -0.4870
   8223SM  H13S10910   4.456   4.297  13.422 -0.3803  2.2153 -1.4064
   8223SM  H13T10911   4.548   4.449  13.403 -0.5007 -0.1908 -2.1520
   8223SM  C14S10912   4.611   4.334  13.575  0.1726  0.3718 -0.9504
   8223SM  H14S10913   4.634   4.230  13.605 -4.6920 -0.8113 -0.4270
   8223SM  H14T10914   4.529   4.368  13.642  0.1129  2.0201 -1.7992
   8223SM  C15S10915   4.728   4.427  13.606  0.1286  0.1700 -0.9163
   8223SM  H15S10916   4.693   4.528  13.579 -0.8795  0.3523  0.9030
   8223SM  H15T10917   4.813   4.403  13.539  0.8466  0.1427 -0.0169
   8223SM  C16S10918   4.761   4.446  13.756  0.3525  0.6065  0.0382
   8223SM  H16S10919   4.664   4.469  13.806  0.9428  1.4685  0.8261
   8223SM  H16T10920   4.799   4.547  13.780  0.3866  0.2397  1.6960
   8223SM  C17S10921   4.820   4.322  13.827 -0.6957  0.0969 -0.4598
   8223SM  H17S10922   4.925   4.313  13.791 -1.0684 -0.9809 -1.3401
   8223SM  H17T10923   4.770   4.226  13.801 -0.8108  0.5908 -2.2142
   8223SM  C18S10924   4.828   4.346  13.981  0.1750  0.1885  0.3172
   8223SM  H18S10925   4.731   4.313  14.024  0.7300  1.1435  2.4280
   8223SM  H18T10926   4.849   4.450  14.012 -1.0735  0.6546 -0.3115
   8223SM  H18U10927   4.905   4.278  14.023 -0.2417  0.4105  1.4569
   8223SM   C1F10928   4.092   4.015  12.381  0.4576 -0.4080 -1.2170
   8223SM    OF10929   4.093   3.905  12.332 -0.2204  0.4350 -0.4194
   8223SM   C2F10930   3.995   4.052  12.503 -0.5372  0.1199  0.3362
   8223SM   H2F10931   3.888   4.027  12.489 -0.8564  0.4622  1.8977
   8223SM   H2G10932   4.007   4.162  12.518 -0.5313  0.2644 -0.6674
   8223SM   C3F10933   4.053   3.981  12.623  0.0361 -0.3558 -0.4306
   8223SM   H3F10934   4.161   3.986  12.646 -0.1283  1.8412  0.1703
   8223SM   H3G10935   4.037   3.872  12.612  2.1851 -1.1847  2.9595
   8223SM   C4F10936   3.985   4.022  12.755  0.1361 -0.1681 -0.0072
   8223SM   H4F10937   3.874   4.015  12.751  0.0192  1.5420 -1.0853
   8223SM   H4G10938   3.986   4.132  12.775 -1.0501 -0.4352  1.8193
   8223SM   C5F10939   4.057   3.960  12.881 -0.3256 -0.2207 -0.1064
   8223SM   H5F10940   4.158   4.007  12.891 -0.5185  0.4333 -1.1270
   8223SM   H5G10941   4.064   3.854  12.850  0.7788  0.3657 -2.0338
   8223SM   C6F10942   3.966   3.962  13.010 -0.1269 -0.2619  0.0375
   8223SM   H6F10943   3.883   3.897  12.975 -0.6292  1.1746 -1.6285
   8223SM   H6G10944   3.929   4.063  13.039 -0.4156 -0.1509 -0.6689
   8223SM   C7F10945   4.031   3.887  13.121 -0.2083  0.2346 -0.0095
   8223SM   H7F10946   4.128   3.940  13.134 -1.2485  3.0714 -2.4669
   8223SM   H7G10947   4.050   3.786  13.081 -2.6913 -0.4369  0.3350
   8223SM   C8F10948   3.952   3.881  13.245  0.3793 -0.1719 -0.0468
   8223SM   H8F10949   3.858   3.824  13.230  0.0758  0.4321 -0.4804
   8223SM   H8G10950   3.909   3.980  13.272  0.9996  0.0039  0.2987
   8223SM   C9F10951   4.038   3.817  13.361 -0.1162  0.1838 -0.2057
   8223SM   H9F10952   4.135   3.869  13.381  0.9714 -2.0626  0.7540
   8223SM   H9G10953   4.061   3.714  13.328 -0.3532  1.2560 -4.3064
   8223SM  C10F10954   3.960   3.811  13.490  0.1057 -0.2257 -0.2439
   8223SM  H10F10955   3.852   3.789  13.474 -0.3573  1.1480  0.7556
   8223SM  H10G10956   3.963   3.910  13.541  0.4485 -0.1416 -0.4285
   8223SM  C11F10957   4.020   3.721  13.602 -0.3677 -0.5653  1.0035
   8223SM  H11F10958   4.123   3.755  13.626 -0.7583  0.7662  0.8821
   8223SM  H11G10959   4.021   3.619  13.560  1.2661 -1.0529  2.1294
   8223SM  C12F10960   3.938   3.715  13.735  0.3823  0.1356 -0.1154
   8223SM  H12F10961   3.835   3.741  13.703 -1.3155 -2.4775  2.6460
   8223SM  H12G10962   3.976   3.791  13.807 -1.8431  0.4696  0.7906
   8223SM  C13F10963   3.926   3.569  13.788  0.1341 -0.1082  0.0928
   8223SM  H13F10964   3.902   3.506  13.700  1.0173 -1.4135  0.7395
   8223SM  H13G10965   3.850   3.576  13.868 -0.7144 -0.5447 -0.6662
   8223SM  C14F10966   4.057   3.508  13.847 -0.2219  0.0674 -0.1744
   8223SM  H14F10967   4.049   3.535  13.954 -1.9690  0.4111 -0.3716
   8223SM  H14G10968   4.145   3.565  13.809 -0.7923  1.2101  0.1947
   8223SM  C15F10969   4.071   3.355  13.831  0.3665 -0.2331 -0.4806
   8223SM  H15F10970   4.180   3.330  13.828  0.3428 -0.3000 -2.5184
   8223SM  H15G10971   4.033   3.334  13.728 -1.0339  0.3461 -0.0957
   8223SM  C16F10972   3.997   3.271  13.933 -0.2455  0.6259 -0.1071
   8223SM  H16F10973   3.889   3.295  13.926 -0.1079  2.1541  1.9401
   8223SM  H16G10974   4.029   3.301  14.035 -0.9991  4.6959 -0.8966
   8223SM  C17F10975   4.011   3.115  13.910  0.8530 -0.1235  0.2491
   8223SM  H17F10976   4.121   3.104  13.921  0.6367 -1.5888  1.1445
   8223SM  H17G10977   3.975   3.079  13.812  1.6142 -1.2775  0.3807
   8223SM  C18F10978   3.974   3.026  14.024  0.5087  0.2922  0.1832
   8223SM  H18F10979   4.031   3.051  14.116 -1.4362  2.5761  0.8749
   8223SM  H18G10980   4.002   2.924  13.989 -0.0733 -0.4486  1.7652
   8223SM  C19F10981   3.818   3.026  14.064 -0.7993  0.4728 -0.2096
   8223SM  H19F10982   3.788   3.132  14.069  2.4989  1.4559  3.1811
   8223SM  H19G10983   3.810   2.977  14.164  0.6079 -1.8479 -1.1392
   8223SM  C20F10984   3.727   2.947  13.971  0.1500  0.1796 -0.5166
   8223SM  H20F10985   3.783   2.856  13.940 -0.1861 -0.2620  0.1636
   8223SM  H20G10986   3.713   3.010  13.881 -0.0716  2.0182  0.7493
   8223SM  C21F10987   3.594   2.906  14.027 -0.2560  0.4745 -0.3630
   8223SM  H21F10988   3.535   2.996  14.055 -0.8504 -0.4170  1.4084
   8223SM  H21G10989   3.608   2.853  14.124  0.7358 -1.2036 -1.3712
   8223SM  C22F10990   3.507   2.826  13.928  0.0504 -0.8656  0.2662
   8223SM  H22F10991   3.405   2.820  13.971  0.2665 -1.8327  0.6957
   8223SM  H22G10992   3.557   2.726  13.924  0.9361 -0.5401  1.9817
   8223SM  C23F10993   3.499   2.866  13.780 -1.1323 -0.3686 -0.3659
   8223SM  H23F10994   3.420   2.800  13.738 -0.2487 -1.6822 -0.0325
   8223SM  H23G10995   3.597   2.860  13.729  0.3111 -0.1560  2.2042
   8223SM  H23H10996   3.466   2.970  13.762  1.7198  1.4359  3.4746
   8323SM     N10997   4.951   3.837  11.796 -0.1822  0.1009 -0.4390
   8323SM   C1510998   4.982   3.984  11.762  0.6453 -0.5566  0.7126
   8323SM  H15A10999   5.084   4.020  11.771 -0.0916  1.8313  0.0393
   8323SM  H15B11000   4.911   4.042  11.818 -0.8221 -0.5821 -1.0147
   8323SM  H15C11001   4.951   4.000  11.660  2.6841 -0.9395 -0.0249
   8323SM   C1411002   4.802   3.815  11.786 -0.6037 -0.2573  0.4282
   8323SM  H14A11003   4.743   3.885  11.844 -1.8196  0.4073 -1.5238
   8323SM  H14B11004   4.779   3.716  11.821 -2.0786 -0.5879 -1.3203
   8323SM  H14C11005   4.773   3.825  11.683  3.3780 -2.0489 -1.0400
   8323SM   C1311006   5.022   3.752  11.704  0.3896  0.6463 -0.6304
   8323SM  H13A11007   4.993   3.779  11.603 -0.1793  0.3363 -0.5500
   8323SM  H13B11008   4.991   3.650  11.721  0.2529  0.1647 -3.3604
   8323SM  H13C11009   5.129   3.763  11.697  0.3310  0.3968 -2.4298
   8323SM   C1211010   4.995   3.810  11.939  0.9662  0.4149  0.1812
   8323SM  H12A11011   4.932   3.862  12.009 -1.1747 -0.8196 -0.7433
   8323SM  H12B11012   5.097   3.844  11.952  0.7057  0.8262  1.2585
   8323SM   C1111013   4.990   3.666  11.994  0.0085  0.4343  0.2355
   8323SM  H11A11014   5.032   3.675  12.097  0.3738 -0.6327  0.1930
   8323SM  H11B11015   5.058   3.608  11.929 -0.5243  0.0473  0.0144
   8323SM     P11016   4.839   3.467  11.961  0.0804  0.6228 -0.3206
   8323SM   O1311017   4.825   3.463  11.819  0.2110 -0.4110  0.0782
   8323SM   O1411018   4.943   3.381  12.020 -0.0463 -0.0156 -0.1645
   8323SM   O1111019   4.694   3.449  12.036  1.3668  0.4961  0.4570
   8323SM   O1211020   4.852   3.621  12.007 -0.2846 -0.2177 -0.2379
   8323SM   C1S11021   4.698   3.414  12.169 -0.7286  0.2554  0.2594
   8323SM   H1S11022   4.794   3.366  12.197 -0.2595  0.1965 -1.3703
   8323SM   H1T11023   4.624   3.331  12.177 -1.4050  0.9161  1.0604
   8323SM    NF11024   4.656   3.465  12.413  0.5564  0.2358  0.3834
   8323SM   HNF11025   4.568   3.426  12.439  0.3268  0.5147  0.0364
   8323SM   C2S11026   4.661   3.522  12.277  0.2549 -0.5403  0.1915
   8323SM   H2S11027   4.739   3.601  12.281 -0.0751 -0.1749 -0.4034
   8323SM   C3S11028   4.534   3.600  12.238  0.3377  0.3915  0.4945
   8323SM   H3S11029   4.453   3.527  12.214  1.2389 -0.0740 -1.2722
   8323SM    O311030   4.548   3.677  12.116  0.2297  0.1707 -0.0874
   8323SM   HO311031   4.626   3.637  12.076 -0.7341 -1.5687 -0.3457
   8323SM   C4S11032   4.483   3.691  12.344 -0.5954 -0.1002  0.4591
   8323SM   H4S11033   4.542   3.784  12.355  0.0120 -0.4300  0.0632
   8323SM   C5S11034   4.376   3.669  12.424  0.1014 -0.2686 -0.3464
   8323SM   H5S11035   4.304   3.596  12.384  0.9910 -1.2200 -0.2454
   8323SM   C6S11036   4.327   3.771  12.526  0.3643  0.1467  0.2283
   8323SM   H6S11037   4.217   3.760  12.535  0.2956 -0.5189 -1.1485
   8323SM   H6T11038   4.347   3.868  12.475 -1.5371  0.4637 -0.0006
   8323SM   C7S11039   4.400   3.771  12.661 -0.1556  0.3898  0.4157
   8323SM   H7S11040   4.355   3.849  12.726  1.4370  1.1037  0.6943
   8323SM   H7T11041   4.506   3.798  12.645 -0.0474  1.6281  2.7599
   8323SM   C8S11042   4.400   3.639  12.747 -0.1596  0.0478  0.0815
   8323SM   H8S11043   4.445   3.553  12.693  0.6034  1.4798 -1.6861
   8323SM   H8T11044   4.294   3.610  12.764 -0.9605  2.2812 -0.7058
   8323SM   C9S11045   4.456   3.648  12.883  0.4906 -0.1110  0.3377
   8323SM   H9S11046   4.558   3.688  12.869 -0.2779  2.1840  0.8786
   8323SM   H9T11047   4.456   3.552  12.938 -0.3859  0.2738  1.0374
   8323SM  C10S11048   4.379   3.747  12.970 -0.3425 -0.7141 -0.1525
   8323SM  H10S11049   4.271   3.727  12.950 -0.8424  1.6011 -0.0991
   8323SM  H10T11050   4.394   3.853  12.943 -0.5497 -0.2407  1.4583
   8323SM  C11S11051   4.388   3.725  13.115 -0.6766 -0.3398 -0.7954
   8323SM  H11S11052   4.361   3.623  13.149 -0.4094 -0.4419 -0.8931
   8323SM  H11T11053   4.315   3.785  13.175  0.7410 -1.1673  1.9002
   8323SM  C12S11054   4.528   3.760  13.177 -0.0217  0.2985  0.2799
   8323SM  H12S11055   4.561   3.855  13.131  1.5768 -1.0987 -1.6435
   8323SM  H12T11056   4.586   3.679  13.128  0.0021  0.6796 -0.3221
   8323SM  C13S11057   4.545   3.759  13.324 -0.8425  0.3566  0.7301
   8323SM  H13S11058   4.648   3.774  13.363 -0.1916 -0.8612 -0.4134
   8323SM  H13T11059   4.510   3.661  13.363  0.3478 -0.1738  0.5097
   8323SM  C14S11060   4.447   3.857  13.388  0.5200  0.2192  0.4330
   8323SM  H14S11061   4.342   3.824  13.370  0.5633  1.3491 -2.3563
   8323SM  H14T11062   4.459   3.949  13.328  0.1814 -0.6503 -1.0257
   8323SM  C15S11063   4.467   3.887  13.537 -0.5047 -0.8578  1.1356
   8323SM  H15S11064   4.568   3.930  13.551 -0.5258  0.9269 -2.9740
   8323SM  H15T11065   4.463   3.789  13.590  1.2015 -0.4940  2.0303
   8323SM  C16S11066   4.364   3.991  13.592 -0.2670  0.0890 -0.2393
   8323SM  H16S11067   4.260   3.950  13.592  0.1457 -1.0386 -1.3287
   8323SM  H16T11068   4.385   4.076  13.524 -2.0853  1.4803  0.8410
   8323SM  C17S11069   4.393   4.041  13.737  0.1169 -0.1839 -0.3760
   8323SM  H17S11070   4.326   4.128  13.752 -1.2682 -1.2636 -0.0834
   8323SM  H17T11071   4.494   4.086  13.745 -1.1105  2.6307  0.3490
   8323SM  C18S11072   4.350   3.940  13.847  0.4740 -0.0038  0.5170
   8323SM  H18S11073   4.243   3.913  13.856  1.0256 -2.4951  0.2745
   8323SM  H18T11074   4.394   3.980  13.941 -0.2700 -1.0834  1.3417
   8323SM  H18U11075   4.394   3.840  13.828  0.8978  0.3090 -0.2275
   8323SM   C1F11076   4.765   3.423  12.484  0.3861 -0.7408  0.2083
   8323SM    OF11077   4.880   3.449  12.452  0.0379 -0.8075 -0.1687
   8323SM   C2F11078   4.736   3.350  12.617  0.4210 -0.5228  0.1117
   8323SM   H2F11079   4.780   3.248  12.614 -0.0139 -0.6858 -1.0125
   8323SM   H2G11080   4.629   3.322  12.625  1.4473 -6.1648 -1.4244
   8323SM   C3F11081   4.791   3.432  12.732  0.1993  0.7476  0.3749
   8323SM   H3F11082   4.753   3.535  12.715 -1.6251  0.4913  2.4622
   8323SM   H3G11083   4.901   3.427  12.723 -0.0083 -0.6482 -3.3668
   8323SM   C4F11084   4.743   3.376  12.866  0.2015 -0.4201  0.1357
   8323SM   H4F11085   4.769   3.270  12.885 -1.0749 -0.5186  1.5842
   8323SM   H4G11086   4.633   3.372  12.881  0.1362 -2.0421 -0.5463
   8323SM   C5F11087   4.801   3.452  12.990 -0.1222 -0.6487 -0.1595
   8323SM   H5F11088   4.756   3.553  12.996 -1.7632 -1.3613  0.0251
   8323SM   H5G11089   4.908   3.473  12.968 -0.6054  0.7062 -1.3796
   8323SM   C6F11090   4.771   3.374  13.116 -0.6377 -0.0021  0.4097
   8323SM   H6F11091   4.810   3.271  13.110 -0.7700  0.0045 -1.0820
   8323SM   H6G11092   4.660   3.373  13.125 -0.7033  0.9436 -0.0751
   8323SM   C7F11093   4.816   3.449  13.248  0.7933 -0.1066  0.3217
   8323SM   H7F11094   4.803   3.557  13.224  0.6865 -0.4745 -1.4125
   8323SM   H7G11095   4.923   3.429  13.269  0.1415 -4.1921  0.4786
   8323SM   C8F11096   4.733   3.431  13.375 -0.2127  0.3028 -0.1009
   8323SM   H8F11097   4.726   3.322  13.398 -2.0392  0.6316  1.1271
   8323SM   H8G11098   4.632   3.473  13.357  0.1770  0.9487 -0.7679
   8323SM   C9F11099   4.804   3.490  13.495 -0.5144 -0.5728  0.5916
   8323SM   H9F11100   4.782   3.596  13.470 -3.4682 -1.7947 -2.7527
   8323SM   H9G11101   4.913   3.467  13.489 -0.3304 -0.0192  1.6032
   8323SM  C10F11102   4.742   3.454  13.627 -0.0915  0.2064 -0.4830
   8323SM  H10F11103   4.773   3.348  13.642 -0.3738  0.3715  1.4778
   8323SM  H10G11104   4.631   3.464  13.627 -0.0741  0.5949  0.9087
   8323SM  C11F11105   4.794   3.561  13.724  0.1028  0.5677  1.0485
   8323SM  H11F11106   4.789   3.669  13.696  1.5021  1.1330  2.7779
   8323SM  H11G11107   4.903   3.540  13.733 -0.0200 -2.1566 -2.0961
   8323SM  C12F11108   4.735   3.562  13.868  0.2284  0.1446  0.3079
   8323SM  H12F11109   4.808   3.623  13.924  0.1306  2.5103 -1.9289
   8323SM  H12G11110   4.726   3.458  13.907 -0.5696 -0.2128 -0.7619
   8323SM  C13F11111   4.601   3.628  13.883 -0.1650  0.4729 -0.0223
   8323SM  H13F11112   4.542   3.593  13.794  0.1127 -1.7607  0.5987
   8323SM  H13G11113   4.619   3.735  13.859 -2.5703  0.3480 -3.0418
   8323SM  C14F11114   4.540   3.607  14.024  0.1515  0.9282  0.7791
   8323SM  H14F11115   4.528   3.497  14.039  0.6103  0.6345 -0.8191
   8323SM  H14G11116   4.440   3.652  14.035 -1.3547 -1.7733 -0.8605
   8323SM  C15F11117   4.626   3.666  14.139  0.0222 -0.3587  0.1902
   8323SM  H15F11118   4.729   3.624  14.136 -0.3888 -1.3819  0.1182
   8323SM  H15G11119   4.590   3.627  14.237 -1.6731  0.1284 -0.2055
   8323SM  C16F11120   4.615   3.821  14.151 -0.3553 -0.1403  0.3321
   8323SM  H16F11121   4.526   3.849  14.211 -1.3947 -0.3742 -1.0260
   8323SM  H16G11122   4.598   3.870  14.052 -0.4186  0.8399  0.8200
   8323SM  C17F11123   4.743   3.888  14.208 -0.2377 -0.0321  0.0842
   8323SM  H17F11124   4.836   3.854  14.157  1.6108  1.4073  2.3301
   8323SM  H17G11125   4.757   3.844  14.309 -0.0551 -2.9096 -1.1050
   8323SM  C18F11126   4.733   4.037  14.211 -0.7038 -0.0623 -0.2413
   8323SM  H18F11127   4.641   4.044  14.273 -0.9680  0.0450 -0.6391
   8323SM  H18G11128   4.720   4.079  14.109 -0.0541  0.3160 -0.1741
   8323SM  C19F11129   4.836   4.115  14.294  0.4917 -0.8232 -0.2797
   8323SM  H19F11130   4.830   4.226  14.282  1.2652 -0.6626  0.6728
   8323SM  H19G11131   4.936   4.100  14.249  0.8406 -0.2732  0.3032
   8323SM  C20F11132   4.840   4.086  14.447 -0.5371 -0.1346  0.9089
   8323SM  H20F11133   4.869   3.980  14.455  0.0964 -0.2956 -2.1445
   8323SM  H20G11134   4.735   4.086  14.485 -1.1772 -1.5915 -0.7159
   8323SM  C21F11135   4.918   4.190  14.532  0.0329  0.1445  0.4230
   8323SM  H21F11136   4.891   4.290  14.494  1.3649 -0.3968 -2.2037
   8323SM  H21G11137   5.028   4.175  14.519  0.3768  1.2583  1.7764
   8323SM  C22F11138   4.894   4.181  14.688  0.8047 -0.1714  0.0582
   8323SM  H22F11139   4.790   4.202  14.720  0.1001  0.9547 -2.6821
   8323SM  H22G11140   4.950   4.261  14.741  1.1585  0.6309 -1.4830
   8323SM  C23F11141   4.933   4.047  14.745 -0.0300  0.1874 -0.1794
   8323SM  H23F11142   4.934   4.046  14.856 -0.0937 -0.5677 -0.1877
   8323SM  H23G11143   5.031   4.023  14.698 -0.4817  1.0615 -1.6641
   8323SM  H23H11144   4.860   3.972  14.709  0.7332 -1.7244  2.0407
   8423SM     N11145   4.942   2.310  11.576  0.3603  0.2157  0.2445
   8423SM   C1511146   4.871   2.265  11.446 -1.1380  0.8401 -0.4437
   8423SM  H15A11147   4.772   2.225  11.465  0.2609 -2.7870  0.0095
   8423SM  H15B11148   4.926   2.185  11.399  0.2091 -0.8246  3.5569
   8423SM  H15C11149   4.863   2.348  11.376 -0.1611  0.5086 -0.9656
   8423SM   C1411150   5.074   2.368  11.543  0.3222  0.6453 -0.9801
   8423SM  H14A11151   5.137   2.365  11.631 -1.9191 -0.7478  0.6651
   8423SM  H14B11152   5.064   2.463  11.493 -0.6872  0.7165 -0.6484
   8423SM  H14C11153   5.123   2.295  11.480 -1.2984 -0.1271 -1.3747
   8423SM   C1311154   4.850   2.411  11.634  0.6298  0.1415 -0.2460
   8423SM  H13A11155   4.764   2.362  11.675  0.2480 -0.1395 -1.3325
   8423SM  H13B11156   4.816   2.481  11.559  0.8509  0.1436 -0.3459
   8423SM  H13C11157   4.897   2.464  11.715 -0.0003  1.6524 -0.8293
   8423SM   C1211158   4.966   2.190  11.666  0.5449  0.0955  0.2592
   8423SM  H12A11159   5.002   2.221  11.763 -0.2128  1.2508  0.1810
   8423SM  H12B11160   5.048   2.132  11.625  0.3927 -1.0379  1.4676
   8423SM   C1111161   4.841   2.105  11.694  0.0232  0.8185 -0.0863
   8423SM  H11A11162   4.876   2.012  11.743 -0.6986  0.0212 -1.0397
   8423SM  H11B11163   4.797   2.076  11.597 -1.5064  0.8219  0.5830
   8423SM     P11164   4.625   2.108  11.829 -0.0818  0.2090 -0.1263
   8423SM   O1311165   4.549   2.199  11.911  0.0070 -0.6353  0.2767
   8423SM   O1411166   4.559   2.052  11.712 -0.1741  0.2158 -0.2006
   8423SM   O1111167   4.678   1.994  11.920 -0.0896 -0.5541  0.1278
   8423SM   O1211168   4.752   2.181  11.779  0.3057  0.4774  0.1248
   8423SM   C1S11169   4.785   2.016  12.016 -0.5753  0.7538  0.2533
   8423SM   H1S11170   4.828   2.117  12.004 -0.4960  0.6138 -0.7146
   8423SM   H1T11171   4.871   1.946  12.008  0.5681  2.3218 -2.2349
   8423SM    NF11172   4.851   2.053  12.248 -0.1736  0.3855 -0.4036
   8423SM   HNF11173   4.919   1.987  12.279  1.5185  1.1527 -2.3017
   8423SM   C2S11174   4.739   2.014  12.163  0.1358  0.5615 -0.4480
   8423SM   H2S11175   4.654   2.085  12.173 -1.9559 -2.0144  1.5545
   8423SM   C3S11176   4.680   1.881  12.213  0.0266  0.4761 -0.2718
   8423SM   H3S11177   4.747   1.799  12.181 -2.3800 -1.2804 -1.0896
   8423SM    O311178   4.554   1.841  12.147 -0.1641 -0.0136 -0.0134
   8423SM   HO311179   4.544   1.917  12.090  1.5865  0.3342  0.0709
   8423SM   C4S11180   4.653   1.894  12.357 -0.3884  1.0253 -0.1061
   8423SM   H4S11181   4.576   1.970  12.373 -1.7966 -0.1035 -1.2396
   8423SM   C5S11182   4.711   1.829  12.461  0.3033 -0.0045 -0.6622
   8423SM   H5S11183   4.787   1.751  12.444 -0.1706  0.0614 -3.6064
   8423SM   C6S11184   4.670   1.867  12.601 -0.2054  0.2099 -0.0588
   8423SM   H6S11185   4.572   1.817  12.620  1.1014 -2.5193  0.0377
   8423SM   H6T11186   4.666   1.977  12.609  1.0316  0.3477 -1.0977
   8423SM   C7S11187   4.758   1.824  12.713 -0.0474 -0.8822 -0.3728
   8423SM   H7S11188   4.853   1.880  12.698 -0.3337  0.5620  2.4382
   8423SM   H7T11189   4.778   1.715  12.700  0.8182 -0.5722 -1.8189
   8423SM   C8S11190   4.702   1.858  12.853  0.1538 -0.3456  0.1435
   8423SM   H8S11191   4.606   1.806  12.872 -0.3208  0.7429  0.7945
   8423SM   H8T11192   4.685   1.967  12.851 -0.7603 -0.4922 -0.6753
   8423SM   C9S11193   4.790   1.805  12.959 -0.0143 -0.1635  1.1965
   8423SM   H9S11194   4.890   1.846  12.933 -0.1569  0.6645  1.9306
   8423SM   H9T11195   4.805   1.695  12.947 -0.9043 -0.2386  0.6541
   8423SM  C10S11196   4.752   1.837  13.106 -0.2347 -0.2379 -0.1096
   8423SM  H10S11197   4.654   1.787  13.124 -1.1960  1.8886  1.0123
   8423SM  H10T11198   4.728   1.944  13.123 -0.3440 -0.0437 -1.4155
   8423SM  C11S11199   4.859   1.778  13.204 -0.1074 -0.7400 -0.3878
   8423SM  H11S11200   4.961   1.805  13.170  0.8210 -2.3996  0.9073
   8423SM  H11T11201   4.853   1.667  13.202  0.8201 -1.0040  3.6752
   8423SM  C12S11202   4.831   1.818  13.358  0.1967 -0.2286  0.8861
   8423SM  H12S11203   4.725   1.790  13.377  0.5188 -0.4688  2.4411
   8423SM  H12T11204   4.842   1.928  13.364 -2.1220  0.0653  0.7479
   8423SM  C13S11205   4.915   1.752  13.468 -0.4104  0.0384  0.5479
   8423SM  H13S11206   5.013   1.763  13.417 -0.3263  0.4037  0.7832
   8423SM  H13T11207   4.908   1.642  13.480  0.1465 -0.0842 -0.1539
   8423SM  C14S11208   4.909   1.819  13.604 -1.0271 -0.2799 -0.0495
   8423SM  H14S11209   4.922   1.929  13.602 -1.7088 -0.0722  2.6857
   8423SM  H14T11210   4.997   1.777  13.657  0.4567  2.4238 -0.2040
   8423SM  C15S11211   4.783   1.775  13.672  0.3740  0.1523 -0.7798
   8423SM  H15S11212   4.769   1.664  13.676 -5.0172  0.5895 -0.1700
   8423SM  H15T11213   4.701   1.808  13.605  0.6461 -0.3261 -1.3619
   8423SM  C16S11214   4.768   1.839  13.809  0.7902  0.1230  0.3357
   8423SM  H16S11215   4.758   1.948  13.794 -1.9295 -0.0506  0.3539
   8423SM  H16T11216   4.857   1.819  13.872  0.5315  0.5919  0.8494
   8423SM  C17S11217   4.637   1.791  13.879  0.3305 -1.1456 -0.0350
   8423SM  H17S11218   4.640   1.680  13.877 -1.0297 -1.3202  2.5602
   8423SM  H17T11219   4.550   1.825  13.819 -0.1975  1.7360  2.1502
   8423SM  C18S11220   4.615   1.858  14.015 -0.3066 -0.2117  0.6702
   8423SM  H18S11221   4.592   1.967  14.019 -0.8971 -0.1277 -2.5578
   8423SM  H18T11222   4.699   1.844  14.087 -0.7000  2.2049  1.7085
   8423SM  H18U11223   4.530   1.808  14.067 -0.8964  0.1402  0.0558
   8423SM   C1F11224   4.893   2.174  12.251 -0.2958 -0.0234  0.6505
   8423SM    OF11225   4.838   2.263  12.188 -0.0917  0.0292  0.0319
   8423SM   C2F11226   5.022   2.199  12.326 -0.8291 -0.1801 -1.2109
   8423SM   H2F11227   5.023   2.307  12.350  1.5438 -0.6516  1.2672
   8423SM   H2G11228   5.108   2.162  12.266  2.7054  2.4812  1.7298
   8423SM   C3F11229   5.025   2.118  12.457  0.3423 -0.2191 -0.0902
   8423SM   H3F11230   4.997   2.011  12.446  0.7965 -0.1177 -2.6801
   8423SM   H3G11231   4.948   2.161  12.525  2.0214  0.8622  1.2272
   8423SM   C4F11232   5.161   2.133  12.531  0.2628  0.3069  0.0887
   8423SM   H4F11233   5.166   2.243  12.544 -3.8402  0.6633  0.0354
   8423SM   H4G11234   5.244   2.100  12.466  1.2836  0.3875  1.3279
   8423SM   C5F11235   5.168   2.058  12.673  0.1500 -0.2286  0.1127
   8423SM   H5F11236   5.085   2.087  12.740 -0.0837  1.1753 -0.7508
   8423SM   H5G11237   5.259   2.109  12.712  1.3224 -2.0018 -0.1834
   8423SM   C6F11238   5.172   1.907  12.668 -0.6695  0.2066  0.4229
   8423SM   H6F11239   5.261   1.881  12.608 -0.3448 -0.4257  1.1641
   8423SM   H6G11240   5.081   1.875  12.614 -0.3146 -1.1144  0.5788
   8423SM   C7F11241   5.178   1.833  12.797  0.5024 -0.1965 -0.3148
   8423SM   H7F11242   5.167   1.723  12.784 -0.7827 -0.0423 -0.7041
   8423SM   H7G11243   5.084   1.864  12.849  0.7883  1.5433 -0.7662
   8423SM   C8F11244   5.307   1.855  12.888  0.1059  0.1027  0.4593
   8423SM   H8F11245   5.314   1.965  12.906  0.0951 -0.0548  1.5004
   8423SM   H8G11246   5.394   1.820  12.830  0.2688  1.4841 -0.1775
   8423SM   C9F11247   5.299   1.807  13.032  0.2013 -0.9198  0.4670
   8423SM   H9F11248   5.217   1.862  13.083 -0.2658  0.9602 -2.1016
   8423SM   H9G11249   5.395   1.841  13.075  1.5806 -0.6320 -2.6309
   8423SM  C10F11250   5.264   1.658  13.058 -0.0599 -0.4273  0.2147
   8423SM  H10F11251   5.361   1.607  13.039  0.0410  0.8619 -3.4476
   8423SM  H10G11252   5.190   1.631  12.979 -1.9272  1.5429  1.1902
   8423SM  C11F11253   5.222   1.623  13.203 -0.4910  0.2388  0.0646
   8423SM  H11F11254   5.114   1.596  13.201 -0.0249 -1.7780 -1.8990
   8423SM  H11G11255   5.233   1.711  13.270 -1.7761 -0.4763  1.2660
   8423SM  C12F11256   5.312   1.520  13.274 -0.1291 -0.1521 -0.2317
   8423SM  H12F11257   5.381   1.577  13.341 -0.0169 -0.1554 -0.3434
   8423SM  H12G11258   5.376   1.471  13.198  1.7600  1.2352  0.3668
   8423SM  C13F11259   5.239   1.410  13.352  0.5217  0.6038  0.0136
   8423SM  H13F11260   5.310   1.342  13.403 -1.4001  0.3110  2.4980
   8423SM  H13G11261   5.182   1.347  13.280 -1.1835  2.8663 -0.7858
   8423SM  C14F11262   5.152   1.470  13.469  0.1151 -0.5270 -0.5455
   8423SM  H14F11263   5.047   1.479  13.435  0.8669  3.6931 -2.3601
   8423SM  H14G11264   5.181   1.573  13.496  0.7955 -0.0697 -2.7991
   8423SM  C15F11265   5.168   1.377  13.594 -0.1765  0.2561 -0.9202
   8423SM  H15F11266   5.273   1.365  13.626 -1.0614 -1.5788  1.6556
   8423SM  H15G11267   5.134   1.273  13.571 -1.5329 -0.0411  1.9577
   8423SM  C16F11268   5.098   1.416  13.723 -0.0631 -0.8977 -0.4489
   8423SM  H16F11269   5.097   1.334  13.798  1.7331 -0.0107  0.6254
   8423SM  H16G11270   4.995   1.448  13.694  0.5310  0.7514 -0.8637
   8423SM  C17F11271   5.181   1.530  13.781  0.0812 -0.4206  0.4213
   8423SM  H17F11272   5.199   1.615  13.712 -0.9133  3.0640  4.0203
   8423SM  H17G11273   5.268   1.485  13.834  0.7455 -1.1244 -1.2104
   8423SM  C18F11274   5.086   1.619  13.889 -0.4183  0.6191  0.4931
   8423SM  H18F11275   5.005   1.652  13.820  0.5538  0.5502 -0.7231
   8423SM  H18G11276   5.150   1.701  13.927 -0.2084  0.0091  1.4660
   8423SM  C19F11277   5.018   1.539  14.002  0.4814  0.2902  0.8202
   8423SM  H19F11278   4.947   1.465  13.960  1.1933 -0.2466  0.5361
   8423SM  H19G11279   4.956   1.610  14.061 -1.0830 -0.7781  0.5171
   8423SM  C20F11280   5.118   1.469  14.098  0.3303 -0.2619  0.1006
   8423SM  H20F11281   5.169   1.390  14.038 -0.2502 -0.7329  0.2169
   8423SM  H20G11282   5.056   1.408  14.166  2.0522 -1.1241  0.9623
   8423SM  C21F11283   5.216   1.565  14.173  0.3754 -0.0963 -0.3469
   8423SM  H21F11284   5.148   1.634  14.229  0.6929 -0.8285  0.9906
   8423SM  H21G11285   5.263   1.631  14.098  1.3412 -0.5725 -0.1668
   8423SM  C22F11286   5.315   1.501  14.264 -0.2336 -0.3356 -0.1546
   8423SM  H22F11287   5.381   1.429  14.210 -0.7775 -1.9313  1.2037
   8423SM  H22G11288   5.252   1.444  14.336 -2.5598  0.4945 -1.4293
   8423SM  C23F11289   5.406   1.596  14.350  0.4976 -0.2824 -0.8407
   8423SM  H23F11290   5.481   1.639  14.280  1.6047 -3.1395 -1.5563
   8423SM  H23G11291   5.467   1.532  14.417  0.8151  1.0848  0.2192
   8423SM  H23H11292   5.350   1.676  14.404  0.2065 -0.9498 -0.1448
   8523SM     N11293   6.103   4.201  11.931 -0.2300 -0.3070  0.1707
   8523SM   C1511294   6.212   4.288  11.875 -0.5867  0.3270 -0.1084
   8523SM  H15A11295   6.188   4.358  11.797  0.0725  0.6508 -0.0316
   8523SM  H15B11296   6.303   4.235  11.850 -0.0896  1.6841 -1.2845
   8523SM  H15C11297   6.238   4.358  11.954 -2.0502 -1.0800  1.7233
   8523SM   C1411298   6.069   4.099  11.828  0.6042  0.2437  0.2900
   8523SM  H14A11299   6.019   4.015  11.873  0.7846  0.2656  0.5363
   8523SM  H14B11300   6.160   4.060  11.784  0.4887 -0.0377  0.3012
   8523SM  H14C11301   6.002   4.139  11.754  0.5140  0.1899  0.3421
   8523SM   C1311302   6.150   4.125  12.044 -0.4914 -0.2246 -1.0591
   8523SM  H13A11303   6.231   4.058  12.023  0.2112  1.3330 -3.6934
   8523SM  H13B11304   6.071   4.056  12.071 -0.4661 -0.8776 -2.5894
   8523SM  H13C11305   6.169   4.181  12.135 -0.3229 -1.4733 -0.3026
   8523SM   C1211306   5.975   4.282  11.960  0.5581 -0.2366 -0.1393
   8523SM  H12A11307   6.001   4.356  12.033 -0.2607  0.4323 -0.5102
   8523SM  H12B11308   5.899   4.225  12.011  1.5642 -0.8372  0.7259
   8523SM   C1111309   5.916   4.358  11.836 -0.6575 -0.2406  1.3770
   8523SM  H11A11310   5.993   4.419  11.785 -1.2676 -0.7396 -0.2048
   8523SM  H11B11311   5.832   4.425  11.865 -2.3430 -1.5561 -0.2726
   8523SM     P11312   5.724   4.194  11.748  0.2065 -0.0184 -0.7539
   8523SM   O1311313   5.609   4.277  11.699  0.1471  0.2239 -0.0034
   8523SM   O1411314   5.744   4.061  11.697  0.1748  0.3048 -0.2424
   8523SM   O1111315   5.706   4.182  11.909 -0.1936  0.4022 -0.2176
   8523SM   O1211316   5.859   4.272  11.733 -0.0859  0.0345 -0.1512
   8523SM   C1S11317   5.656   4.051  11.959 -0.2628 -0.1537 -0.3980
   8523SM   H1S11318   5.740   3.979  11.964 -0.2065 -0.2705 -2.3820
   8523SM   H1T11319   5.575   4.010  11.895 -1.0367 -1.2203  1.2160
   8523SM    NF11320   5.574   3.925  12.156  0.5061  0.1376 -0.6177
   8523SM   HNF11321   5.481   3.891  12.165 -0.0832  1.0805 -2.6669
   8523SM   C2S11322   5.604   4.058  12.104  0.3011 -0.1541 -0.0522
   8523SM   H2S11323   5.683   4.110  12.162 -1.7514  1.4259  1.4695
   8523SM   C3S11324   5.484   4.154  12.107  0.2587 -0.0441 -0.1056
   8523SM   H3S11325   5.404   4.118  12.037  0.6165  0.5448 -0.8291
   8523SM    O311326   5.508   4.286  12.055 -0.3272 -0.1758 -0.1162
   8523SM   HO311327   5.580   4.275  11.993 -1.6739  0.5178 -1.8831
   8523SM   C4S11328   5.430   4.159  12.246  0.9868  0.2978 -0.7352
   8523SM   H4S11329   5.380   4.064  12.269 -0.2875  0.9918 -0.5697
   8523SM   C5S11330   5.447   4.248  12.344  1.2191 -0.5356 -0.5088
   8523SM   H5S11331   5.509   4.336  12.323  1.1762 -0.9060 -2.2951
   8523SM   C6S11332   5.393   4.230  12.483  0.9556 -0.6751  0.9333
   8523SM   H6S11333   5.335   4.136  12.494  1.0444 -0.7922  0.4308
   8523SM   H6T11334   5.324   4.314  12.506  1.2562 -0.0260 -0.4195
   8523SM   C7S11335   5.508   4.236  12.589 -0.0059  0.3128 -0.2636
   8523SM   H7S11336   5.558   4.335  12.585  0.0446  0.3564  1.1096
   8523SM   H7T11337   5.585   4.162  12.558  1.1572  0.3387  2.3393
   8523SM   C8S11338   5.463   4.215  12.734 -0.2013 -0.1224  0.0998
   8523SM   H8S11339   5.441   4.107  12.748  1.1433 -0.4669 -0.2100
   8523SM   H8T11340   5.363   4.263  12.734 -0.4623 -0.6639  0.2092
   8523SM   C9S11341   5.569   4.272  12.831  0.3714 -0.0730 -0.4112
   8523SM   H9S11342   5.599   4.373  12.796  0.0630 -0.0377 -0.5795
   8523SM   H9T11343   5.663   4.213  12.827  0.7078  0.4214  0.0263
   8523SM  C10S11344   5.516   4.271  12.977 -0.0682  0.5129  0.9179
   8523SM  H10S11345   5.492   4.167  13.008 -0.9442  0.5538  0.4213
   8523SM  H10T11346   5.421   4.328  12.990  1.7000  4.4044 -1.2430
   8523SM  C11S11347   5.619   4.309  13.086  0.0929 -0.1672 -0.0079
   8523SM  H11S11348   5.657   4.409  13.058 -1.6597  0.4515 -0.3232
   8523SM  H11T11349   5.697   4.230  13.090  1.3611  1.0564 -0.1190
   8523SM  C12S11350   5.562   4.325  13.236  0.0817  0.2090 -0.6690
   8523SM  H12S11351   5.536   4.221  13.267 -2.3881  0.9812 -0.0089
   8523SM  H12T11352   5.475   4.393  13.238  0.3979  0.6089 -0.3369
   8523SM  C13S11353   5.673   4.377  13.340  0.5038 -0.8887  0.0396
   8523SM  H13S11354   5.711   4.469  13.291 -0.2194  0.5231  2.0406
   8523SM  H13T11355   5.755   4.303  13.335  0.8907 -0.4190 -1.0024
   8523SM  C14S11356   5.619   4.406  13.478  0.0495 -0.1546  0.4083
   8523SM  H14S11357   5.558   4.498  13.465  0.6533 -0.0851 -2.7180
   8523SM  H14T11358   5.706   4.432  13.542  0.1740  3.3107 -0.9584
   8523SM  C15S11359   5.543   4.295  13.551 -0.1625 -0.6562  0.1054
   8523SM  H15S11360   5.604   4.204  13.531  1.2717  0.3652 -0.3676
   8523SM  H15T11361   5.441   4.286  13.509 -0.5425  0.9268  0.6228
   8523SM  C16S11362   5.535   4.327  13.703 -0.4348 -0.4006 -0.2897
   8523SM  H16S11363   5.458   4.402  13.733  0.2289 -0.4539  1.7098
   8523SM  H16T11364   5.631   4.374  13.734  0.3121 -2.5516  0.8101
   8523SM  C17S11365   5.523   4.202  13.796  0.2158  0.2392 -0.2283
   8523SM  H17S11366   5.618   4.150  13.817  1.2861  2.0606 -0.3387
   8523SM  H17T11367   5.460   4.123  13.749  0.2366  0.2227 -0.2280
   8523SM  C18S11368   5.475   4.246  13.939 -0.1933 -0.0042 -0.4393
   8523SM  H18S11369   5.488   4.158  14.007  0.1039  0.9369  0.7594
   8523SM  H18T11370   5.372   4.286  13.953 -0.9440 -1.7139 -0.8223
   8523SM  H18U11371   5.543   4.324  13.981  1.7729 -1.2446 -1.1934
   8523SM   C1F11372   5.668   3.835  12.192 -0.7794  0.3426 -0.5164
   8523SM    OF11373   5.790   3.859  12.178 -0.3376 -0.0978  0.0571
   8523SM   C2F11374   5.612   3.717  12.262 -0.1746 -0.1072 -0.1906
   8523SM   H2F11375   5.666   3.626  12.229  1.6395  0.3435  1.3448
   8523SM   H2G11376   5.507   3.706  12.228 -0.4473 -2.8422  1.2632
   8523SM   C3F11377   5.605   3.739  12.419  0.1131 -0.7969  0.0343
   8523SM   H3F11378   5.709   3.757  12.454 -1.1232  2.6438  2.5012
   8523SM   H3G11379   5.566   3.644  12.461  0.6261 -1.7646 -1.5638
   8523SM   C4F11380   5.514   3.862  12.458  0.4149 -1.3515  0.0281
   8523SM   H4F11381   5.418   3.868  12.402  0.1068  0.1328  0.6557
   8523SM   H4G11382   5.558   3.964  12.454  0.3980 -1.3336  0.3003
   8523SM   C5F11383   5.461   3.855  12.606  0.1847  0.2181  0.0218
   8523SM   H5F11384   5.388   3.772  12.607  0.9399 -0.4767 -0.7932
   8523SM   H5G11385   5.406   3.950  12.625 -0.0664  0.0269  0.2583
   8523SM   C6F11386   5.563   3.813  12.707 -0.3462  0.1314  0.3214
   8523SM   H6F11387   5.641   3.893  12.702  1.4916 -1.5464  0.6463
   8523SM   H6G11388   5.615   3.717  12.688 -0.6036  0.0024  0.2702
   8523SM   C7F11389   5.522   3.827  12.851  0.3954 -0.8072  0.0396
   8523SM   H7F11390   5.453   3.748  12.887  0.3931 -0.3971  0.9450
   8523SM   H7G11391   5.479   3.929  12.860  0.2679 -0.7713 -0.8375
   8523SM   C8F11392   5.642   3.823  12.942 -0.1903  0.2436  0.2108
   8523SM   H8F11393   5.731   3.866  12.892  2.3219 -2.3349  2.1736
   8523SM   H8G11394   5.672   3.717  12.953 -0.5245  0.0255 -0.8905
   8523SM   C9F11395   5.644   3.902  13.073 -0.0118 -0.1713 -0.5271
   8523SM   H9F11396   5.626   4.003  13.030 -0.3555 -1.2695 -3.1635
   8523SM   H9G11397   5.741   3.899  13.127 -0.0576  1.7155 -0.2605
   8523SM  C10F11398   5.541   3.859  13.174 -0.0571 -0.4938  0.1405
   8523SM  H10F11399   5.446   3.838  13.121  0.3468  1.1995 -1.3678
   8523SM  H10G11400   5.528   3.949  13.238 -0.2521  0.3410 -1.0360
   8523SM  C11F11401   5.584   3.734  13.248  0.4659 -0.7888  0.3194
   8523SM  H11F11402   5.686   3.741  13.293  0.0806  1.5923  0.9807
   8523SM  H11G11403   5.581   3.660  13.166  0.7034  1.7661 -2.1480
   8523SM  C12F11404   5.478   3.693  13.350  0.2891  0.1632 -0.1352
   8523SM  H12F11405   5.377   3.701  13.303  1.1058  1.3098 -1.7791
   8523SM  H12G11406   5.458   3.765  13.432 -0.0417 -0.5792  0.4574
   8523SM  C13F11407   5.500   3.558  13.402 -0.0936 -0.1519 -0.5581
   8523SM  H13F11408   5.594   3.553  13.460  1.0625 -2.8964 -2.4446
   8523SM  H13G11409   5.522   3.503  13.308  0.6030  3.1576 -2.4653
   8523SM  C14F11410   5.378   3.493  13.478 -0.5975 -0.4213 -0.1480
   8523SM  H14F11411   5.400   3.387  13.502  1.2673 -0.9753 -3.6619
   8523SM  H14G11412   5.305   3.499  13.394 -0.6440 -0.2778 -0.0960
   8523SM  C15F11413   5.312   3.571  13.598  0.1104 -0.2186 -0.3749
   8523SM  H15F11414   5.274   3.672  13.571  1.3726  0.5465  0.6143
   8523SM  H15G11415   5.404   3.578  13.660  0.6371  1.3551 -1.2604
   8523SM  C16F11416   5.200   3.494  13.668 -0.5748  0.3642  0.3779
   8523SM  H16F11417   5.215   3.387  13.640 -0.5207  0.2095  0.9848
   8523SM  H16G11418   5.106   3.524  13.617  0.0552  1.4750 -0.1599
   8523SM  C17F11419   5.196   3.513  13.818 -0.2498  0.3593  0.2999
   8523SM  H17F11420   5.102   3.476  13.866 -0.5048  0.4209 -0.1452
   8523SM  H17G11421   5.193   3.623  13.833 -0.6241  0.5318 -0.9727
   8523SM  C18F11422   5.317   3.439  13.885 -0.5889 -0.1541 -0.4180
   8523SM  H18F11423   5.408   3.459  13.825 -2.5340  0.3042 -3.4070
   8523SM  H18G11424   5.306   3.329  13.889 -1.0708 -0.1153  3.2148
   8523SM  C19F11425   5.317   3.474  14.034 -0.1276 -0.1257  0.0835
   8523SM  H19F11426   5.227   3.435  14.086  0.0648  1.2634  1.5566
   8523SM  H19G11427   5.303   3.584  14.031  3.7253  0.5134  0.5132
   8523SM  C20F11428   5.441   3.434  14.116 -0.0836 -0.5676  0.2798
   8523SM  H20F11429   5.420   3.426  14.225  1.6728  0.8444  0.7859
   8523SM  H20G11430   5.514   3.516  14.097 -1.1898  0.8232  1.6965
   8523SM  C21F11431   5.505   3.301  14.073  0.5287  0.1811 -0.3827
   8523SM  H21F11432   5.546   3.320  13.972 -1.3337  1.1335 -1.0151
   8523SM  H21G11433   5.425   3.225  14.064 -0.3641  1.1344 -0.6679
   8523SM  C22F11434   5.629   3.247  14.157  0.2007 -0.4362 -0.0501
   8523SM  H22F11435   5.667   3.153  14.112 -1.1578 -0.8690 -0.3294
   8523SM  H22G11436   5.590   3.227  14.258 -0.0456 -0.3267 -0.1219
   8523SM  C23F11437   5.742   3.355  14.176  0.0630 -0.5342  0.0205
   8523SM  H23F11438   5.716   3.440  14.243 -0.8120 -1.5842  1.0459
   8523SM  H23G11439   5.778   3.390  14.076 -0.1548 -1.9060 -0.5563
   8523SM  H23H11440   5.830   3.314  14.229  1.3592  1.8386 -0.1259
   8623SM     N11441   3.907   1.973  11.652 -0.3039 -0.9922 -0.0808
   8623SM   C1511442   4.005   1.871  11.698 -0.6247 -0.1070  0.4591
   8623SM  H15A11443   4.043   1.813  11.616 -0.2989  0.3022  0.3185
   8623SM  H15B11444   3.967   1.809  11.778  0.7356 -1.7477 -0.1214
   8623SM  H15C11445   4.096   1.914  11.736 -0.5010  0.3831 -0.3686
   8623SM   C1411446   3.974   2.060  11.549  0.0980  0.3831 -0.3647
   8623SM  H14A11447   3.976   2.016  11.451  0.7891  0.7858 -0.5350
   8623SM  H14B11448   4.062   2.109  11.589 -0.2012  1.2286 -0.7138
   8623SM  H14C11449   3.904   2.137  11.520 -1.4793 -1.1037 -0.6785
   8623SM   C1311450   3.776   1.916  11.598 -0.0072  0.0046 -0.2268
   8623SM  H13A11451   3.791   1.827  11.539 -0.3380  0.5660 -1.1831
   8623SM  H13B11452   3.710   1.983  11.545 -2.4118  0.0769  2.5996
   8623SM  H13C11453   3.724   1.907  11.692  0.5624  3.6749  0.5903
   8623SM   C1211454   3.861   2.065  11.771  0.1992  0.1115  0.2638
   8623SM  H12A11455   3.763   2.106  11.749  0.3014 -0.8957 -2.5248
   8623SM  H12B11456   3.935   2.143  11.783 -0.3459  0.7208 -0.2662
   8623SM   C1111457   3.852   1.987  11.912  0.2299 -0.4918 -0.5582
   8623SM  H11A11458   3.807   2.062  11.981  0.8836 -0.3072 -0.3194
   8623SM  H11B11459   3.961   1.975  11.931  0.4063 -2.7771 -2.5213
   8623SM     P11460   3.814   1.735  11.973  0.2686 -0.2842 -0.7919
   8623SM   O1311461   3.699   1.664  12.027  0.4183  0.0444 -0.8557
   8623SM   O1411462   3.898   1.664  11.883  0.4872  0.1658  0.5657
   8623SM   O1111463   3.907   1.788  12.096  0.4355 -0.0660 -0.0191
   8623SM   O1211464   3.770   1.871  11.908  0.6671  0.6931 -0.5619
   8623SM   C1S11465   3.840   1.850  12.203  0.2216 -0.6021  0.2629
   8623SM   H1S11466   3.787   1.776  12.267 -0.6233  1.8657  2.5866
   8623SM   H1T11467   3.776   1.932  12.164  2.5551 -0.1285 -2.9640
   8623SM    NF11468   3.844   2.028  12.369  0.2365  0.2616  0.0430
   8623SM   HNF11469   3.845   2.124  12.344 -1.0016 -0.0938 -1.5439
   8623SM   C2S11470   3.930   1.931  12.303  0.0807 -0.0979  0.6149
   8623SM   H2S11471   3.957   1.853  12.377  0.8979 -2.5168 -2.0784
   8623SM   C3S11472   4.057   1.995  12.236 -0.1258  0.6527  0.7619
   8623SM   H3S11473   4.024   2.072  12.163 -0.2167 -0.8028 -0.7971
   8623SM    O311474   4.129   1.903  12.156  0.2639  0.4203 -0.0293
   8623SM   HO311475   4.064   1.842  12.121  0.2242  1.9569 -2.9200
   8623SM   C4S11476   4.137   2.057  12.335  0.2807  1.1973 -0.3603
   8623SM   H4S11477   4.115   2.164  12.344 -1.9674  0.8709 -1.3255
   8623SM   C5S11478   4.249   2.009  12.400  0.5024  0.0801  0.6959
   8623SM   H5S11479   4.294   1.910  12.382  2.2103  0.7593  0.9794
   8623SM   C6S11480   4.315   2.090  12.506  0.2005  0.3820  1.0891
   8623SM   H6S11481   4.285   2.196  12.493  0.0226  0.3013  0.8392
   8623SM   H6T11482   4.426   2.090  12.504  0.2226  1.5808  1.7320
   8623SM   C7S11483   4.279   2.032  12.642 -0.8057  0.5750  0.3214
   8623SM   H7S11484   4.296   1.923  12.627  0.6289  0.8575 -0.2421
   8623SM   H7T11485   4.170   2.048  12.653 -0.9036 -0.8235  1.7514
   8623SM   C8S11486   4.362   2.084  12.762  0.3516 -0.2771 -0.1033
   8623SM   H8S11487   4.350   2.194  12.777 -1.3422 -0.4040 -0.3330
   8623SM   H8T11488   4.471   2.067  12.749  0.2373  0.3350 -2.2779
   8623SM   C9S11489   4.314   2.014  12.890  0.2730 -0.1012 -0.3848
   8623SM   H9S11490   4.325   1.903  12.889  0.7660 -0.0547 -0.7125
   8623SM   H9T11491   4.209   2.041  12.914 -0.4777 -2.0563 -1.2013
   8623SM  C10S11492   4.406   2.052  13.007 -0.2788 -0.5246  0.4406
   8623SM  H10S11493   4.406   2.164  13.008 -1.6050 -0.4990 -0.1253
   8623SM  H10T11494   4.508   2.025  12.973  0.6779  2.6586  0.4189
   8623SM  C11S11495   4.370   2.001  13.148 -0.1704 -0.0366  0.1849
   8623SM  H11S11496   4.359   1.892  13.135 -0.2799  0.2258 -2.6234
   8623SM  H11T11497   4.266   2.036  13.165  0.6907  2.9238  0.0603
   8623SM  C12S11498   4.463   2.043  13.261  0.1857  0.1113  0.1728
   8623SM  H12S11499   4.458   2.151  13.285  0.1948 -0.3850  2.6275
   8623SM  H12T11500   4.571   2.024  13.247  0.3815  1.0640  0.3592
   8623SM  C13S11501   4.417   1.967  13.389 -0.3752  0.5591 -0.1729
   8623SM  H13S11502   4.436   1.858  13.379  1.8571  0.9638 -0.7833
   8623SM  H13T11503   4.308   1.988  13.396 -0.4433  0.7120 -1.4885
   8623SM  C14S11504   4.494   2.005  13.513 -0.1638  0.3854 -0.7860
   8623SM  H14S11505   4.598   1.971  13.492 -0.5915 -1.8288  0.3642
   8623SM  H14T11506   4.442   1.943  13.589 -3.0415  0.5819 -2.4571
   8623SM  C15S11507   4.495   2.149  13.555 -0.7845 -0.2454 -0.3528
   8623SM  H15S11508   4.545   2.210  13.477 -1.0650 -1.7283 -1.7319
   8623SM  H15T11509   4.561   2.168  13.642 -0.7517  0.8275 -0.5941
   8623SM  C16S11510   4.354   2.211  13.589 -0.7796 -0.5586 -0.1671
   8623SM  H16S11511   4.275   2.213  13.510 -1.9732  1.8753  0.9699
   8623SM  H16T11512   4.372   2.319  13.608 -0.9297 -0.5761  0.0750
   8623SM  C17S11513   4.299   2.169  13.725 -0.8356  0.3040  0.1308
   8623SM  H17S11514   4.381   2.165  13.800 -0.8128  1.8774  0.2373
   8623SM  H17T11515   4.250   2.070  13.715 -0.8506 -0.0133  2.7214
   8623SM  C18S11516   4.196   2.258  13.788 -0.2025 -0.4890 -0.6402
   8623SM  H18S11517   4.166   2.199  13.877 -1.1449  0.7895 -0.0852
   8623SM  H18T11518   4.104   2.270  13.728  0.2934  1.1361 -1.1093
   8623SM  H18U11519   4.228   2.360  13.816 -2.8752 -0.0135  0.9811
   8623SM   C1F11520   3.738   1.992  12.444  1.0612  0.5020  0.2659
   8623SM    OF11521   3.709   1.878  12.483 -0.4120 -0.0141 -0.0500
   8623SM   C2F11522   3.649   2.100  12.478 -0.0358 -0.1059  0.5311
   8623SM   H2F11523   3.612   2.155  12.389  3.2867 -1.1361 -1.6926
   8623SM   H2G11524   3.714   2.171  12.532  1.8994 -0.9583 -0.5593
   8623SM   C3F11525   3.539   2.063  12.585 -0.4584 -0.1011  0.0416
   8623SM   H3F11526   3.596   2.002  12.658 -2.0398 -2.2073 -0.3944
   8623SM   H3G11527   3.481   1.978  12.543 -1.8966 -0.0924  1.8833
   8623SM   C4F11528   3.463   2.182  12.633  0.3384 -0.2466 -0.0767
   8623SM   H4F11529   3.396   2.227  12.557 -0.0985 -1.4296 -0.4154
   8623SM   H4G11530   3.532   2.260  12.669 -0.0394 -1.7752  4.6303
   8623SM   C5F11531   3.384   2.154  12.760 -0.9295  0.5666  0.5470
   8623SM   H5F11532   3.326   2.061  12.744 -0.2156  0.5944 -3.1764
   8623SM   H5G11533   3.314   2.241  12.766  1.2714  2.4183  0.8238
   8623SM   C6F11534   3.468   2.142  12.888  0.2599 -0.1446  0.2753
   8623SM   H6F11535   3.519   2.238  12.910 -2.2194  1.3005  0.1968
   8623SM   H6G11536   3.544   2.062  12.895  0.9751  0.4416 -0.5932
   8623SM   C7F11537   3.388   2.113  13.012  0.6197  0.3517  0.2254
   8623SM   H7F11538   3.311   2.035  12.991  0.6736  0.5522 -0.7651
   8623SM   H7G11539   3.328   2.200  13.045 -0.7959 -1.2768  2.1892
   8623SM   C8F11540   3.477   2.067  13.121 -0.4834  0.6295  0.2994
   8623SM   H8F11541   3.540   2.154  13.146 -0.2276  0.6263 -0.3130
   8623SM   H8G11542   3.545   1.992  13.075 -1.7047 -0.1437 -0.2988
   8623SM   C9F11543   3.399   2.020  13.244  0.3928  0.7512 -0.5268
   8623SM   H9F11544   3.324   1.944  13.214  0.9499 -0.2428  0.4736
   8623SM   H9G11545   3.345   2.099  13.299  0.0498 -0.5397  1.0849
   8623SM  C10F11546   3.490   1.948  13.348 -0.7025  0.0167 -0.8130
   8623SM  H10F11547   3.576   2.018  13.360  0.4495 -1.2662 -1.3401
   8623SM  H10G11548   3.544   1.864  13.299 -0.5060  0.5541 -1.5396
   8623SM  C11F11549   3.425   1.903  13.476  0.1637 -0.0625  0.5616
   8623SM  H11F11550   3.340   1.836  13.453  0.2726  0.1320 -0.4882
   8623SM  H11G11551   3.388   1.997  13.524  3.5245  1.0472  1.2608
   8623SM  C12F11552   3.528   1.837  13.577  0.1881  0.0318 -0.0540
   8623SM  H12F11553   3.610   1.912  13.580  0.7452 -0.4694 -1.7877
   8623SM  H12G11554   3.586   1.753  13.532  0.2397  0.9490 -1.7836
   8623SM  C13F11555   3.457   1.792  13.705  0.1842  0.1035  0.1201
   8623SM  H13F11556   3.378   1.721  13.676  0.6150 -1.1076  1.7889
   8623SM  H13G11557   3.402   1.882  13.742 -0.6644 -0.7360  0.9340
   8623SM  C14F11558   3.555   1.746  13.815 -0.0989 -0.0783  0.5245
   8623SM  H14F11559   3.622   1.832  13.837 -1.2698  0.8530  0.5413
   8623SM  H14G11560   3.612   1.659  13.775 -0.4561  0.2630 -0.7709
   8623SM  C15F11561   3.477   1.720  13.943 -0.8090  0.0464 -0.1413
   8623SM  H15F11562   3.420   1.627  13.922  0.9327 -1.3869  1.1860
   8623SM  H15G11563   3.408   1.804  13.964 -1.0049 -0.2500  0.4180
   8623SM  C16F11564   3.561   1.699  14.065 -0.5116  0.1789  0.2080
   8623SM  H16F11565   3.637   1.779  14.078  0.9570 -0.5560 -2.9548
   8623SM  H16G11566   3.613   1.604  14.041 -1.8817 -0.0968 -1.9943
   8623SM  C17F11567   3.490   1.682  14.203  0.0865 -0.5401  0.4901
   8623SM  H17F11568   3.401   1.616  14.193 -1.6096  1.8063 -1.2249
   8623SM  H17G11569   3.440   1.779  14.225 -0.1567 -0.6749  0.5360
   8623SM  C18F11570   3.590   1.642  14.308 -0.3940  0.4625  0.0964
   8623SM  H18F11571   3.656   1.731  14.300 -0.2420  0.7197  2.9555
   8623SM  H18G11572   3.651   1.558  14.269  0.1993  1.3683 -0.9906
   8623SM  C19F11573   3.540   1.617  14.453  0.5082  0.4127 -0.4316
   8623SM  H19F11574   3.492   1.517  14.468  0.1126  0.3385 -2.0092
   8623SM  H19G11575   3.462   1.694  14.474  0.6320  0.2610  0.6320
   8623SM  C20F11576   3.647   1.631  14.566 -0.4771  0.3062  0.3790
   8623SM  H20F11577   3.600   1.667  14.660 -0.1219  0.9107  0.3339
   8623SM  H20G11578   3.715   1.710  14.528  0.4917 -1.2452 -1.2755
   8623SM  C21F11579   3.723   1.493  14.586  0.5890  0.4378 -0.0586
   8623SM  H21F11580   3.748   1.452  14.486  1.7700 -0.4743  0.5785
   8623SM  H21G11581   3.653   1.429  14.644  0.2415  0.9707  0.1202
   8623SM  C22F11582   3.861   1.505  14.660 -0.1411  0.0831 -0.0725
   8623SM  H22F11583   3.905   1.590  14.604 -2.6714  1.3237 -0.3237
   8623SM  H22G11584   3.915   1.409  14.643 -1.0666 -0.1604 -1.8370
   8623SM  C23F11585   3.834   1.539  14.807 -0.4045 -0.1168  0.3850
   8623SM  H23F11586   3.933   1.533  14.856  0.0223 -0.8539 -0.5299
   8623SM  H23G11587   3.762   1.474  14.862  1.8028 -1.8196  1.4343
   8623SM  H23H11588   3.795   1.643  14.811 -0.8082 -0.2407 -0.1305
   8723SM     N11589   4.685   1.643  11.779 -0.0477  0.4267 -0.1209
   8723SM   C1511590   4.557   1.698  11.824  0.7541  0.2702 -0.7437
   8723SM  H15A11591   4.570   1.797  11.864  0.8691  0.4163 -1.1368
   8723SM  H15B11592   4.513   1.627  11.893 -1.7341  0.5870 -1.8951
   8723SM  H15C11593   4.491   1.706  11.739 -0.5648  0.0689  0.2230
   8723SM   C1411594   4.741   1.745  11.685  0.2330  1.1728  0.2168
   8723SM  H14A11595   4.658   1.791  11.633 -1.1068  0.3971  1.6027
   8723SM  H14B11596   4.809   1.698  11.615 -0.8008  0.0973 -0.0874
   8723SM  H14C11597   4.785   1.831  11.735  3.1027  0.0889 -0.2164
   8723SM   C1311598   4.764   1.624  11.902 -0.6174  0.6891 -0.6061
   8723SM  H13A11599   4.849   1.567  11.868 -1.6651 -0.8915 -0.7385
   8723SM  H13B11600   4.712   1.557  11.970 -1.0608  1.1564 -0.4774
   8723SM  H13C11601   4.797   1.719  11.941  0.6011  0.6187 -1.4439
   8723SM   C1211602   4.655   1.508  11.705  0.6117  0.7533 -0.3633
   8723SM  H12A11603   4.594   1.529  11.618 -2.0269  1.2936  1.4979
   8723SM  H12B11604   4.585   1.448  11.762  1.4119 -1.2269 -1.3633
   8723SM   C1111605   4.772   1.411  11.677  0.3582 -0.3953 -0.2621
   8723SM  H11A11606   4.853   1.464  11.621 -2.5080  3.4072 -1.2130
   8723SM  H11B11607   4.746   1.331  11.604 -1.1883  0.6840 -0.9381
   8723SM     P11608   4.717   1.221  11.844  0.1896 -0.0539  0.0787
   8723SM   O1311609   4.585   1.224  11.779 -0.2311  0.3102 -0.3824
   8723SM   O1411610   4.795   1.099  11.830 -0.2861 -0.4548  0.3548
   8723SM   O1111611   4.700   1.244  11.998 -0.3502  0.0320 -0.3479
   8723SM   O1211612   4.812   1.346  11.802 -0.3523  0.2678 -0.1278
   8723SM   C1S11613   4.580   1.304  12.043  0.0545 -0.3681 -0.7799
   8723SM   H1S11614   4.494   1.234  12.040 -1.2283  1.0751  0.6984
   8723SM   H1T11615   4.556   1.398  11.988  1.1814  0.5160  0.1908
   8723SM    NF11616   4.440   1.336  12.245 -0.1444  0.8949  0.4633
   8723SM   HNF11617   4.413   1.429  12.268  2.9689  1.6324  1.6468
   8723SM   C2S11618   4.580   1.318  12.197  0.3358  1.0401  0.0399
   8723SM   H2S11619   4.625   1.227  12.241 -0.0308  1.5686  1.5947
   8723SM   C3S11620   4.666   1.444  12.217 -0.4164 -0.0596 -0.7608
   8723SM   H3S11621   4.626   1.530  12.160  0.4846  1.1541  0.3669
   8723SM    O311622   4.798   1.439  12.155 -0.4940  0.4146 -0.6831
   8723SM   HO311623   4.793   1.355  12.110  0.8588  0.2712 -0.6061
   8723SM   C4S11624   4.664   1.481  12.363  0.1683 -0.2146  0.0687
   8723SM   H4S11625   4.581   1.544  12.398  0.7548  0.6755 -0.0736
   8723SM   C5S11626   4.743   1.441  12.463 -0.8116 -0.4123 -0.3922
   8723SM   H5S11627   4.826   1.375  12.435 -1.2569 -1.4079  0.5059
   8723SM   C6S11628   4.727   1.458  12.619 -0.3934  0.1961  0.6641
   8723SM   H6S11629   4.809   1.523  12.658 -0.3649  0.4793  0.1391
   8723SM   H6T11630   4.742   1.359  12.666  0.8443 -1.0836 -2.1914
   8723SM   C7S11631   4.590   1.509  12.663 -0.4437 -0.0401 -0.0727
   8723SM   H7S11632   4.505   1.476  12.600 -0.3185  0.8088 -0.7050
   8723SM   H7T11633   4.578   1.619  12.656 -2.0124 -0.2413 -1.0026
   8723SM   C8S11634   4.549   1.491  12.810  0.0981  0.2897 -0.1168
   8723SM   H8S11635   4.634   1.518  12.877  1.4955 -4.1844  0.2676
   8723SM   H8T11636   4.531   1.382  12.824  0.6133  0.2018 -0.1139
   8723SM   C9S11637   4.432   1.567  12.858  0.1356 -0.0799 -0.3858
   8723SM   H9S11638   4.347   1.514  12.810  0.8210  0.0345 -1.7833
   8723SM   H9T11639   4.437   1.670  12.818 -2.0011  0.3684  0.3714
   8723SM  C10S11640   4.421   1.564  13.013  0.1811 -0.8692 -0.0244
   8723SM  H10S11641   4.383   1.656  13.062 -0.7014 -1.0662 -0.3278
   8723SM  H10T11642   4.526   1.562  13.049  0.8314 -1.3996 -1.8351
   8723SM  C11S11643   4.335   1.443  13.066 -0.6864 -0.5523 -0.1433
   8723SM  H11S11644   4.374   1.348  13.023 -0.6439 -1.0699  1.0196
   8723SM  H11T11645   4.228   1.457  13.040 -0.4814  1.1459 -0.1505
   8723SM  C12S11646   4.348   1.425  13.219 -0.0285  0.4970  0.7451
   8723SM  H12S11647   4.444   1.392  13.263  0.0435  0.3604  0.4863
   8723SM  H12T11648   4.284   1.338  13.248  0.5529  0.1556  1.0323
   8723SM  C13S11649   4.293   1.547  13.290  0.3797  0.0462 -0.0845
   8723SM  H13S11650   4.198   1.576  13.240 -0.0462 -1.2578 -0.0783
   8723SM  H13T11651   4.375   1.621  13.289 -1.2773  2.0029  1.0449
   8723SM  C14S11652   4.263   1.512  13.437  0.7457 -0.2518 -0.6532
   8723SM  H14S11653   4.211   1.417  13.461  1.3274 -0.4161  0.0001
   8723SM  H14T11654   4.205   1.595  13.484  0.0552 -1.2234  0.2620
   8723SM  C15S11655   4.400   1.500  13.514  0.3135  0.4653  0.3456
   8723SM  H15S11656   4.464   1.580  13.472 -0.2979 -0.5679 -2.8129
   8723SM  H15T11657   4.443   1.401  13.485 -0.3274 -0.6602  2.9432
   8723SM  C16S11658   4.379   1.498  13.669 -0.1021 -0.5287 -0.5980
   8723SM  H16S11659   4.479   1.476  13.711  0.1420  0.9743 -0.3445
   8723SM  H16T11660   4.312   1.412  13.694 -4.3987  2.6364 -0.0151
   8723SM  C17S11661   4.314   1.626  13.728 -0.4150  0.1869 -0.3867
   8723SM  H17S11662   4.207   1.631  13.698  0.2240 -1.0110 -3.1567
   8723SM  H17T11663   4.371   1.711  13.685  0.7857 -0.4873 -0.1893
   8723SM  C18S11664   4.342   1.644  13.876  0.0274  0.2566  0.3308
   8723SM  H18S11665   4.343   1.753  13.898  1.3217  0.1822  0.7036
   8723SM  H18T11666   4.441   1.599  13.896 -1.3755 -2.2142  2.4300
   8723SM  H18U11667   4.272   1.583  13.938  0.2362 -0.6406 -0.2922
   8723SM   C1F11668   4.368   1.233  12.284  0.2961 -0.4425  0.7023
   8723SM    OF11669   4.403   1.114  12.260  0.1335 -0.0958  0.4767
   8723SM   C2F11670   4.234   1.266  12.340 -0.4602 -0.5222 -0.3760
   8723SM   H2F11671   4.176   1.172  12.350  0.8346 -1.2946  0.1908
   8723SM   H2G11672   4.190   1.334  12.264 -1.2798 -2.0960 -1.3829
   8723SM   C3F11673   4.228   1.356  12.464 -0.6082  1.0224 -0.2967
   8723SM   H3F11674   4.291   1.446  12.449  1.2968 -0.1801 -0.0195
   8723SM   H3G11675   4.284   1.286  12.532 -0.2405 -0.0444 -1.6466
   8723SM   C4F11676   4.085   1.382  12.522 -0.7465  0.2328  0.1802
   8723SM   H4F11677   4.042   1.282  12.547  0.8822 -0.4495  0.3622
   8723SM   H4G11678   4.024   1.415  12.435  0.0906  0.8417 -0.1859
   8723SM   C5F11679   4.072   1.481  12.633  0.3892 -0.5941 -1.1120
   8723SM   H5F11680   4.120   1.453  12.729 -0.1578  2.3536  0.1164
   8723SM   H5G11681   3.965   1.501  12.653  0.3516 -1.0177 -0.8670
   8723SM   C6F11682   4.130   1.621  12.609  0.1182 -0.3108  0.0721
   8723SM   H6F11683   4.105   1.670  12.513 -1.5862 -0.6054  0.3488
   8723SM   H6G11684   4.241   1.619  12.609  0.1659  0.9630 -0.4159
   8723SM   C7F11685   4.093   1.718  12.725  0.3950 -0.3932  0.4054
   8723SM   H7F11686   4.160   1.806  12.733  0.1737 -0.2721  0.9702
   8723SM   H7G11687   4.120   1.660  12.816  0.4051 -2.8632 -1.0654
   8723SM   C8F11688   3.935   1.756  12.744 -1.2048 -0.1559 -0.4096
   8723SM   H8F11689   3.877   1.668  12.779 -0.2118 -0.6614 -0.0227
   8723SM   H8G11690   3.900   1.795  12.646  1.2268 -0.2589 -1.3908
   8723SM   C9F11691   3.932   1.865  12.861 -0.6769  0.2234  0.3307
   8723SM   H9F11692   3.826   1.897  12.860 -0.5942  0.7480 -2.9632
   8723SM   H9G11693   3.989   1.956  12.833  1.2896 -1.1346 -0.2636
   8723SM  C10F11694   3.967   1.810  13.003 -0.2740 -0.5307 -0.2799
   8723SM  H10F11695   4.071   1.771  12.998 -1.0745 -2.6846 -1.5995
   8723SM  H10G11696   3.903   1.721  13.019  3.4849 -3.5281 -0.3068
   8723SM  C11F11697   3.958   1.913  13.118 -0.4004  0.0685 -0.2677
   8723SM  H11F11698   3.850   1.939  13.130 -0.3836 -0.2305  0.6250
   8723SM  H11G11699   4.011   2.008  13.098 -1.3153  0.7292  0.3228
   8723SM  C12F11700   4.014   1.864  13.258  0.1951  0.3501 -0.1458
   8723SM  H12F11701   4.125   1.863  13.263  0.2175 -2.5203 -0.0042
   8723SM  H12G11702   3.990   1.756  13.270  1.4091  0.2447  1.6673
   8723SM  C13F11703   3.951   1.955  13.367  0.4072 -0.0357 -0.4431
   8723SM  H13F11704   3.842   1.936  13.381  0.5261 -0.8516 -0.5616
   8723SM  H13G11705   3.967   2.061  13.341  0.9017 -0.0488 -0.2070
   8723SM  C14F11706   4.010   1.938  13.511 -0.3941 -0.1562 -0.0822
   8723SM  H14F11707   4.111   1.982  13.521 -0.0051 -1.1571  0.6006
   8723SM  H14G11708   4.019   1.830  13.536 -0.0070 -0.4108 -1.2167
   8723SM  C15F11709   3.925   2.014  13.619 -0.3730 -0.3550  0.4230
   8723SM  H15F11710   3.817   2.011  13.595 -0.4695  1.3149  0.4915
   8723SM  H15G11711   3.940   2.124  13.622 -0.3710 -0.3029 -0.7761
   8723SM  C16F11712   3.947   1.958  13.761  0.0460 -0.7849  0.7821
   8723SM  H16F11713   4.050   1.975  13.799 -0.0999 -1.1624  1.3620
   8723SM  H16G11714   3.930   1.848  13.764  1.0611 -0.9782 -0.0610
   8723SM  C17F11715   3.850   2.029  13.861 -0.7629  0.1243  0.2755
   8723SM  H17F11716   3.747   2.018  13.822  0.0483 -1.2036 -1.6630
   8723SM  H17G11717   3.881   2.136  13.869  0.2507 -0.1700  0.5225
   8723SM  C18F11718   3.872   1.958  14.000  0.1640  0.1433 -0.7000
   8723SM  H18F11719   3.874   1.848  13.992  1.7184  0.0342  0.6427
   8723SM  H18G11720   3.780   1.978  14.058 -0.3760 -1.0007 -1.1383
   8723SM  C19F11721   3.993   1.996  14.084  0.5191 -0.0356 -0.6962
   8723SM  H19F11722   4.009   2.105  14.100  2.1449 -0.4769  1.1433
   8723SM  H19G11723   4.075   1.963  14.017  0.6875 -0.8075 -0.1320
   8723SM  C20F11724   4.008   1.927  14.225  1.1668 -0.3943  0.6575
   8723SM  H20F11725   4.033   1.819  14.213 -0.9125 -1.0584  1.7245
   8723SM  H20G11726   3.905   1.928  14.266 -0.2223  1.8660 -2.4791
   8723SM  C21F11727   4.116   1.980  14.316 -0.4707 -0.9392 -0.0838
   8723SM  H21F11728   4.102   1.933  14.416 -0.2237  0.9439  0.8943
   8723SM  H21G11729   4.097   2.089  14.331 -1.7659 -0.9253 -1.5805
   8723SM  C22F11730   4.255   1.968  14.253 -0.5373 -0.2078 -0.0501
   8723SM  H22F11731   4.245   1.985  14.144 -0.4319  1.6625  0.1881
   8723SM  H22G11732   4.291   1.864  14.268 -1.2187 -0.3835  0.4331
   8723SM  C23F11733   4.350   2.085  14.306 -0.1839  0.4336  0.1997
   8723SM  H23F11734   4.362   2.073  14.416 -1.9755  1.7536  0.5858
   8723SM  H23G11735   4.324   2.190  14.279 -0.3767  0.4696  0.5223
   8723SM  H23H11736   4.450   2.070  14.260 -0.7768  3.0258 -2.2055
   8823SM     N11737   0.698   1.449  12.437  0.4296  0.2246 -0.4000
   8823SM   C1511738   0.686   1.532  12.313 -0.2882  0.3016 -0.0720
   8823SM  H15A11739   0.584   1.538  12.280 -0.0982  0.8344 -0.5851
   8823SM  H15B11740   0.745   1.488  12.234 -4.0428 -0.4051 -2.7426
   8823SM  H15C11741   0.727   1.630  12.331  2.4395 -0.8253  0.4188
   8823SM   C1411742   0.612   1.514  12.539  0.1158  0.1655 -0.2463
   8823SM  H14A11743   0.507   1.513  12.512  0.2808  1.0174 -0.9626
   8823SM  H14B11744   0.647   1.615  12.552  0.3963 -0.1990  2.6333
   8823SM  H14C11745   0.627   1.466  12.635  0.1883 -1.9209 -1.2471
   8823SM   C1311746   0.648   1.306  12.420  0.2128 -0.5975 -0.1390
   8823SM  H13A11747   0.540   1.307  12.412  0.1671  1.2036  0.2935
   8823SM  H13B11748   0.679   1.232  12.492  0.5089 -1.4800 -1.1619
   8823SM  H13C11749   0.695   1.257  12.336  1.6944  0.6376 -0.0878
   8823SM   C1211750   0.844   1.454  12.486  0.8206  0.2603 -0.1994
   8823SM  H12A11751   0.913   1.403  12.421  0.6696  1.1632 -1.0863
   8823SM  H12B11752   0.841   1.390  12.573 -0.8013 -0.1682 -0.5224
   8823SM   C1111753   0.914   1.588  12.528 -0.5548 -0.4951  0.4925
   8823SM  H11A11754   1.010   1.583  12.583  0.6853  1.0327 -1.3940
   8823SM  H11B11755   0.852   1.643  12.602 -0.7997 -0.2923  0.1409
   8823SM     P11756   1.068   1.697  12.358  0.4112 -0.1281 -0.4241
   8823SM   O1311757   1.119   1.566  12.309 -0.2662 -0.0198  0.5705
   8823SM   O1411758   1.060   1.812  12.263  0.3218 -0.6420 -0.2298
   8823SM   O1111759   1.152   1.731  12.490 -0.4269  0.1872  0.6418
   8823SM   O1211760   0.929   1.674  12.419 -0.3527 -0.3898  0.2834
   8823SM   C1S11761   1.139   1.861  12.541 -0.1362 -0.4836  0.2747
   8823SM   H1S11762   1.044   1.866  12.598  1.2171 -1.9526  2.8047
   8823SM   H1T11763   1.135   1.939  12.461 -2.6256  0.2919  1.0764
   8823SM    NF11764   1.243   2.028  12.689  0.3658 -0.0364  0.3343
   8823SM   HNF11765   1.301   2.099  12.649  0.1729  0.0631  0.2329
   8823SM   C2S11766   1.261   1.901  12.632 -0.0826 -0.1683 -0.8198
   8823SM   H2S11767   1.267   1.828  12.716 -1.5077  0.6374  0.0267
   8823SM   C3S11768   1.389   1.894  12.544  0.1644  0.7823  0.5209
   8823SM   H3S11769   1.366   1.945  12.448 -0.2472 -0.1855  0.0814
   8823SM    O311770   1.430   1.762  12.501 -0.3916 -0.0695 -0.7941
   8823SM   HO311771   1.356   1.709  12.533 -0.8783  1.2243  0.2957
   8823SM   C4S11772   1.500   1.959  12.625 -0.7394 -0.0856 -0.2020
   8823SM   H4S11773   1.529   2.063  12.601  0.3034  0.2624  2.3071
   8823SM   C5S11774   1.574   1.896  12.720 -0.6610 -0.8811 -0.2338
   8823SM   H5S11775   1.543   1.800  12.764  0.5484 -0.7543  0.9418
   8823SM   C6S11776   1.675   1.968  12.800  0.1067 -0.8060 -0.6669
   8823SM   H6S11777   1.736   2.039  12.740  0.1250 -1.3203 -1.2708
   8823SM   H6T11778   1.748   1.898  12.845 -0.5647 -1.4736 -0.5885
   8823SM   C7S11779   1.609   2.061  12.911  0.1025 -0.2339 -0.0434
   8823SM   H7S11780   1.535   2.003  12.970  1.0550 -1.5974 -0.1239
   8823SM   H7T11781   1.544   2.138  12.865 -0.2675 -0.4921  0.0449
   8823SM   C8S11782   1.706   2.131  13.006 -0.4755  0.5552 -0.3971
   8823SM   H8S11783   1.660   2.226  13.040  0.4313  0.8941 -0.0892
   8823SM   H8T11784   1.805   2.151  12.960 -0.6788  2.0632 -0.2061
   8823SM   C9S11785   1.727   2.043  13.135 -0.6799  0.2686  0.6452
   8823SM   H9S11786   1.783   1.952  13.104  0.6431  1.4135 -0.4886
   8823SM   H9T11787   1.624   2.009  13.160 -0.8076 -0.7357 -1.0754
   8823SM  C10S11788   1.793   2.122  13.244 -0.7599  0.4074 -0.1252
   8823SM  H10S11789   1.721   2.199  13.281 -2.4776 -0.5001 -1.4852
   8823SM  H10T11790   1.874   2.181  13.197 -0.3639 -1.2829 -1.6443
   8823SM  C11S11791   1.846   2.035  13.361  0.0504 -0.3947 -0.5795
   8823SM  H11S11792   1.928   1.977  13.314  0.1902  0.3313 -1.2603
   8823SM  H11T11793   1.757   1.973  13.387 -1.4070  2.0894  0.8628
   8823SM  C12S11794   1.892   2.097  13.496 -0.4443 -0.2031 -0.2222
   8823SM  H12S11795   1.992   2.142  13.477 -0.6493 -0.0846 -1.0250
   8823SM  H12T11796   1.901   2.009  13.563  0.4497 -0.1408 -0.2534
   8823SM  C13S11797   1.796   2.203  13.559 -0.2076 -0.3234  0.0488
   8823SM  H13S11798   1.695   2.158  13.560 -0.9169  1.0659 -2.4044
   8823SM  H13T11799   1.787   2.285  13.485  0.5808 -0.6435 -0.4174
   8823SM  C14S11800   1.829   2.248  13.697 -0.8890 -0.5771 -0.3003
   8823SM  H14S11801   1.917   2.315  13.706 -1.7823  0.6831 -0.6844
   8823SM  H14T11802   1.837   2.160  13.765  1.8384  0.4990  0.9207
   8823SM  C15S11803   1.717   2.341  13.752  0.8861 -0.0721  0.1534
   8823SM  H15S11804   1.618   2.290  13.751  1.1859 -0.6532  0.1669
   8823SM  H15T11805   1.703   2.429  13.685 -1.1627 -1.2692 -1.0918
   8823SM  C16S11806   1.737   2.389  13.897 -0.5900  0.0331  0.7838
   8823SM  H16S11807   1.836   2.436  13.914 -0.2927 -0.1420 -0.3862
   8823SM  H16T11808   1.728   2.301  13.965 -2.0016 -0.8090 -0.4437
   8823SM  C17S11809   1.633   2.491  13.939 -0.2355 -0.0074 -0.4963
   8823SM  H17S11810   1.536   2.443  13.912  0.7620 -1.8490 -0.9505
   8823SM  H17T11811   1.650   2.581  13.876 -0.1933  0.5330  0.2800
   8823SM  C18S11812   1.620   2.531  14.087  0.0476  0.4451  0.4252
   8823SM  H18S11813   1.553   2.619  14.099 -0.4611  0.0656  0.4555
   8823SM  H18T11814   1.714   2.551  14.141  0.6185  0.3479 -0.5077
   8823SM  H18U11815   1.568   2.445  14.136  0.6964 -0.8168 -1.0126
   8823SM   C1F11816   1.158   2.054  12.791 -0.6694 -0.2503  0.1194
   8823SM    OF11817   1.070   1.978  12.814  0.5151  0.4885  0.6408
   8823SM   C2F11818   1.196   2.182  12.871  0.2048  0.0351  0.4148
   8823SM   H2F11819   1.208   2.267  12.800 -0.5237 -0.0161  0.2298
   8823SM   H2G11820   1.289   2.153  12.926 -0.3625 -1.4749  0.6087
   8823SM   C3F11821   1.099   2.226  12.981  0.3641  0.4953  0.2847
   8823SM   H3F11822   0.996   2.196  12.952  0.8050  0.2592 -1.0984
   8823SM   H3G11823   1.098   2.335  13.000 -0.2590  0.6808 -0.7401
   8823SM   C4F11824   1.120   2.147  13.111  0.3733  0.4761 -0.2029
   8823SM   H4F11825   1.116   2.037  13.097  1.2225  0.6700 -2.3716
   8823SM   H4G11826   1.027   2.175  13.166 -0.2154  0.1832 -1.0242
   8823SM   C5F11827   1.248   2.182  13.184 -0.5470 -0.3444 -0.3673
   8823SM   H5F11828   1.272   2.288  13.162 -1.2688  0.2962  1.6755
   8823SM   H5G11829   1.339   2.131  13.147 -0.6392 -0.9866  0.2711
   8823SM   C6F11830   1.236   2.167  13.335  0.1515 -0.0455  0.4390
   8823SM   H6F11831   1.208   2.069  13.377  1.3441 -0.4068  0.4243
   8823SM   H6G11832   1.160   2.241  13.370  0.6641 -0.1629  1.8665
   8823SM   C7F11833   1.363   2.206  13.405 -0.2524 -0.1573 -0.6424
   8823SM   H7F11834   1.391   2.311  13.382  1.2990 -0.0773  1.4281
   8823SM   H7G11835   1.449   2.140  13.382 -0.2609 -0.5946  0.5529
   8823SM   C8F11836   1.364   2.203  13.560 -0.1136 -0.7283  0.8482
   8823SM   H8F11837   1.472   2.211  13.585  0.3499 -1.7275 -0.7307
   8823SM   H8G11838   1.333   2.106  13.603  2.0295 -1.5966  0.5307
   8823SM   C9F11839   1.274   2.310  13.622 -0.0787 -0.1246 -0.2163
   8823SM   H9F11840   1.174   2.315  13.572 -0.2488  0.8141  0.1957
   8823SM   H9G11841   1.320   2.407  13.594 -1.4589  0.1275 -1.7818
   8823SM  C10F11842   1.248   2.297  13.777  0.5040 -0.3728 -0.1956
   8823SM  H10F11843   1.334   2.258  13.837 -2.0967 -0.4208  3.8906
   8823SM  H10G11844   1.168   2.221  13.790  2.0942 -2.0556  0.3804
   8823SM  C11F11845   1.200   2.434  13.827 -0.1484 -0.3074 -0.2504
   8823SM  H11F11846   1.105   2.460  13.777 -0.4481 -0.3984  0.2632
   8823SM  H11G11847   1.273   2.511  13.795  1.7244 -1.7407  0.3928
   8823SM  C12F11848   1.172   2.444  13.980  0.0636 -0.0147  0.3454
   8823SM  H12F11849   1.270   2.470  14.026 -0.8068 -0.1660  2.4071
   8823SM  H12G11850   1.121   2.352  14.015  0.2383  0.2864  1.4520
   8823SM  C13F11851   1.070   2.547  14.028  0.7217 -0.2900 -0.4434
   8823SM  H13F11852   0.968   2.509  14.006  0.8320 -0.5664 -0.4763
   8823SM  H13G11853   1.082   2.645  13.976 -0.9008 -0.2467 -0.8061
   8823SM  C14F11854   1.096   2.563  14.178 -0.3795 -0.1101  0.8917
   8823SM  H14F11855   1.206   2.577  14.183 -0.3238 -0.3491  0.3898
   8823SM  H14G11856   1.061   2.476  14.239 -1.2015 -0.0364  0.5260
   8823SM  C15F11857   1.053   2.699  14.226  0.4093  0.0161 -0.0624
   8823SM  H15F11858   1.113   2.781  14.180  1.2769 -0.6394 -0.1118
   8823SM  H15G11859   1.084   2.705  14.332  1.4378  2.0275 -0.4302
   8823SM  C16F11860   0.900   2.705  14.217  0.5771  0.3413  0.0987
   8823SM  H16F11861   0.859   2.605  14.243 -0.2700  0.8271  0.6822
   8823SM  H16G11862   0.879   2.723  14.110  1.2697 -0.8381 -0.2600
   8823SM  C17F11863   0.837   2.813  14.306  0.2388  0.4956  0.4329
   8823SM  H17F11864   0.734   2.817  14.264 -0.2780 -2.1885  1.2486
   8823SM  H17G11865   0.888   2.910  14.287 -1.8604  1.2654 -1.8241
   8823SM  C18F11866   0.832   2.765  14.450  0.0951  0.1736 -0.5019
   8823SM  H18F11867   0.928   2.777  14.505  0.0504 -2.5355  0.3018
   8823SM  H18G11868   0.811   2.657  14.466  2.0675  0.1832  3.3897
   8823SM  C19F11869   0.718   2.839  14.521  1.0946  0.6982  0.4357
   8823SM  H19F11870   0.626   2.826  14.461  1.8284  0.1318 -0.5837
   8823SM  H19G11871   0.744   2.947  14.525 -2.2090  1.5829  0.7810
   8823SM  C20F11872   0.696   2.800  14.668  0.0454  0.3907  0.2597
   8823SM  H20F11873   0.773   2.847  14.734 -3.0708  2.5335  2.6533
   8823SM  H20G11874   0.697   2.689  14.679 -2.2624  0.2234 -0.7162
   8823SM  C21F11875   0.557   2.849  14.727 -0.7758  0.2087  0.5813
   8823SM  H21F11876   0.485   2.844  14.643  0.0810  0.5424 -0.1904
   8823SM  H21G11877   0.578   2.954  14.759 -1.8156  0.3355  0.9163
   8823SM  C22F11878   0.513   2.775  14.847  0.5298  0.5426  0.0564
   8823SM  H22F11879   0.592   2.774  14.926  1.0741 -1.2897 -0.4573
   8823SM  H22G11880   0.505   2.666  14.826  1.0898  0.0151  2.2964
   8823SM  C23F11881   0.384   2.818  14.908  0.5102 -0.5269  0.4278
   8823SM  H23F11882   0.310   2.830  14.826 -0.6432 -1.0328  1.3623
   8823SM  H23G11883   0.390   2.917  14.959 -1.1113 -0.7309  1.0722
   8823SM  H23H11884   0.330   2.752  14.978 -0.2045 -0.8596 -0.4255
   8923SM     N11885   6.452   2.272  11.687  0.3250  0.2492  0.3477
   8923SM   C1511886   6.576   2.356  11.705  0.3015 -0.4303 -0.3524
   8923SM  H15A11887   6.641   2.334  11.788 -2.2440  0.0100  1.8955
   8923SM  H15B11888   6.560   2.462  11.721 -2.3980 -0.3705 -2.6004
   8923SM  H15C11889   6.639   2.341  11.618  0.6299 -1.5442  0.0580
   8923SM   C1411890   6.377   2.319  11.569  0.1930 -0.2876 -0.1037
   8923SM  H14A11891   6.280   2.270  11.566 -0.6516  1.1292  2.0337
   8923SM  H14B11892   6.433   2.287  11.482  1.1756 -0.0194  0.4229
   8923SM  H14C11893   6.367   2.426  11.564  1.2140 -0.2079 -3.9164
   8923SM   C1311894   6.496   2.133  11.655  0.0022  0.5555 -0.2672
   8923SM  H13A11895   6.563   2.088  11.727 -1.8545 -0.6209  0.8129
   8923SM  H13B11896   6.540   2.130  11.557 -1.0557  0.4236 -0.7558
   8923SM  H13C11897   6.408   2.070  11.653  0.2895  0.0706  1.1412
   8923SM   C1211898   6.352   2.275  11.802 -0.0291  0.3227  0.7030
   8923SM  H12A11899   6.257   2.232  11.773 -0.4129  1.2717  0.5051
   8923SM  H12B11900   6.332   2.380  11.819 -0.2966  0.6872 -1.5289
   8923SM   C1111901   6.395   2.219  11.943 -0.3471  0.0072 -0.2746
   8923SM  H11A11902   6.331   2.256  12.026 -1.0743  0.6636 -1.1021
   8923SM  H11B11903   6.494   2.257  11.977 -0.9093  2.8216 -1.5016
   8923SM     P11904   6.255   1.991  11.927  0.2376 -0.2148 -0.1105
   8923SM   O1311905   6.153   2.058  11.838 -0.8726 -0.3915 -0.5766
   8923SM   O1411906   6.295   1.854  11.892 -0.3449  0.1027  0.1887
   8923SM   O1111907   6.201   1.990  12.075 -0.2234  0.2133 -0.0276
   8923SM   O1211908   6.392   2.078  11.935  0.1239  0.2477 -0.6405
   8923SM   C1S11909   6.282   1.947  12.190  0.1067 -0.5427 -0.2581
   8923SM   H1S11910   6.368   2.018  12.200 -1.6974  1.6158  0.8463
   8923SM   H1T11911   6.322   1.844  12.178  0.0002 -0.6543  0.3459
   8923SM    NF11912   6.273   1.933  12.438  0.1217 -0.2412  0.5566
   8923SM   HNF11913   6.293   1.844  12.478  0.6197  0.3421  1.6632
   8923SM   C2S11914   6.195   1.946  12.314 -0.2605 -0.3990 -0.2095
   8923SM   H2S11915   6.140   2.042  12.326  2.4211  1.3457 -0.9499
   8923SM   C3S11916   6.088   1.832  12.306 -0.5019  0.1347  1.2247
   8923SM   H3S11917   6.143   1.736  12.303  1.0656  0.9661 -2.6720
   8923SM    O311918   6.006   1.837  12.188 -0.2927 -0.5187  0.0202
   8923SM   HO311919   6.051   1.903  12.135  0.7597  0.0142  1.5028
   8923SM   C4S11920   5.995   1.832  12.421  0.7993  0.2152 -0.4016
   8923SM   H4S11921   5.939   1.925  12.438 -1.7734 -1.5489  1.4380
   8923SM   C5S11922   5.982   1.738  12.517 -0.3129 -0.0818  0.3852
   8923SM   H5S11923   6.043   1.647  12.506 -0.6039 -0.0568 -2.1192
   8923SM   C6S11924   5.887   1.745  12.629  0.5960  0.2019 -0.2573
   8923SM   H6S11925   5.850   1.641  12.643  0.7217  0.1190 -0.5239
   8923SM   H6T11926   5.804   1.814  12.603 -0.3704 -0.6334  0.5622
   8923SM   C7S11927   5.944   1.794  12.764 -0.1845  0.8704  0.8548
   8923SM   H7S11928   5.999   1.889  12.747 -0.0605  0.7253  0.4223
   8923SM   H7T11929   6.016   1.714  12.792 -1.3589 -1.2462 -1.6841
   8923SM   C8S11930   5.845   1.806  12.876  0.1682 -0.5940 -0.0995
   8923SM   H8S11931   5.754   1.865  12.850  0.6566 -1.5132 -4.9454
   8923SM   H8T11932   5.890   1.868  12.956 -1.0726  0.9334 -0.5395
   8923SM   C9S11933   5.808   1.671  12.931 -0.5318  0.1164 -0.2369
   8923SM   H9S11934   5.902   1.629  12.974 -0.8280  0.7012  1.0481
   8923SM   H9T11935   5.778   1.606  12.847  2.2096 -0.2303 -1.0379
   8923SM  C10S11936   5.682   1.675  13.022 -0.8908 -0.1610  0.2084
   8923SM  H10S11937   5.646   1.572  13.040 -0.7302 -0.1552  0.5776
   8923SM  H10T11938   5.596   1.720  12.967  0.4368  0.7432 -1.2039
   8923SM  C11S11939   5.711   1.746  13.153  0.0624 -0.1011  0.0384
   8923SM  H11S11940   5.720   1.856  13.141 -0.9414 -0.0696 -0.5077
   8923SM  H11T11941   5.812   1.713  13.186 -0.1854 -0.8533  0.0601
   8923SM  C12S11942   5.602   1.733  13.262 -0.2193 -0.9860  0.1958
   8923SM  H12S11943   5.568   1.628  13.261  0.2556 -1.1550  1.2073
   8923SM  H12T11944   5.515   1.791  13.226 -1.0432 -2.0959  0.3420
   8923SM  C13S11945   5.643   1.798  13.400  0.0784 -0.5192 -0.0154
   8923SM  H13S11946   5.716   1.882  13.390 -1.6928  1.2009  0.9101
   8923SM  H13T11947   5.688   1.720  13.465  0.7803 -0.0259  0.1037
   8923SM  C14S11948   5.529   1.865  13.471  0.3090 -0.1902 -0.3375
   8923SM  H14S11949   5.439   1.803  13.453  0.5288 -1.3327  2.1161
   8923SM  H14T11950   5.511   1.966  13.427  0.4503  0.2945  0.6923
   8923SM  C15S11951   5.550   1.864  13.620  0.1876  0.3421 -0.1424
   8923SM  H15S11952   5.649   1.911  13.635  0.1485  0.7364 -1.0458
   8923SM  H15T11953   5.557   1.758  13.651 -0.4099  0.5756  0.8215
   8923SM  C16S11954   5.439   1.934  13.699 -0.1960 -0.3206 -0.0318
   8923SM  H16S11955   5.347   1.931  13.636 -1.6576 -0.5448  2.0165
   8923SM  H16T11956   5.465   2.040  13.720  0.1911 -0.8184  2.2100
   8923SM  C17S11957   5.407   1.857  13.828 -0.0312  0.3427 -0.8269
   8923SM  H17S11958   5.400   1.747  13.816  1.0819  0.1621  0.0195
   8923SM  H17T11959   5.310   1.902  13.862 -0.2375 -1.1705  0.6921
   8923SM  C18S11960   5.520   1.886  13.928  0.5611 -0.2032  0.5134
   8923SM  H18S11961   5.538   1.995  13.933  0.0917 -0.0935 -0.1074
   8923SM  H18T11962   5.616   1.843  13.892  1.2020 -0.1424  2.0442
   8923SM  H18U11963   5.482   1.840  14.022  0.9638  0.3532  0.9493
   8923SM   C1F11964   6.351   2.039  12.480 -0.1650 -0.0783  0.3538
   8923SM    OF11965   6.378   2.133  12.404  0.2807 -0.0054 -0.4044
   8923SM   C2F11966   6.416   2.028  12.619 -0.2011  0.3863 -0.1327
   8923SM   H2F11967   6.356   2.098  12.680 -2.3504 -0.9917 -0.5510
   8923SM   H2G11968   6.522   2.061  12.612  0.0937 -0.5530 -0.3446
   8923SM   C3F11969   6.398   1.883  12.671  0.7177  0.3208  0.1460
   8923SM   H3F11970   6.477   1.814  12.633  0.1952 -0.0253 -0.3343
   8923SM   H3G11971   6.297   1.841  12.656  0.5021  0.0104  2.1907
   8923SM   C4F11972   6.418   1.884  12.822  1.3467 -0.3730 -0.3124
   8923SM   H4F11973   6.381   1.979  12.867  0.2804 -1.6290  1.6049
   8923SM   H4G11974   6.526   1.879  12.846  1.2940  1.5258  0.4957
   8923SM   C5F11975   6.356   1.763  12.891  0.0148 -1.1437 -0.5056
   8923SM   H5F11976   6.399   1.678  12.834  0.2575 -0.8664 -0.7343
   8923SM   H5G11977   6.245   1.767  12.892 -0.0816  2.2975  3.2307
   8923SM   C6F11978   6.408   1.744  13.038 -0.1100 -0.2151  0.2622
   8923SM   H6F11979   6.518   1.738  13.026 -0.2295 -1.1937 -0.5087
   8923SM   H6G11980   6.393   1.645  13.086  0.7680 -0.1638  0.6660
   8923SM   C7F11981   6.369   1.857  13.137 -1.1864  0.1192  0.3351
   8923SM   H7F11982   6.267   1.847  13.180 -0.7126  0.1816  1.4872
   8923SM   H7G11983   6.391   1.950  13.079 -0.2732 -0.9778 -1.1747
   8923SM   C8F11984   6.466   1.873  13.255 -0.0595  0.5138 -0.8608
   8923SM   H8F11985   6.455   1.975  13.299  2.9009  1.0404 -1.0894
   8923SM   H8G11986   6.569   1.863  13.214 -0.0173  1.5963 -1.0688
   8923SM   C9F11987   6.438   1.764  13.359 -0.3653  0.5517  0.4874
   8923SM   H9F11988   6.468   1.661  13.330  0.4241  0.4079  1.7518
   8923SM   H9G11989   6.328   1.767  13.372 -0.7158  1.2327 -2.0316
   8923SM  C10F11990   6.515   1.785  13.495  0.7252 -0.6188  0.0890
   8923SM  H10F11991   6.624   1.799  13.478  0.5330  0.5481 -0.2936
   8923SM  H10G11992   6.514   1.696  13.562  3.2946  0.5379  1.8363
   8923SM  C11F11993   6.483   1.917  13.569 -0.4214 -0.4761  0.5630
   8923SM  H11F11994   6.374   1.911  13.591 -0.4553  0.3688  0.6783
   8923SM  H11G11995   6.486   2.008  13.505 -0.4617  0.6220  2.0834
   8923SM  C12F11996   6.557   1.938  13.703  0.2313 -0.4862  0.1531
   8923SM  H12F11997   6.663   1.923  13.676  0.2710 -1.2401  0.6898
   8923SM  H12G11998   6.533   1.857  13.776 -0.4314 -0.0022  0.4906
   8923SM  C13F11999   6.525   2.070  13.778  0.1313  0.6156  0.1376
   8923SM  H13F12000   6.570   2.150  13.715  2.3006 -0.2541  0.4857
   8923SM  H13G12001   6.593   2.078  13.866  0.7030  1.3990 -0.3685
   8923SM  C14F12002   6.379   2.097  13.808 -0.6239  0.4304  0.1050
   8923SM  H14F12003   6.331   1.999  13.828 -1.6221  0.9674  0.4556
   8923SM  H14G12004   6.319   2.145  13.728 -0.2321  0.8440  0.0545
   8923SM  C15F12005   6.365   2.189  13.929  0.4086  0.2207  0.0755
   8923SM  H15F12006   6.396   2.135  14.021  0.8685 -2.0543 -1.3206
   8923SM  H15G12007   6.256   2.200  13.947  0.1268 -0.9309 -0.7764
   8923SM  C16F12008   6.431   2.326  13.906 -0.3774  0.0689 -0.3741
   8923SM  H16F12009   6.389   2.371  13.814 -2.6214  0.4085  0.7376
   8923SM  H16G12010   6.541   2.314  13.896 -0.2132 -1.8549  2.4383
   8923SM  C17F12011   6.399   2.421  14.026  0.6308 -0.1235  0.3209
   8923SM  H17F12012   6.436   2.368  14.117  2.1562 -1.1664 -0.8605
   8923SM  H17G12013   6.291   2.444  14.040 -0.2005 -2.0089 -2.1812
   8923SM  C18F12014   6.486   2.546  14.021  0.6914 -0.5079 -0.1213
   8923SM  H18F12015   6.439   2.618  13.950  1.5634 -0.7272 -0.9388
   8923SM  H18G12016   6.588   2.524  13.982  1.7926  1.3014  1.5879
   8923SM  C19F12017   6.487   2.622  14.155  0.4348  0.7401  0.5148
   8923SM  H19F12018   6.512   2.556  14.241 -1.9004 -0.4870  0.3278
   8923SM  H19G12019   6.383   2.652  14.183  0.2271 -0.8197  1.5073
   8923SM  C20F12020   6.558   2.758  14.159  0.4865 -0.0207  0.2808
   8923SM  H20F12021   6.549   2.811  14.061  0.6431 -0.3539  0.0826
   8923SM  H20G12022   6.667   2.737  14.164  1.0099  2.0780 -0.9471
   8923SM  C21F12023   6.525   2.845  14.283 -0.4692  0.8907  0.5994
   8923SM  H21F12024   6.428   2.896  14.264 -1.8310 -0.6353  2.9497
   8923SM  H21G12025   6.607   2.919  14.288  0.9075 -0.6570  1.9278
   8923SM  C22F12026   6.514   2.783  14.422  0.6154  0.6605  0.5447
   8923SM  H22F12027   6.583   2.706  14.462 -0.3528  0.0175  1.0351
   8923SM  H22G12028   6.421   2.722  14.417 -0.8614  2.9214 -2.4473
   8923SM  C23F12029   6.495   2.895  14.536  0.1902 -0.0562  0.5064
   8923SM  H23F12030   6.546   2.982  14.489 -1.9557 -0.2864 -2.5959
   8923SM  H23G12031   6.536   2.867  14.635  2.0322  0.8609  0.0483
   8923SM  H23H12032   6.386   2.914  14.549 -0.5627 -3.5858  0.2792
   9023SM     N12033   5.899   1.153  11.993 -0.2190  0.2200 -1.0323
   9023SM   C1512034   5.979   1.270  11.942 -0.3846 -0.1257  0.1950
   9023SM  H15A12035   6.072   1.275  11.996  0.2431 -1.3463 -0.7316
   9023SM  H15B12036   5.927   1.364  11.959  2.2152  1.2355  1.1980
   9023SM  H15C12037   6.007   1.252  11.839  0.6284 -1.1147  0.6335
   9023SM   C1412038   5.771   1.148  11.912  0.4405 -0.1045 -0.1901
   9023SM  H14A12039   5.787   1.116  11.810 -1.8921 -0.1987 -0.5807
   9023SM  H14B12040   5.718   1.242  11.907 -1.1905 -0.9585  0.2232
   9023SM  H14C12041   5.703   1.074  11.951  0.9395  0.4668  1.9180
   9023SM   C1312042   5.982   1.029  11.981  0.1453 -0.5376  0.5543
   9023SM  H13A12043   5.947   0.944  12.039 -0.9265  0.0776  0.8322
   9023SM  H13B12044   6.086   1.040  12.009  0.5988 -1.2160 -0.7536
   9023SM  H13C12045   5.990   0.986  11.882 -1.3056  1.3953 -0.4583
   9023SM   C1212046   5.862   1.176  12.143 -0.3259  0.1351 -0.1118
   9023SM  H12A12047   5.785   1.109  12.177  0.4081  0.3443  2.1065
   9023SM  H12B12048   5.809   1.270  12.142 -0.2876  0.1560 -0.6641
   9023SM   C1112049   5.985   1.177  12.239  0.0079 -0.6119  0.1413
   9023SM  H11A12050   6.033   1.078  12.249 -1.1583 -1.4808 -2.1719
   9023SM  H11B12051   5.949   1.195  12.343 -3.7592 -0.2545 -1.0666
   9023SM     P12052   6.090   1.415  12.271 -0.3086  0.5675 -0.0535
   9023SM   O1312053   6.212   1.483  12.228 -0.1911 -0.2355 -0.1893
   9023SM   O1412054   5.966   1.483  12.246  0.0433 -0.1425  0.3884
   9023SM   O1112055   6.107   1.391  12.421  0.1114 -0.3187 -0.5067
   9023SM   O1212056   6.085   1.273  12.201  0.4348  0.1310 -0.2432
   9023SM   C1S12057   6.209   1.313  12.485  0.1527 -0.5022 -0.8846
   9023SM   H1S12058   6.302   1.338  12.431  0.8056  0.7333  0.7133
   9023SM   H1T12059   6.195   1.205  12.463 -4.4667 -0.0467 -1.2972
   9023SM    NF12060   6.330   1.279  12.698  0.3880  0.1088 -0.5936
   9023SM   HNF12061   6.330   1.187  12.735 -2.7075  1.2974  3.1189
   9023SM   C2S12062   6.205   1.333  12.638  0.2001  0.4274 -0.1778
   9023SM   H2S12063   6.196   1.441  12.663 -1.4981 -0.0939  1.6168
   9023SM   C3S12064   6.074   1.278  12.708 -1.3795 -1.4954 -0.0576
   9023SM   H3S12065   6.066   1.170  12.682  2.3490 -1.8690 -0.2013
   9023SM    O312066   5.957   1.349  12.670  0.3658  0.1696  0.1089
   9023SM   HO312067   5.978   1.391  12.587  1.0606 -0.9583 -0.3009
   9023SM   C4S12068   6.090   1.305  12.856  0.5481 -0.5190 -0.0217
   9023SM   H4S12069   6.085   1.414  12.873  0.1840 -0.7584  1.4645
   9023SM   C5S12070   6.095   1.226  12.962  0.2423  0.1441 -0.4170
   9023SM   H5S12071   6.087   1.119  12.941  1.2210  0.0252 -0.2469
   9023SM   C6S12072   6.078   1.284  13.103 -0.3680  0.2170  0.3174
   9023SM   H6S12073   6.099   1.206  13.179 -1.7912 -0.7703 -0.2477
   9023SM   H6T12074   5.976   1.316  13.133 -0.0634  3.1817 -1.3683
   9023SM   C7S12075   6.173   1.409  13.101  0.8684  0.0345  0.4704
   9023SM   H7S12076   6.134   1.489  13.035  0.6591  0.2811  0.8844
   9023SM   H7T12077   6.276   1.381  13.070  1.3046  0.9485  1.0322
   9023SM   C8S12078   6.187   1.476  13.237 -0.1839 -0.2187 -0.3199
   9023SM   H8S12079   6.241   1.569  13.212  1.5163 -1.0865  0.0013
   9023SM   H8T12080   6.250   1.417  13.307 -0.6490  1.4338  1.6082
   9023SM   C9S12081   6.052   1.527  13.299 -0.0643 -0.4200  0.0534
   9023SM   H9S12082   6.004   1.436  13.341  2.1594 -1.3636  0.7006
   9023SM   H9T12083   5.983   1.565  13.221 -0.1102  0.9790  0.7474
   9023SM  C10S12084   6.064   1.638  13.399 -0.5146  0.1725  0.1743
   9023SM  H10S12085   5.967   1.686  13.425 -1.2381 -0.9368 -0.3961
   9023SM  H10T12086   6.115   1.727  13.356 -2.2649  0.9760 -0.3284
   9023SM  C11S12087   6.131   1.604  13.527  0.3784  0.7556 -0.4188
   9023SM  H11S12088   6.236   1.568  13.516  0.1523  0.5068 -1.9109
   9023SM  H11T12089   6.075   1.512  13.555 -0.2787  0.6901 -1.8672
   9023SM  C12S12090   6.119   1.701  13.643 -0.0161 -0.2854 -0.1240
   9023SM  H12S12091   6.025   1.761  13.646  0.1611  0.1244 -1.8056
   9023SM  H12T12092   6.198   1.778  13.632 -2.3302  2.1133 -1.0843
   9023SM  C13S12093   6.144   1.643  13.789  0.0641  0.1109  0.3355
   9023SM  H13S12094   6.202   1.550  13.771  1.4193  1.0950 -0.6575
   9023SM  H13T12095   6.041   1.627  13.826  0.5091  0.3989  1.7565
   9023SM  C14S12096   6.221   1.736  13.882 -0.0014 -0.7544  0.0215
   9023SM  H14S12097   6.196   1.844  13.871  1.0521 -0.3018  1.6988
   9023SM  H14T12098   6.326   1.732  13.845 -0.2314  2.4217 -1.3493
   9023SM  C15S12099   6.208   1.688  14.027 -0.4917  0.1872 -0.2466
   9023SM  H15S12100   6.199   1.577  14.023 -2.0680  0.3233 -1.4513
   9023SM  H15T12101   6.116   1.731  14.072  0.9361  2.3403  0.7761
   9023SM  C16S12102   6.333   1.703  14.115  0.0916  0.1246  0.2009
   9023SM  H16S12103   6.423   1.657  14.070 -1.7645 -1.3714 -2.2560
   9023SM  H16T12104   6.304   1.634  14.196 -2.5423  1.1793  0.2571
   9023SM  C17S12105   6.369   1.844  14.167  0.2188  0.4602  0.2849
   9023SM  H17S12106   6.271   1.889  14.195  0.3794 -0.5894  2.8244
   9023SM  H17T12107   6.418   1.914  14.096 -3.3995  3.0062 -0.0099
   9023SM  C18S12108   6.463   1.832  14.281  0.2893 -0.3449  0.3078
   9023SM  H18S12109   6.466   1.926  14.340 -0.4710 -0.0230 -0.1457
   9023SM  H18T12110   6.564   1.810  14.241  0.3366  1.1549 -0.4440
   9023SM  H18U12111   6.434   1.741  14.338  0.0667 -2.2995 -2.7038
   9023SM   C1F12112   6.449   1.335  12.688 -0.1736 -0.7758 -0.2319
   9023SM    OF12113   6.463   1.431  12.607 -0.6009 -0.0241 -0.3034
   9023SM   C2F12114   6.557   1.276  12.771 -0.0657 -0.0240  0.0085
   9023SM   H2F12115   6.654   1.272  12.715 -0.0363  0.2536  0.0407
   9023SM   H2G12116   6.533   1.170  12.795  0.9036  0.1174  1.8082
   9023SM   C3F12117   6.595   1.362  12.894  0.0825 -0.1804  0.1376
   9023SM   H3F12118   6.509   1.370  12.964 -2.5418 -2.4458 -2.5250
   9023SM   H3G12119   6.617   1.464  12.858  0.7556  0.4121  2.0927
   9023SM   C4F12120   6.717   1.304  12.971  0.2187 -0.0284  0.1990
   9023SM   H4F12121   6.803   1.313  12.901 -0.3381  0.2537 -0.4567
   9023SM   H4G12122   6.712   1.194  12.988  2.3603 -0.3544 -0.9002
   9023SM   C5F12123   6.757   1.373  13.105 -0.8320 -0.1170 -0.3510
   9023SM   H5F12124   6.834   1.306  13.150  0.0585  0.1192 -1.4482
   9023SM   H5G12125   6.665   1.367  13.166 -1.1270 -1.5801 -0.8862
   9023SM   C6F12126   6.815   1.510  13.101 -0.6002  0.4708 -0.2443
   9023SM   H6F12127   6.756   1.567  13.026 -0.6833  0.7563  0.0336
   9023SM   H6G12128   6.915   1.495  13.056 -1.5591 -2.0082 -1.7516
   9023SM   C7F12129   6.809   1.585  13.241 -0.5584  0.1596  0.5687
   9023SM   H7F12130   6.706   1.574  13.282 -0.2825 -1.1026  0.9490
   9023SM   H7G12131   6.824   1.695  13.234 -1.1071  0.1992 -0.0613
   9023SM   C8F12132   6.900   1.539  13.359 -0.7476  0.4894 -0.0878
   9023SM   H8F12133   7.000   1.584  13.343 -0.0694 -1.5117 -2.0007
   9023SM   H8G12134   6.913   1.430  13.348 -0.0117 -0.0068  4.0989
   9023SM   C9F12135   6.840   1.562  13.503 -0.2475  0.9430 -0.0034
   9023SM   H9F12136   6.749   1.500  13.518  0.1609  0.0422 -1.1085
   9023SM   H9G12137   6.801   1.665  13.492  0.0946  1.1106  0.3338
   9023SM  C10F12138   6.937   1.527  13.618  0.1072  0.0173 -0.6075
   9023SM  H10F12139   7.032   1.582  13.599  0.0752 -0.5783 -2.6952
   9023SM  H10G12140   6.961   1.419  13.616 -0.3182 -0.0891 -0.2474
   9023SM  C11F12141   6.876   1.561  13.757 -0.3153 -0.4265  0.0568
   9023SM  H11F12142   6.935   1.507  13.834  0.1873  2.3496  1.7724
   9023SM  H11G12143   6.777   1.510  13.765 -0.7407  0.3078 -0.3836
   9023SM  C12F12144   6.855   1.710  13.792  0.5741  0.7385 -0.5963
   9023SM  H12F12145   6.781   1.746  13.717  2.1231  2.5043 -1.3634
   9023SM  H12G12146   6.944   1.767  13.757  0.8647 -1.0324 -3.0578
   9023SM  C13F12147   6.805   1.752  13.932  0.9383 -1.0708  0.6012
   9023SM  H13F12148   6.761   1.664  13.982 -0.7204 -0.9913 -0.6129
   9023SM  H13G12149   6.719   1.820  13.913  0.3208 -2.1967 -0.8906
   9023SM  C14F12150   6.901   1.820  14.031  0.2914 -0.5329 -0.1629
   9023SM  H14F12151   6.924   1.915  13.979  0.6815  0.2615  1.4116
   9023SM  H14G12152   6.994   1.760  14.043  0.7955  0.5784  1.7603
   9023SM  C15F12153   6.847   1.839  14.173  0.4967  0.2900 -0.5552
   9023SM  H15F12154   6.936   1.859  14.236  0.7847 -0.7230 -0.6209
   9023SM  H15G12155   6.795   1.747  14.208 -0.4744  0.8456 -0.5058
   9023SM  C16F12156   6.759   1.958  14.177 -0.2452 -0.5599 -0.0649
   9023SM  H16F12157   6.712   1.979  14.275  0.5631 -0.7085  0.3695
   9023SM  H16G12158   6.678   1.950  14.101 -0.7269 -0.2465  0.4128
   9023SM  C17F12159   6.836   2.092  14.158 -0.3659  0.1316 -0.4284
   9023SM  H17F12160   6.937   2.085  14.112  0.6261  2.1061  1.2499
   9023SM  H17G12161   6.860   2.142  14.254  0.6376 -1.1233 -0.0011
   9023SM  C18F12162   6.756   2.202  14.077 -0.1773  0.0410  0.5934
   9023SM  H18F12163   6.660   2.231  14.126  0.5664 -0.0132  2.1295
   9023SM  H18G12164   6.740   2.155  13.978  3.2990  0.4858 -0.2903
   9023SM  C19F12165   6.824   2.342  14.055  0.2814 -0.0195  0.0848
   9023SM  H19F12166   6.776   2.391  13.967  0.5060  0.9601  0.4939
   9023SM  H19G12167   6.927   2.323  14.021  0.0993 -0.7440 -0.0733
   9023SM  C20F12168   6.823   2.425  14.182 -0.4353 -0.3297 -0.4192
   9023SM  H20F12169   6.870   2.369  14.266  2.2750  1.0239 -0.9247
   9023SM  H20G12170   6.717   2.435  14.215 -1.0553 -0.1427 -2.3363
   9023SM  C21F12171   6.885   2.564  14.173  0.0566 -0.5027 -0.3958
   9023SM  H21F12172   6.862   2.613  14.270  0.0381 -0.6035 -0.3487
   9023SM  H21G12173   6.828   2.610  14.089 -3.0585 -2.5312  0.4115
   9023SM  C22F12174   7.038   2.551  14.160 -0.0563  0.4891 -0.5781
   9023SM  H22F12175   7.071   2.656  14.148  0.3027  0.1804 -2.5846
   9023SM  H22G12176   7.066   2.496  14.068  1.8192 -0.0810  0.2754
   9023SM  C23F12177   7.104   2.498  14.298 -0.0785 -0.0171  0.1109
   9023SM  H23F12178   7.214   2.513  14.297 -0.0713  0.5490  2.6860
   9023SM  H23G12179   7.077   2.393  14.318  0.4572 -0.2723 -0.4640
   9023SM  H23H12180   7.064   2.545  14.390  0.7138  0.5757  0.1666
   9123SM     N12181   7.068   4.975  11.607  0.8426  0.2868  0.6669
   9123SM   C1512182   7.134   5.108  11.605  0.2587  0.1108 -0.6388
   9123SM  H15A12183   7.121   5.175  11.688  1.9866  0.3807 -0.5378
   9123SM  H15B12184   7.105   5.163  11.517 -1.5656 -3.1477 -2.2616
   9123SM  H15C12185   7.241   5.097  11.611  0.6763  3.1080 -1.0964
   9123SM   C1412186   7.065   4.917  11.465 -0.1038 -0.4201  0.1834
   9123SM  H14A12187   6.999   4.982  11.409  0.4663  2.0988  2.2393
   9123SM  H14B12188   7.026   4.817  11.468 -1.0025 -0.1065 -0.6800
   9123SM  H14C12189   7.164   4.929  11.424 -0.8484  1.0979 -1.3317
   9123SM   C1312190   7.148   4.875  11.685  0.0400  0.0315  0.2905
   9123SM  H13A12191   7.175   4.926  11.776  0.4014  2.6077 -1.1479
   9123SM  H13B12192   7.239   4.848  11.633 -0.7510 -0.0644 -1.0968
   9123SM  H13C12193   7.086   4.788  11.702 -1.6929  1.1366 -0.0692
   9123SM   C1212194   6.928   4.991  11.667  0.0061  0.7752 -0.2709
   9123SM  H12A12195   6.882   4.893  11.669  0.8740  0.2930 -1.9727
   9123SM  H12B12196   6.872   5.049  11.595  1.3826  0.3461 -1.7620
   9123SM   C1112197   6.906   5.035  11.816 -1.1777  0.1248  0.1459
   9123SM  H11A12198   6.799   5.063  11.820 -0.7926  1.5391  1.4332
   9123SM  H11B12199   6.943   5.139  11.829 -1.6648  0.0985  2.0604
   9123SM     P12200   6.883   4.805  11.949  0.1003 -0.2144  0.6873
   9123SM   O1312201   6.769   4.783  11.860 -0.5330  0.0839 -0.1866
   9123SM   O1412202   6.992   4.702  11.928  0.2688 -0.2119 -0.0035
   9123SM   O1112203   6.823   4.818  12.099  0.2539  0.0903  0.1657
   9123SM   O1212204   6.946   4.940  11.915  0.2707 -0.0822  0.4327
   9123SM   C1S12205   6.919   4.801  12.204 -0.1741 -0.0956 -0.7849
   9123SM   H1S12206   6.978   4.893  12.222 -2.1293  1.3373 -1.3090
   9123SM   H1T12207   6.975   4.705  12.206 -0.2226 -0.1238 -0.7566
   9123SM    NF12208   6.941   4.762  12.456  0.3356  0.5903  0.3247
   9123SM   HNF12209   6.945   4.670  12.494  0.1422  0.0326 -0.9493
   9123SM   C2S12210   6.848   4.788  12.345 -0.0844 -0.2517  0.3839
   9123SM   H2S12211   6.804   4.889  12.357 -0.9945 -0.1931 -2.6230
   9123SM   C3S12212   6.731   4.679  12.335 -0.1045  0.7177  0.2350
   9123SM   H3S12213   6.776   4.582  12.305  0.4257  0.1639  2.5874
   9123SM    O312214   6.637   4.686  12.231 -0.5561  0.0244 -0.4386
   9123SM   HO312215   6.681   4.730  12.158  0.1584 -1.5984 -1.0215
   9123SM   C4S12216   6.658   4.667  12.461 -0.0366  0.0292  0.3879
   9123SM   H4S12217   6.700   4.587  12.523 -0.1229  0.3153  0.8182
   9123SM   C5S12218   6.550   4.733  12.505 -0.6158  0.4849  0.1886
   9123SM   H5S12219   6.497   4.806  12.442  1.8852  1.9611 -0.3065
   9123SM   C6S12220   6.490   4.694  12.639 -0.2449  0.5806  0.4742
   9123SM   H6S12221   6.488   4.583  12.643 -1.1553  0.5271 -0.7863
   9123SM   H6T12222   6.385   4.731  12.643  0.3693  2.6446 -1.0948
   9123SM   C7S12223   6.562   4.763  12.756 -0.1197 -0.0732  0.2487
   9123SM   H7S12224   6.582   4.867  12.723 -0.2962 -0.4611 -1.1133
   9123SM   H7T12225   6.664   4.718  12.754 -0.5029 -0.9373 -1.0187
   9123SM   C8S12226   6.498   4.760  12.897 -0.0321 -0.2124  0.0690
   9123SM   H8S12227   6.574   4.782  12.975  0.3721 -2.5544  0.4243
   9123SM   H8T12228   6.473   4.653  12.914  0.1183 -0.3023 -0.2530
   9123SM   C9S12229   6.377   4.849  12.906 -0.0578  0.9603  0.2348
   9123SM   H9S12230   6.301   4.816  12.833  1.3659 -0.1692 -0.7969
   9123SM   H9T12231   6.411   4.947  12.866  0.8765  0.0362 -1.3075
   9123SM  C10S12232   6.308   4.851  13.041  0.2631 -0.3140 -0.0663
   9123SM  H10S12233   6.376   4.871  13.127  1.1133 -0.2810 -0.7419
   9123SM  H10T12234   6.261   4.756  13.075  3.9182 -2.0918  0.5110
   9123SM  C11S12235   6.210   4.967  13.045 -0.1659 -0.6518 -0.5989
   9123SM  H11S12236   6.135   4.952  12.964 -0.0829 -1.1405 -0.5839
   9123SM  H11T12237   6.264   5.060  13.015 -0.6623  0.1685  0.9533
   9123SM  C12S12238   6.132   4.983  13.181 -0.3459 -0.3477  0.4546
   9123SM  H12S12239   6.060   4.901  13.203  0.1132 -0.5348  1.3437
   9123SM  H12T12240   6.078   5.079  13.172 -1.4526 -0.9175  0.7890
   9123SM  C13S12241   6.222   4.998  13.301  0.1127 -0.9843 -0.3598
   9123SM  H13S12242   6.303   5.070  13.277  2.8077 -3.5182  0.5151
   9123SM  H13T12243   6.257   4.902  13.344 -0.3277 -0.7911  0.4337
   9123SM  C14S12244   6.140   5.056  13.416 -0.3328 -0.2268  0.3443
   9123SM  H14S12245   6.050   4.993  13.429  0.4036 -1.2585  0.5662
   9123SM  H14T12246   6.108   5.155  13.376  1.4318 -0.7082 -2.6015
   9123SM  C15S12247   6.220   5.070  13.546  0.2600 -0.4623  0.4064
   9123SM  H15S12248   6.311   5.133  13.537 -0.4776  0.8191  1.6384
   9123SM  H15T12249   6.246   4.966  13.578  1.8580 -0.0019  0.6815
   9123SM  C16S12250   6.140   5.137  13.658 -0.4118  0.2130 -0.0805
   9123SM  H16S12251   6.060   5.064  13.681 -0.8139  0.2034 -1.4318
   9123SM  H16T12252   6.091   5.220  13.604  0.4100  0.5963 -0.2608
   9123SM  C17S12253   6.228   5.170  13.775  0.4563  0.4535  0.5546
   9123SM  H17S12254   6.167   5.216  13.855  0.9386  0.7604  0.7478
   9123SM  H17T12255   6.305   5.247  13.753  0.9014 -1.0064 -4.1825
   9123SM  C18S12256   6.283   5.036  13.841 -0.2155 -0.3113  0.3397
   9123SM  H18S12257   6.372   4.995  13.788 -0.7646 -0.9461 -0.1021
   9123SM  H18T12258   6.197   4.967  13.829 -0.4263  0.2570 -1.7166
   9123SM  H18U12259   6.314   5.068  13.943  2.8383  2.8192 -1.3709
   9123SM   C1F12260   7.031   4.851  12.487  0.0864  0.0719  0.1090
   9123SM    OF12261   7.027   4.963  12.442  0.0593  0.2910 -0.4345
   9123SM   C2F12262   7.138   4.803  12.588  1.1871 -0.0626  0.0522
   9123SM   H2F12263   7.239   4.814  12.544  1.1423 -0.2240 -0.0926
   9123SM   H2G12264   7.117   4.695  12.604 -0.5709  0.0960 -0.8625
   9123SM   C3F12265   7.136   4.877  12.719 -0.5505  0.0101 -0.2817
   9123SM   H3F12266   7.177   4.979  12.698 -2.1616  0.8752  0.5953
   9123SM   H3G12267   7.210   4.827  12.785  0.5444 -0.2123 -1.6072
   9123SM   C4F12268   7.001   4.891  12.788  0.4507 -0.0375  0.1536
   9123SM   H4F12269   6.922   4.919  12.714  1.2537  1.9215 -0.0288
   9123SM   H4G12270   7.012   4.968  12.867  0.7158 -0.3521  0.4256
   9123SM   C5F12271   6.961   4.763  12.865 -0.4498  0.9867 -0.0282
   9123SM   H5F12272   6.944   4.676  12.798 -1.8414 -1.1846  2.9217
   9123SM   H5G12273   6.859   4.774  12.908 -0.8079 -1.3408 -0.1253
   9123SM   C6F12274   7.054   4.712  12.973 -0.2591  0.8872 -0.2928
   9123SM   H6F12275   7.072   4.795  13.045 -0.9604  1.0423 -0.2906
   9123SM   H6G12276   7.155   4.686  12.935  0.8783  0.8344  2.4613
   9123SM   C7F12277   6.992   4.595  13.045 -0.3758 -1.1906  0.1210
   9123SM   H7F12278   6.962   4.515  12.975  0.0077  0.1838 -1.6934
   9123SM   H7G12279   6.901   4.622  13.103 -0.2164 -1.0482  0.3077
   9123SM   C8F12280   7.087   4.546  13.150 -0.2238  0.9508  0.4379
   9123SM   H8F12281   7.130   4.633  13.204  0.5562  1.3620 -0.7974
   9123SM   H8G12282   7.170   4.493  13.098  0.0747  0.7877  1.0664
   9123SM   C9F12283   7.037   4.434  13.254  0.2306  0.3477 -0.5997
   9123SM   H9F12284   6.951   4.472  13.312  2.2412  2.5583  1.1163
   9123SM   H9G12285   7.129   4.434  13.315  0.3828  0.2768 -0.8271
   9123SM  C10F12286   7.014   4.295  13.187  0.3608 -1.0100 -0.4074
   9123SM  H10F12287   7.100   4.264  13.124  1.5027  0.0330  0.5796
   9123SM  H10G12288   6.928   4.297  13.117 -0.8674  1.1917  1.0569
   9123SM  C11F12289   6.984   4.189  13.294  0.0167 -0.5889 -0.5620
   9123SM  H11F12290   6.901   4.234  13.352 -0.1907  1.8738 -2.5968
   9123SM  H11G12291   7.074   4.175  13.359 -1.1149 -1.4419  0.9020
   9123SM  C12F12292   6.939   4.061  13.222  0.3618  0.8374  0.6886
   9123SM  H12F12293   6.953   3.977  13.294 -1.9157  0.0996  0.3612
   9123SM  H12G12294   6.991   4.020  13.132 -0.9420 -3.1079  1.5040
   9123SM  C13F12295   6.782   4.070  13.191 -1.1740  0.2417 -0.6766
   9123SM  H13F12296   6.768   4.064  13.081 -2.4088 -2.7183 -0.4449
   9123SM  H13G12297   6.741   4.170  13.217 -2.4857 -0.1594 -1.0995
   9123SM  C14F12298   6.700   3.962  13.265 -0.3066 -0.1469 -0.1209
   9123SM  H14F12299   6.726   3.956  13.373  3.0786 -1.0275 -0.8691
   9123SM  H14G12300   6.734   3.864  13.225  2.2251 -0.1909  1.8484
   9123SM  C15F12301   6.553   3.978  13.245  0.0336 -0.2866 -0.0972
   9123SM  H15F12302   6.507   3.877  13.239  0.3348 -0.3618 -1.6260
   9123SM  H15G12303   6.534   4.027  13.147 -0.3236  2.3544  1.1914
   9123SM  C16F12304   6.488   4.054  13.361 -0.4191 -0.0353 -0.0439
   9123SM  H16F12305   6.559   4.138  13.379 -0.3923  0.4325 -2.1033
   9123SM  H16G12306   6.480   3.981  13.444 -1.6510 -0.8012 -0.8054
   9123SM  C17F12307   6.357   4.130  13.341 -0.5579 -0.0390  0.5390
   9123SM  H17F12308   6.356   4.201  13.255  1.6081 -1.1700 -0.4990
   9123SM  H17G12309   6.356   4.196  13.430  0.5932  1.3649 -0.4326
   9123SM  C18F12310   6.230   4.051  13.323  0.0196  0.6767 -0.0510
   9123SM  H18F12311   6.225   3.975  13.404  1.5634  0.1711 -0.4040
   9123SM  H18G12312   6.244   4.000  13.225 -1.0424 -0.9996  0.6188
   9123SM  C19F12313   6.111   4.143  13.324  0.2941 -0.6208 -1.0892
   9123SM  H19F12314   6.141   4.223  13.253  0.6536  0.5753  0.3553
   9123SM  H19G12315   6.099   4.200  13.419 -1.1460 -0.5701 -1.2711
   9123SM  C20F12316   5.978   4.079  13.289 -0.4473 -0.0932  0.2460
   9123SM  H20F12317   6.003   4.046  13.186  1.9305  0.0543  0.7295
   9123SM  H20G12318   5.901   4.159  13.296 -0.4741 -0.1818  1.0391
   9123SM  C21F12319   5.938   3.961  13.368  0.1745  1.1644  0.3235
   9123SM  H21F12320   6.022   3.893  13.395 -1.1234 -0.8856 -0.5286
   9123SM  H21G12321   5.868   3.894  13.313 -0.0328  0.4567  1.4054
   9123SM  C22F12322   5.868   4.000  13.502 -0.0273  0.4824 -0.2269
   9123SM  H22F12323   5.800   4.084  13.476 -1.1367 -0.9325 -2.1843
   9123SM  H22G12324   5.955   4.029  13.564  0.6625  0.6878 -1.2567
   9123SM  C23F12325   5.793   3.887  13.572  0.3998 -0.0289  0.4907
   9123SM  H23F12326   5.863   3.803  13.595  1.4151  0.7287  0.1997
   9123SM  H23G12327   5.706   3.848  13.515  1.6261  0.6219 -1.9803
   9123SM  H23H12328   5.764   3.926  13.671 -1.1485 -2.5726  1.1573
   9223SM     N12329   6.185   0.619  12.349  0.1187 -0.2630  0.3288
   9223SM   C1512330   6.287   0.633  12.239  0.4757 -0.4372  0.2523
   9223SM  H15A12331   6.383   0.657  12.281 -0.0180  2.1328  0.1077
   9223SM  H15B12332   6.248   0.715  12.180  0.2715  0.3854  1.4902
   9223SM  H15C12333   6.298   0.550  12.171 -0.7853  0.0059 -0.5456
   9223SM   C1412334   6.210   0.499  12.429 -0.0083  0.2687 -0.1770
   9223SM  H14A12335   6.237   0.411  12.373  0.1788 -0.3673  0.8944
   9223SM  H14B12336   6.128   0.486  12.499  1.0586  0.3689  1.1377
   9223SM  H14C12337   6.298   0.504  12.492 -0.0212  1.3356 -0.2207
   9223SM   C1312338   6.195   0.739  12.435  0.4672 -0.7156 -0.1176
   9223SM  H13A12339   6.299   0.769  12.434  0.5962 -1.0251  1.6053
   9223SM  H13B12340   6.162   0.706  12.532 -1.0371 -1.8885 -0.9911
   9223SM  H13C12341   6.135   0.815  12.388  0.0427 -0.6699  0.4998
   9223SM   C1212342   6.045   0.623  12.287  0.0347 -0.3606  0.5860
   9223SM  H12A12343   5.970   0.578  12.351 -0.4545  1.4577  1.3512
   9223SM  H12B12344   6.054   0.561  12.199  0.8012  0.5038  0.0491
   9223SM   C1112345   5.993   0.756  12.249 -0.2980  0.2712  0.4550
   9223SM  H11A12346   5.917   0.743  12.169  0.4015 -3.1734  0.1894
   9223SM  H11B12347   6.073   0.816  12.201  0.7806 -1.2095  0.3447
   9223SM     P12348   5.797   0.782  12.424 -0.2730 -0.0717 -0.1490
   9223SM   O1312349   5.680   0.796  12.336  0.2460 -0.1194 -0.0629
   9223SM   O1412350   5.822   0.646  12.482 -0.1985  0.2478  0.1861
   9223SM   O1112351   5.772   0.885  12.539  0.1609 -0.0444 -0.4722
   9223SM   O1212352   5.937   0.834  12.361  0.4044  0.1175 -0.0271
   9223SM   C1S12353   5.751   1.027  12.512 -0.2769 -0.3201 -0.2343
   9223SM   H1S12354   5.677   1.038  12.430 -0.6087 -1.1653 -0.0541
   9223SM   H1T12355   5.852   1.071  12.497 -0.5711  0.5259  0.1869
   9223SM    NF12356   5.701   1.240  12.606  0.0480  0.1913  0.1935
   9223SM   HNF12357   5.781   1.289  12.641 -1.6945  1.5377  2.5698
   9223SM   C2S12358   5.690   1.102  12.632  0.2289  0.0811  0.3595
   9223SM   H2S12359   5.581   1.083  12.647 -0.1077  1.8918  0.3654
   9223SM   C3S12360   5.757   1.069  12.766  0.4345 -0.2630  0.2833
   9223SM   H3S12361   5.856   1.119  12.758 -0.9853  2.4462 -3.0363
   9223SM    O312362   5.774   0.927  12.787 -1.0685 -1.2024 -0.5795
   9223SM   HO312363   5.750   0.883  12.706  1.3565 -0.8529 -1.5839
   9223SM   C4S12364   5.699   1.143  12.892 -0.0283 -0.5226  0.3642
   9223SM   H4S12365   5.760   1.231  12.916 -0.8213 -0.0751  0.7820
   9223SM   C5S12366   5.616   1.087  12.986 -0.3950 -0.4765  0.7063
   9223SM   H5S12367   5.576   0.987  12.970 -0.6941 -0.2633  0.1157
   9223SM   C6S12368   5.571   1.157  13.110  0.0402  0.4621 -0.0137
   9223SM   H6S12369   5.552   1.080  13.187 -0.3603  0.5229 -0.0497
   9223SM   H6T12370   5.478   1.216  13.096 -0.2152  0.2165  0.6297
   9223SM   C7S12371   5.671   1.258  13.172 -0.3983 -0.1744  0.5262
   9223SM   H7S12372   5.677   1.350  13.111 -3.0593  1.0616  1.9755
   9223SM   H7T12373   5.772   1.210  13.171  0.5969  1.8117  0.1863
   9223SM   C8S12374   5.629   1.282  13.315 -0.4426  0.4434  0.5015
   9223SM   H8S12375   5.596   1.185  13.360  1.5858 -0.0512  1.0130
   9223SM   H8T12376   5.544   1.353  13.309 -0.2288  0.6380 -0.3994
   9223SM   C9S12377   5.725   1.349  13.413 -0.1346 -0.1029  0.8761
   9223SM   H9S12378   5.759   1.447  13.372 -1.5660 -0.0292 -0.2016
   9223SM   H9T12379   5.822   1.295  13.408 -0.3003 -0.3652  0.5379
   9223SM  C10S12380   5.661   1.361  13.551 -0.1997 -0.6517  0.4075
   9223SM  H10S12381   5.653   1.259  13.594 -0.5865 -0.5299  0.6325
   9223SM  H10T12382   5.558   1.401  13.538 -0.3287 -0.9620  0.4698
   9223SM  C11S12383   5.737   1.449  13.656 -0.8092  0.9225  0.1725
   9223SM  H11S12384   5.754   1.546  13.605 -1.9907  0.5164 -1.0540
   9223SM  H11T12385   5.837   1.403  13.677 -0.7041  1.5917  1.1809
   9223SM  C12S12386   5.663   1.450  13.791 -0.1012 -0.5479 -0.0968
   9223SM  H12S12387   5.676   1.355  13.846 -1.7405 -1.5290 -1.3209
   9223SM  H12T12388   5.560   1.490  13.778  0.9938  2.4134 -0.5792
   9223SM  C13S12389   5.726   1.563  13.888 -0.1695 -0.0627 -0.2592
   9223SM  H13S12390   5.756   1.658  13.840  0.8021  0.4217  1.2389
   9223SM  H13T12391   5.819   1.521  13.931 -0.0206  1.5205  1.0435
   9223SM  C14S12392   5.652   1.579  14.019 -0.0647  0.5946 -0.6599
   9223SM  H14S12393   5.654   1.479  14.068  0.0587 -0.3503 -2.5163
   9223SM  H14T12394   5.544   1.595  14.000 -0.6950 -1.3475  0.9474
   9223SM  C15S12395   5.704   1.685  14.118 -0.2020  0.5190 -0.0802
   9223SM  H15S12396   5.616   1.731  14.167 -1.5796 -2.0282  0.0213
   9223SM  H15T12397   5.739   1.768  14.053  1.2538  1.1594  1.4511
   9223SM  C16S12398   5.816   1.634  14.209 -0.6293  0.2961  0.0921
   9223SM  H16S12399   5.895   1.581  14.152 -1.1176  0.7204 -1.0043
   9223SM  H16T12400   5.774   1.560  14.280  1.4496 -1.1391 -0.0904
   9223SM  C17S12401   5.864   1.737  14.311 -0.4033  0.1476  0.2848
   9223SM  H17S12402   5.885   1.838  14.269  1.4309  0.1961  1.2267
   9223SM  H17T12403   5.950   1.703  14.372  0.2353 -1.1132 -1.2553
   9223SM  C18S12404   5.754   1.762  14.410  0.1234  0.3285  0.4954
   9223SM  H18S12405   5.671   1.818  14.362 -2.2882 -3.9043 -0.9116
   9223SM  H18T12406   5.797   1.827  14.488  1.5328 -0.7433  0.6540
   9223SM  H18U12407   5.706   1.672  14.455 -0.4306  0.7433  0.7423
   9223SM   C1F12408   5.630   1.306  12.516  0.4599 -0.9635  0.1525
   9223SM    OF12409   5.550   1.247  12.453 -0.1886  0.1179  0.1285
   9223SM   C2F12410   5.654   1.454  12.484 -0.4467  0.2041  0.3604
   9223SM   H2F12411   5.691   1.461  12.380 -0.9683  0.3612  0.1823
   9223SM   H2G12412   5.740   1.480  12.550  0.1058  0.1439 -0.3229
   9223SM   C3F12413   5.533   1.551  12.490 -0.0727 -0.0255 -0.6588
   9223SM   H3F12414   5.438   1.517  12.442  1.2429 -5.3868 -0.0688
   9223SM   H3G12415   5.577   1.641  12.441 -1.8724  1.9052  1.0677
   9223SM   C4F12416   5.506   1.608  12.633 -0.1093  0.4635  0.5890
   9223SM   H4F12417   5.430   1.689  12.623  0.4293  0.8422 -0.6356
   9223SM   H4G12418   5.599   1.651  12.675  0.3875  0.1455 -0.1622
   9223SM   C5F12419   5.464   1.500  12.734  0.4392 -0.4148  0.5476
   9223SM   H5F12420   5.471   1.552  12.832 -0.4576 -1.6833  1.3174
   9223SM   H5G12421   5.541   1.420  12.742 -0.5833 -1.3516  1.3515
   9223SM   C6F12422   5.324   1.442  12.710  0.4210  0.3201 -0.3570
   9223SM   H6F12423   5.322   1.407  12.604 -0.0530  0.4043 -0.3796
   9223SM   H6G12424   5.238   1.513  12.717  0.5337  0.3818  0.4808
   9223SM   C7F12425   5.305   1.320  12.799  0.1136  0.4846 -0.5376
   9223SM   H7F12426   5.300   1.362  12.902  0.2110  0.9035 -0.7016
   9223SM   H7G12427   5.394   1.255  12.786 -0.7346 -1.2052  1.5242
   9223SM   C8F12428   5.172   1.244  12.789 -0.3551  0.1055  0.3809
   9223SM   H8F12429   5.203   1.148  12.836  0.3533  0.8076  1.3939
   9223SM   H8G12430   5.143   1.215  12.686 -1.3602  0.0917  0.6600
   9223SM   C9F12431   5.037   1.307  12.840 -0.6037  0.6480 -0.1505
   9223SM   H9F12432   4.956   1.235  12.816 -0.3708  0.2798  0.1537
   9223SM   H9G12433   5.035   1.410  12.798  1.3349  2.1016  2.9046
   9223SM  C10F12434   5.044   1.316  12.992  0.2083  0.9438 -0.2489
   9223SM  H10F12435   5.132   1.372  13.030  1.0436 -2.0779  2.6766
   9223SM  H10G12436   5.067   1.213  13.027 -0.7255 -0.1140 -2.5274
   9223SM  C11F12437   4.907   1.348  13.060  0.5257  0.1155 -0.1367
   9223SM  H11F12438   4.838   1.279  13.007  2.0949 -0.9379 -0.8747
   9223SM  H11G12439   4.878   1.453  13.040 -1.0639 -0.4042 -0.7537
   9223SM  C12F12440   4.907   1.319  13.209  0.1132  0.0867 -0.5241
   9223SM  H12F12441   4.961   1.400  13.261 -1.2008 -0.4135  1.7390
   9223SM  H12G12442   4.969   1.228  13.221  2.2051  1.4596 -0.5779
   9223SM  C13F12443   4.774   1.307  13.279  0.6433 -0.1806  0.1264
   9223SM  H13F12444   4.708   1.229  13.235  0.5068  0.3322 -0.5887
   9223SM  H13G12445   4.720   1.403  13.264  0.1945 -0.2726  1.0982
   9223SM  C14F12446   4.781   1.290  13.432 -0.7600 -0.3007 -0.8971
   9223SM  H14F12447   4.683   1.321  13.474 -0.7392  0.4020 -1.3493
   9223SM  H14G12448   4.849   1.368  13.472 -2.4238  1.6605 -1.7606
   9223SM  C15F12449   4.832   1.150  13.474  1.2204  0.2732  0.8995
   9223SM  H15F12450   4.935   1.135  13.435  1.2692 -0.6599  1.3485
   9223SM  H15G12451   4.782   1.070  13.415  1.7253  0.4503  0.2256
   9223SM  C16F12452   4.824   1.121  13.623  0.2344 -0.8462 -1.4207
   9223SM  H16F12453   4.883   1.192  13.686 -0.3261 -1.1266 -0.5602
   9223SM  H16G12454   4.879   1.027  13.645  1.7969  0.1245 -0.9756
   9223SM  C17F12455   4.690   1.091  13.685  1.2835  0.6529  0.2918
   9223SM  H17F12456   4.637   1.018  13.620 -3.0313  2.6743  1.2175
   9223SM  H17G12457   4.633   1.186  13.688 -0.0295 -0.1218  1.0696
   9223SM  C18F12458   4.687   1.023  13.820 -0.2336 -0.4448 -0.0358
   9223SM  H18F12459   4.755   0.935  13.829  0.2553  0.1506  4.2095
   9223SM  H18G12460   4.580   0.999  13.841 -0.4400  0.9674  0.5899
   9223SM  C19F12461   4.722   1.123  13.930 -0.9705  0.1948  0.4067
   9223SM  H19F12462   4.818   1.174  13.912 -1.7845  0.7994 -2.8390
   9223SM  H19G12463   4.727   1.065  14.025 -0.1660  0.6881  0.6705
   9223SM  C20F12464   4.630   1.244  13.949 -0.6644 -0.8214  0.3461
   9223SM  H20F12465   4.522   1.218  13.949 -1.4229  1.9761 -0.8029
   9223SM  H20G12466   4.645   1.321  13.870 -1.8133 -1.6139 -0.6771
   9223SM  C21F12467   4.660   1.311  14.085  0.1179 -0.3021 -0.7500
   9223SM  H21F12468   4.769   1.333  14.085  0.1816 -0.6191 -0.9930
   9223SM  H21G12469   4.642   1.240  14.169 -1.1530  1.0542  0.1794
   9223SM  C22F12470   4.564   1.425  14.111  0.2722 -0.9611  0.3197
   9223SM  H22F12471   4.456   1.406  14.094 -0.1186  1.0247  0.2461
   9223SM  H22G12472   4.590   1.513  14.048  1.2912 -3.6146 -3.2108
   9223SM  C23F12473   4.598   1.473  14.252  0.3270  0.6674 -0.9227
   9223SM  H23F12474   4.557   1.574  14.273  1.3649  0.7779  0.7055
   9223SM  H23G12475   4.708   1.466  14.266  0.2946 -0.0232 -0.9854
   9223SM  H23H12476   4.564   1.403  14.330  0.6609  0.6149 -0.8241
   9323SM     N12477   7.170   3.858  12.010 -0.1613  0.5600 -0.0705
   9323SM   C1512478   7.212   3.717  11.990  0.3319  0.0049 -0.1913
   9323SM  H15A12479   7.232   3.710  11.884 -0.4598 -2.2539 -0.2539
   9323SM  H15B12480   7.138   3.646  12.024  1.1331  0.2964  2.3650
   9323SM  H15C12481   7.301   3.691  12.046  0.0415 -0.7878 -0.0730
   9323SM   C1412482   7.278   3.917  12.104 -0.1378 -0.5100 -0.5070
   9323SM  H14A12483   7.276   3.869  12.201 -1.0064 -0.9678 -0.7378
   9323SM  H14B12484   7.263   4.024  12.114  0.0597 -0.3274 -1.9541
   9323SM  H14C12485   7.379   3.911  12.065 -0.0565  0.2968 -0.4384
   9323SM   C1312486   7.166   3.946  11.895  0.2510 -0.7799  0.1506
   9323SM  H13A12487   7.168   4.049  11.928  1.6918 -1.2199  1.5845
   9323SM  H13B12488   7.082   3.927  11.830 -0.5729 -1.2216  1.3054
   9323SM  H13C12489   7.250   3.943  11.827 -0.0972  3.1187 -0.6739
   9323SM   C1212490   7.039   3.853  12.093 -0.6167  0.0685 -0.3530
   9323SM  H12A12491   7.009   3.953  12.117 -0.5470 -0.0240  0.1170
   9323SM  H12B12492   7.067   3.808  12.187 -0.6502  1.7531  0.4961
   9323SM   C1112493   6.915   3.779  12.027 -0.2016  0.0154 -0.0647
   9323SM  H11A12494   6.901   3.826  11.927 -1.0212 -0.2685 -0.0937
   9323SM  H11B12495   6.831   3.818  12.089 -0.1895 -1.4570  0.9167
   9323SM     P12496   6.944   3.558  12.171 -0.2113  0.0597 -0.0596
   9323SM   O1312497   6.866   3.433  12.168 -0.5434 -0.4431 -0.1642
   9323SM   O1412498   7.094   3.549  12.191  0.3631 -0.4303 -0.2652
   9323SM   O1112499   6.888   3.651  12.284 -0.5349 -0.0489 -0.5350
   9323SM   O1212500   6.931   3.639  12.035 -0.0270  0.0152  0.7783
   9323SM   C1S12501   6.768   3.615  12.354 -0.9994  0.0210 -1.0069
   9323SM   H1S12502   6.783   3.520  12.410 -0.3700  1.6253  1.7383
   9323SM   H1T12503   6.678   3.607  12.289 -1.5963 -0.2389 -0.1765
   9323SM    NF12504   6.610   3.685  12.543  0.3664  0.0639  1.3849
   9323SM   HNF12505   6.527   3.724  12.504  0.1047 -2.7421 -1.3226
   9323SM   C2S12506   6.731   3.723  12.472  0.1997 -0.0080  0.0703
   9323SM   H2S12507   6.820   3.721  12.538 -0.5211 -0.8055  1.0471
   9323SM   C3S12508   6.728   3.865  12.419  0.0437 -0.2582  0.2548
   9323SM   H3S12509   6.643   3.878  12.349  0.3654 -0.4304 -0.1755
   9323SM    O312510   6.844   3.894  12.352  0.6807  0.4710  0.0853
   9323SM   HO312511   6.883   3.807  12.340 -2.0086 -1.4099  3.2661
   9323SM   C4S12512   6.706   3.965  12.530 -0.1927  0.1729 -0.3317
   9323SM   H4S12513   6.603   3.964  12.569  0.0776 -2.1551  0.4678
   9323SM   C5S12514   6.804   4.039  12.591 -0.1406  0.1912 -0.6430
   9323SM   H5S12515   6.905   4.025  12.549  0.8974 -1.8450  2.2205
   9323SM   C6S12516   6.792   4.117  12.716  0.2289  0.5712 -0.3511
   9323SM   H6S12517   6.888   4.132  12.771  0.1496  0.0575 -0.0620
   9323SM   H6T12518   6.726   4.067  12.790 -0.1145  0.5811 -0.6510
   9323SM   C7S12519   6.721   4.256  12.686 -0.4477 -0.1515  0.2324
   9323SM   H7S12520   6.617   4.223  12.662 -0.4020 -0.8513  0.9519
   9323SM   H7T12521   6.771   4.304  12.599 -0.8105  0.7470  0.5033
   9323SM   C8S12522   6.731   4.364  12.799 -0.1900  0.0120 -0.2361
   9323SM   H8S12523   6.727   4.468  12.760 -1.0241 -0.0347 -0.2967
   9323SM   H8T12524   6.824   4.352  12.859  0.2586  0.4749 -0.8308
   9323SM   C9S12525   6.628   4.348  12.911 -0.2732 -0.4705 -0.1963
   9323SM   H9S12526   6.627   4.244  12.950  0.3208 -0.4216 -0.0389
   9323SM   H9T12527   6.535   4.367  12.854  1.1576 -0.0629 -2.5408
   9323SM  C10S12528   6.649   4.448  13.028  0.5940 -0.1136  0.0883
   9323SM  H10S12529   6.656   4.547  12.978 -1.0478 -1.3611 -2.9266
   9323SM  H10T12530   6.746   4.427  13.078 -0.3536 -0.4051  1.8929
   9323SM  C11S12531   6.532   4.454  13.128 -0.5943  0.0185  0.4333
   9323SM  H11S12532   6.500   4.349  13.144 -1.1318  0.1432  0.1983
   9323SM  H11T12533   6.448   4.516  13.089  0.8221  1.4253 -0.5275
   9323SM  C12S12534   6.579   4.509  13.266  0.2799 -0.0774  0.5246
   9323SM  H12S12535   6.576   4.619  13.249  1.5183 -0.1255 -0.1242
   9323SM  H12T12536   6.682   4.474  13.288  0.4962 -1.5358 -2.2585
   9323SM  C13S12537   6.493   4.451  13.378  0.3786 -0.2386 -0.1488
   9323SM  H13S12538   6.497   4.340  13.371  0.0697 -0.1741 -1.4694
   9323SM  H13T12539   6.392   4.495  13.363  0.2959 -0.0434  0.8847
   9323SM  C14S12540   6.526   4.487  13.521 -0.3034 -0.5143 -0.2693
   9323SM  H14S12541   6.631   4.451  13.527 -0.0807  0.3195  1.2994
   9323SM  H14T12542   6.459   4.426  13.584  0.7438 -1.1791  0.2341
   9323SM  C15S12543   6.516   4.639  13.548 -0.0373  0.6079 -0.4426
   9323SM  H15S12544   6.600   4.680  13.608 -0.1178 -2.0043  1.6511
   9323SM  H15T12545   6.508   4.684  13.447  1.3436 -1.7728 -1.7056
   9323SM  C16S12546   6.394   4.665  13.633 -0.6142  0.3481  0.3129
   9323SM  H16S12547   6.307   4.603  13.603  0.3621 -2.8510  3.4985
   9323SM  H16T12548   6.372   4.774  13.627  0.3273  0.4699 -2.4012
   9323SM  C17S12549   6.418   4.628  13.779 -0.2747  0.5773  0.7806
   9323SM  H17S12550   6.463   4.527  13.782  0.6954  0.8110 -2.2004
   9323SM  H17T12551   6.314   4.625  13.818 -1.0147 -0.2478 -1.1037
   9323SM  C18S12552   6.506   4.723  13.866 -0.2616  0.4149  0.7453
   9323SM  H18S12553   6.608   4.732  13.824 -0.8772  3.7128 -0.3481
   9323SM  H18T12554   6.508   4.685  13.971 -0.3157  1.3455  1.0964
   9323SM  H18U12555   6.456   4.822  13.865  0.3786  0.7446 -1.0321
   9323SM   C1F12556   6.604   3.580  12.621  0.4370 -0.2503  0.4771
   9323SM    OF12557   6.709   3.518  12.652 -0.3534 -0.0123 -0.4940
   9323SM   C2F12558   6.462   3.550  12.677  0.5644  0.0825  0.2934
   9323SM   H2F12559   6.470   3.445  12.714  1.6874 -0.0948 -0.4219
   9323SM   H2G12560   6.391   3.563  12.593  1.2105 -1.4217 -0.5247
   9323SM   C3F12561   6.439   3.627  12.805 -0.1131 -0.2624 -0.4777
   9323SM   H3F12562   6.514   3.607  12.884 -0.5791  0.5679  0.1871
   9323SM   H3G12563   6.342   3.599  12.850  0.8348 -0.6344  1.4082
   9323SM   C4F12564   6.435   3.781  12.788 -0.0155  0.3801  0.1744
   9323SM   H4F12565   6.380   3.789  12.692 -0.2304 -3.7044 -0.2246
   9323SM   H4G12566   6.538   3.818  12.765  0.7455  0.0478  2.7842
   9323SM   C5F12567   6.382   3.856  12.905  0.3201  0.5958  0.0043
   9323SM   H5F12568   6.449   3.842  12.992  1.1240  1.4375 -0.4642
   9323SM   H5G12569   6.281   3.817  12.930 -0.1671 -1.1084 -3.8632
   9323SM   C6F12570   6.378   4.008  12.878  0.3978 -0.2051  0.1049
   9323SM   H6F12571   6.476   4.034  12.834  0.8844 -0.4391  1.0357
   9323SM   H6G12572   6.376   4.057  12.977  1.7944  3.6824 -1.6229
   9323SM   C7F12573   6.272   4.052  12.781  0.1797 -0.1498 -0.2414
   9323SM   H7F12574   6.174   4.006  12.804  0.5127 -0.8897 -0.2838
   9323SM   H7G12575   6.302   4.002  12.686  1.0534  1.5027 -0.8825
   9323SM   C8F12576   6.256   4.206  12.756  0.1169  0.3456  1.2654
   9323SM   H8F12577   6.239   4.235  12.650 -1.4979 -0.1754  1.3601
   9323SM   H8G12578   6.351   4.261  12.773  0.3360 -0.1776  1.7759
   9323SM   C9F12579   6.155   4.272  12.848  0.2105  0.1249 -0.4032
   9323SM   H9F12580   6.206   4.258  12.946 -0.7158  1.1726  0.2536
   9323SM   H9G12581   6.060   4.214  12.848  0.2509  0.0387  0.8766
   9323SM  C10F12582   6.131   4.421  12.827 -0.2023  0.9246 -0.3519
   9323SM  H10F12583   6.097   4.438  12.722  3.3627  1.1564 -1.5854
   9323SM  H10G12584   6.229   4.473  12.824 -0.2741  1.3674  2.3651
   9323SM  C11F12585   6.037   4.489  12.922  0.1150  0.0281  0.4047
   9323SM  H11F12586   5.945   4.427  12.924 -0.5680  1.0300  0.5618
   9323SM  H11G12587   6.020   4.591  12.881  1.0919  0.2858  0.5967
   9323SM  C12F12588   6.091   4.504  13.063 -0.4953  0.3330 -0.5017
   9323SM  H12F12589   6.193   4.549  13.065 -0.2180 -0.2953 -0.2536
   9323SM  H12G12590   6.109   4.401  13.102 -0.6126  0.5716  0.1948
   9323SM  C13F12591   6.003   4.589  13.159 -0.3490 -0.0812  0.3578
   9323SM  H13F12592   5.905   4.541  13.139  0.3175 -0.7401 -1.5579
   9323SM  H13G12593   6.005   4.691  13.114 -1.8052 -0.3455 -0.3291
   9323SM  C14F12594   6.052   4.579  13.304 -0.6312  0.2913  0.3261
   9323SM  H14F12595   6.149   4.630  13.326 -0.5803  0.4776 -0.3261
   9323SM  H14G12596   6.062   4.471  13.329  4.2838  0.0935 -1.3667
   9323SM  C15F12597   5.944   4.635  13.400 -0.4678  0.1841  0.1124
   9323SM  H15F12598   5.854   4.574  13.381  0.6218 -0.8391 -2.3010
   9323SM  H15G12599   5.920   4.739  13.367 -1.2786 -0.2601 -0.7253
   9323SM  C16F12600   5.986   4.638  13.542  0.3490 -0.4268  0.2044
   9323SM  H16F12601   5.906   4.686  13.602 -1.2685 -2.2764 -0.3356
   9323SM  H16G12602   6.078   4.698  13.557 -0.4233  0.7070  0.5197
   9323SM  C17F12603   6.021   4.501  13.600  0.4322  0.1642 -0.4725
   9323SM  H17F12604   6.118   4.451  13.583  0.5818 -0.5609  2.0964
   9323SM  H17G12605   5.934   4.442  13.565 -0.1832 -0.3718  1.7875
   9323SM  C18F12606   6.005   4.495  13.753 -0.1280  0.3896 -0.3849
   9323SM  H18F12607   5.906   4.537  13.781  0.5673  2.2332 -0.5839
   9323SM  H18G12608   6.085   4.558  13.796 -1.7862  1.2255  1.6444
   9323SM  C19F12609   6.010   4.353  13.814 -0.2475  0.4203  0.0381
   9323SM  H19F12610   5.985   4.356  13.923  1.3242 -0.7446  0.4656
   9323SM  H19G12611   6.115   4.318  13.805 -0.8323 -1.3927 -0.1854
   9323SM  C20F12612   5.910   4.251  13.759 -0.6126  0.5377  0.2892
   9323SM  H20F12613   5.933   4.230  13.653 -2.6237 -0.3803 -0.0183
   9323SM  H20G12614   5.813   4.305  13.762  0.1467  2.0696  4.5145
   9323SM  C21F12615   5.901   4.128  13.851  0.5507 -0.3029  0.9692
   9323SM  H21F12616   5.997   4.071  13.849  0.7482  0.0424 -0.0830
   9323SM  H21G12617   5.827   4.059  13.806  0.2820 -0.4913  1.6881
   9323SM  C22F12618   5.858   4.144  14.002 -0.3805  0.6497  0.3385
   9323SM  H22F12619   5.778   4.220  14.015 -0.5176  0.2485  2.0233
   9323SM  H22G12620   5.948   4.178  14.058 -1.2436  0.9548  1.5739
   9323SM  C23F12621   5.803   4.010  14.055 -0.7493  0.8852  0.3502
   9323SM  H23F12622   5.793   4.011  14.166  1.4706 -1.7192  0.6578
   9323SM  H23G12623   5.882   3.936  14.032 -0.5845 -0.0645  3.4760
   9323SM  H23H12624   5.703   3.990  14.011  0.5307 -2.9885 -1.2492
   9423SM     N12625   5.152   6.036  11.975  0.1723  0.2537  0.1385
   9423SM   C1512626   5.153   5.938  11.861  0.7385  0.3536 -0.8608
   9423SM  H15A12627   5.227   5.969  11.788 -1.1337  3.0929 -1.7115
   9423SM  H15B12628   5.056   5.925  11.815  0.1285 -1.0674  0.7313
   9423SM  H15C12629   5.175   5.839  11.899 -1.4725  0.6712  1.5122
   9423SM   C1412630   5.094   6.159  11.929  0.3750  0.2526  0.0307
   9423SM  H14A12631   5.163   6.201  11.858  1.0917 -0.0579  0.5333
   9423SM  H14B12632   5.082   6.232  12.008  1.2305  1.7888 -1.1968
   9423SM  H14C12633   4.998   6.137  11.884  0.2129 -0.3512  0.6503
   9423SM   C1312634   5.062   5.968  12.074 -0.2594  0.1963  0.2388
   9423SM  H13A12635   5.060   6.016  12.171  0.1090  0.5358  0.0843
   9423SM  H13B12636   5.099   5.868  12.093  0.5298  0.6761  1.3738
   9423SM  H13C12637   4.960   5.965  12.039  0.4185 -0.7967 -1.7668
   9423SM   C1212638   5.289   6.058  12.035 -0.1015 -0.1582  0.0650
   9423SM  H12A12639   5.320   5.959  12.065 -0.5642 -1.2845 -2.8086
   9423SM  H12B12640   5.279   6.130  12.114 -0.2296  1.9518 -1.7843
   9423SM   C1112641   5.395   6.117  11.933  0.1012 -0.0581 -0.7541
   9423SM  H11A12642   5.402   6.062  11.837  1.3889  0.4520 -0.9723
   9423SM  H11B12643   5.489   6.113  11.991 -0.4907  1.2240  0.3349
   9423SM     P12644   5.390   6.381  11.978  0.2711  0.1272  0.1145
   9423SM   O1312645   5.480   6.464  11.890 -1.3394 -0.1234 -0.4702
   9423SM   O1412646   5.256   6.436  12.009 -0.4077  0.3817  0.0614
   9423SM   O1112647   5.476   6.335  12.104 -0.2156 -0.4777  0.5008
   9423SM   O1212648   5.361   6.249  11.906 -0.1182  0.1052  0.4554
   9423SM   C1S12649   5.494   6.411  12.224  0.1688  0.6073  0.4321
   9423SM   H1S12650   5.396   6.428  12.273 -0.5316 -0.0924 -0.6841
   9423SM   H1T12651   5.538   6.511  12.204 -2.4562  2.0313  1.2940
   9423SM    NF12652   5.590   6.420  12.450  0.6040  0.1431  0.1556
   9423SM   HNF12653   5.658   6.492  12.463 -1.0928  1.9561 -0.6278
   9423SM   C2S12654   5.586   6.340  12.331  0.4148 -0.6447 -0.4108
   9423SM   H2S12655   5.547   6.239  12.356  2.1737 -1.3000 -0.1727
   9423SM   C3S12656   5.727   6.311  12.274  0.4877 -0.0951 -0.3075
   9423SM   H3S12657   5.773   6.410  12.254  0.3657  0.1682  0.6567
   9423SM    O312658   5.733   6.252  12.146 -0.2032 -0.6960  0.0063
   9423SM   HO312659   5.644   6.264  12.114 -1.1494 -1.9082  2.0144
   9423SM   C4S12660   5.805   6.226  12.372 -0.6765  0.3601  0.2097
   9423SM   H4S12661   5.763   6.143  12.431 -0.7488  1.2263  1.4048
   9423SM   C5S12662   5.938   6.246  12.391 -0.2480 -0.1991 -0.0335
   9423SM   H5S12663   6.000   6.315  12.331  0.9438 -0.3504  0.9766
   9423SM   C6S12664   6.020   6.170  12.497 -0.0783 -0.5543  0.6685
   9423SM   H6S12665   6.101   6.232  12.539 -0.7577  1.1380 -0.4105
   9423SM   H6T12666   6.062   6.090  12.433 -0.3122 -0.2681  0.1528
   9423SM   C7S12667   5.948   6.105  12.617  0.2586  0.4011  0.2442
   9423SM   H7S12668   5.845   6.068  12.597  1.0777 -1.6172 -0.5758
   9423SM   H7T12669   5.939   6.187  12.691 -1.5778  1.2638 -0.8627
   9423SM   C8S12670   6.013   5.972  12.672 -0.5535  0.3376  0.6275
   9423SM   H8S12671   6.118   6.006  12.678 -0.5275  0.5814 -0.9763
   9423SM   H8T12672   6.001   5.895  12.593  1.6201 -2.0428  2.4529
   9423SM   C9S12673   5.964   5.918  12.799  0.5078  0.2954 -0.3779
   9423SM   H9S12674   5.994   5.988  12.879 -1.9711  1.6702 -0.5590
   9423SM   H9T12675   6.014   5.824  12.830 -2.7455 -1.7891 -0.9334
   9423SM  C10S12676   5.813   5.896  12.813  0.9167 -0.6837  0.0186
   9423SM  H10S12677   5.790   5.823  12.732 -0.5987 -0.8459  0.5607
   9423SM  H10T12678   5.762   5.992  12.789  0.7616  0.4319  4.0419
   9423SM  C11S12679   5.770   5.846  12.946  0.6151  0.8094 -0.3715
   9423SM  H11S12680   5.746   5.931  13.013 -3.8671  2.2924 -3.3638
   9423SM  H11T12681   5.844   5.777  12.993  0.7000  0.1260 -1.4479
   9423SM  C12S12682   5.632   5.770  12.934 -0.6433  0.3910 -0.0231
   9423SM  H12S12683   5.631   5.692  12.855 -2.4365  1.3815 -1.0495
   9423SM  H12T12684   5.558   5.846  12.902 -0.6769  0.0861 -0.6755
   9423SM  C13S12685   5.597   5.718  13.076 -0.2808  0.5692  0.9723
   9423SM  H13S12686   5.593   5.811  13.137  2.0014  0.8976  0.7156
   9423SM  H13T12687   5.684   5.658  13.111 -0.9034 -2.2061 -1.7806
   9423SM  C14S12688   5.467   5.635  13.096 -0.2780  0.2241 -0.3809
   9423SM  H14S12689   5.463   5.556  13.018  1.6287 -1.1170  0.7894
   9423SM  H14T12690   5.391   5.716  13.088  0.2898  0.7363 -0.7044
   9423SM  C15S12691   5.469   5.573  13.236  0.3868 -0.4254  0.3072
   9423SM  H15S12692   5.477   5.659  13.307  0.2271 -1.4667  1.6167
   9423SM  H15T12693   5.553   5.505  13.262 -1.4417 -2.1231  1.9919
   9423SM  C16S12694   5.339   5.498  13.256  0.5577  0.0657 -0.4684
   9423SM  H16S12695   5.333   5.440  13.351 -0.4816 -1.9709 -1.7072
   9423SM  H16T12696   5.330   5.431  13.168  0.6756 -1.3191  0.5454
   9423SM  C17S12697   5.208   5.578  13.246  0.2722  0.0181 -0.2575
   9423SM  H17S12698   5.120   5.511  13.236  1.4765 -1.2899 -3.2522
   9423SM  H17T12699   5.211   5.619  13.142  1.8449 -1.3539 -0.7968
   9423SM  C18S12700   5.209   5.692  13.349  0.1285 -0.4549  0.8331
   9423SM  H18S12701   5.120   5.757  13.345  0.6235  0.1951  0.1842
   9423SM  H18T12702   5.303   5.751  13.345 -1.4680  2.2926  1.8357
   9423SM  H18U12703   5.213   5.647  13.451  0.4957 -1.5648  0.3531
   9423SM   C1F12704   5.480   6.422  12.529  0.2521 -0.6604 -0.4226
   9423SM    OF12705   5.376   6.352  12.509 -0.0566  0.5187 -0.2794
   9423SM   C2F12706   5.495   6.525  12.637 -0.0394 -0.1367  0.3717
   9423SM   H2F12707   5.535   6.622  12.601  0.0197 -0.5153 -0.6118
   9423SM   H2G12708   5.579   6.479  12.693 -2.0357 -1.4485  2.4446
   9423SM   C3F12709   5.377   6.521  12.725  0.8186 -0.0670 -0.6620
   9423SM   H3F12710   5.360   6.421  12.771 -1.1399  0.6704  0.3324
   9423SM   H3G12711   5.280   6.543  12.676  1.0320 -2.0708 -2.1085
   9423SM   C4F12712   5.395   6.632  12.834  0.0593  0.0739  0.8408
   9423SM   H4F12713   5.387   6.735  12.793 -1.3359 -1.0976 -2.2037
   9423SM   H4G12714   5.496   6.616  12.877 -0.1716 -0.3746  1.2262
   9423SM   C5F12715   5.309   6.611  12.962  0.7532 -0.5434 -0.3011
   9423SM   H5F12716   5.316   6.507  13.000  2.2008 -0.9756 -1.6769
   9423SM   H5G12717   5.206   6.641  12.933  0.8634 -0.8572 -1.0183
   9423SM   C6F12718   5.346   6.703  13.079 -0.3102 -0.3293  0.1139
   9423SM   H6F12719   5.354   6.809  13.047  1.8383  0.1545  1.9833
   9423SM   H6G12720   5.449   6.675  13.106  1.3299  2.4549 -2.5057
   9423SM   C7F12721   5.237   6.707  13.179 -0.1923  0.0283  0.2054
   9423SM   H7F12722   5.135   6.726  13.139 -0.6122  1.2980  1.7503
   9423SM   H7G12723   5.260   6.785  13.256 -0.8003 -0.2584  0.6874
   9423SM   C8F12724   5.235   6.582  13.264  0.2383  0.3158  0.3367
   9423SM   H8F12725   5.293   6.496  13.223 -0.6782 -0.0228 -0.2726
   9423SM   H8G12726   5.136   6.536  13.281  0.7985 -0.6640  1.0881
   9423SM   C9F12727   5.299   6.613  13.403  0.4498  0.0033  0.5126
   9423SM   H9F12728   5.259   6.703  13.454  1.1409  1.1024 -0.8106
   9423SM   H9G12729   5.406   6.630  13.378 -0.2085  2.0157 -1.2281
   9423SM  C10F12730   5.288   6.490  13.503 -0.7264 -0.1545 -0.1137
   9423SM  H10F12731   5.324   6.393  13.464 -1.1908 -0.9780  1.4215
   9423SM  H10G12732   5.178   6.482  13.517 -0.8048 -1.1284 -1.1879
   9423SM  C11F12733   5.353   6.503  13.638  0.1217 -0.5316 -0.5199
   9423SM  H11F12734   5.363   6.612  13.658 -1.5794 -0.0176 -2.1601
   9423SM  H11G12735   5.458   6.473  13.620  1.6075  2.4815  2.1201
   9423SM  C12F12736   5.276   6.437  13.745  0.0030 -0.5541  0.8069
   9423SM  H12F12737   5.242   6.333  13.726 -1.3301  0.3180 -2.0870
   9423SM  H12G12738   5.178   6.486  13.761 -0.1553 -1.1233  1.6455
   9423SM  C13F12739   5.349   6.461  13.880 -0.3052  0.6688 -0.2933
   9423SM  H13F12740   5.377   6.568  13.895  1.1211 -0.0173  2.5221
   9423SM  H13G12741   5.445   6.406  13.882 -0.7315 -0.2126  3.6670
   9423SM  C14F12742   5.272   6.398  13.995 -0.5945 -0.1761  0.3973
   9423SM  H14F12743   5.172   6.443  14.015 -0.5228 -0.9274  2.7860
   9423SM  H14G12744   5.318   6.417  14.094  1.1116 -3.5293  0.3882
   9423SM  C15F12745   5.240   6.249  13.984 -0.3812 -0.7110 -0.4677
   9423SM  H15F12746   5.161   6.223  13.910  1.4206 -1.8510 -2.0963
   9423SM  H15G12747   5.203   6.217  14.083 -0.6132 -0.8097 -0.5836
   9423SM  C16F12748   5.355   6.157  13.955 -0.2010  0.1749  0.3146
   9423SM  H16F12749   5.397   6.170  13.853 -0.2761 -1.3880  0.0622
   9423SM  H16G12750   5.304   6.058  13.961  0.3929 -0.4298 -2.6994
   9423SM  C17F12751   5.478   6.172  14.048 -0.3218  0.4500  0.8581
   9423SM  H17F12752   5.527   6.267  14.019 -0.2898  0.2602  0.2713
   9423SM  H17G12753   5.538   6.082  14.020  1.5569  1.0693  2.6286
   9423SM  C18F12754   5.459   6.170  14.200  0.0012  0.0151  0.3039
   9423SM  H18F12755   5.384   6.250  14.215  0.1348  0.7210 -2.2630
   9423SM  H18G12756   5.549   6.189  14.262  0.6389  1.3903 -0.9639
   9423SM  C19F12757   5.425   6.033  14.255  0.3000  0.9931 -0.6561
   9423SM  H19F12758   5.481   5.958  14.195 -0.8122  0.9750 -1.6917
   9423SM  H19G12759   5.317   6.012  14.249 -0.2433  3.3199 -0.0660
   9423SM  C20F12760   5.461   6.026  14.402 -0.0510 -0.4663 -1.0653
   9423SM  H20F12761   5.437   6.122  14.453 -0.6121 -0.4516 -1.3480
   9423SM  H20G12762   5.570   6.012  14.415 -0.2491 -0.2192  1.1735
   9423SM  C21F12763   5.382   5.919  14.478  0.8126 -0.0350 -0.6138
   9423SM  H21F12764   5.272   5.936  14.469  0.6726 -0.8412 -0.4701
   9423SM  H21G12765   5.401   5.933  14.587  0.0862 -1.1376 -0.3279
   9423SM  C22F12766   5.393   5.777  14.426 -0.2816 -0.1932 -0.1154
   9423SM  H22F12767   5.343   5.776  14.327 -0.0480  0.1895 -0.2391
   9423SM  H22G12768   5.336   5.704  14.487  0.8287  0.6468  2.0220
   9423SM  C23F12769   5.546   5.742  14.413  0.1637  0.1719 -0.0611
   9423SM  H23F12770   5.610   5.758  14.502  0.1116 -0.7314  0.1503
   9423SM  H23G12771   5.587   5.803  14.330 -1.2957  0.7916 -0.3695
   9423SM  H23H12772   5.554   5.637  14.378 -0.5942  0.4916 -1.2688
   9523SM     N12773   1.381   1.655  12.055  0.0287 -0.5330  0.0585
   9523SM   C1512774   1.267   1.688  11.959  0.7266  0.4321  0.0995
   9523SM  H15A12775   1.281   1.782  11.908 -2.0971  0.5690 -0.6147
   9523SM  H15B12776   1.169   1.700  12.005  1.0982 -1.6812  1.6075
   9523SM  H15C12777   1.268   1.615  11.879  1.5937 -1.4027  1.7039
   9523SM   C1412778   1.504   1.626  11.969 -0.1491  0.2715 -0.2670
   9523SM  H14A12779   1.582   1.697  11.991  1.4954 -1.7550  0.7874
   9523SM  H14B12780   1.480   1.639  11.864  1.4121  2.1342 -0.4538
   9523SM  H14C12781   1.541   1.526  11.988 -1.2770 -0.2641 -0.7677
   9523SM   C1312782   1.404   1.770  12.139 -0.2285  0.2010 -0.2895
   9523SM  H13A12783   1.318   1.781  12.204 -1.4170 -1.9452 -1.4043
   9523SM  H13B12784   1.405   1.854  12.071 -0.9888 -0.6465 -1.3881
   9523SM  H13C12785   1.503   1.767  12.181  0.3421 -1.5989 -1.6868
   9523SM   C1212786   1.364   1.526  12.134  1.3517  0.4116 -0.4422
   9523SM  H12A12787   1.267   1.525  12.182  0.3951 -2.1367 -2.2219
   9523SM  H12B12788   1.436   1.514  12.213 -1.2759  0.0613  2.0653
   9523SM   C1112789   1.357   1.391  12.063 -0.2201 -0.2953  0.3747
   9523SM  H11A12790   1.296   1.410  11.972  0.1287 -1.4823 -0.1194
   9523SM  H11B12791   1.298   1.311  12.112 -0.3564 -0.9505 -0.8085
   9523SM     P12792   1.577   1.273  12.134  0.4287 -0.2463 -0.0690
   9523SM   O1312793   1.533   1.134  12.133  0.3326  0.2006  0.0128
   9523SM   O1412794   1.719   1.302  12.124  0.0103 -0.4123 -0.4563
   9523SM   O1112795   1.524   1.336  12.271  0.3553 -0.4862  0.0403
   9523SM   O1212796   1.489   1.344  12.020  0.4426 -0.3588 -0.0886
   9523SM   C1S12797   1.604   1.327  12.388 -0.7572  0.5414  0.8894
   9523SM   H1S12798   1.691   1.395  12.391  0.1592 -0.6376  1.7414
   9523SM   H1T12799   1.639   1.222  12.401 -0.9822  0.3987  0.3838
   9523SM    NF12800   1.616   1.343  12.623  0.1796  0.6322  0.3291
   9523SM   HNF12801   1.636   1.255  12.667  1.9511  0.9205  0.1839
   9523SM   C2S12802   1.520   1.356  12.516 -0.2355 -0.1717 -0.4154
   9523SM   H2S12803   1.493   1.464  12.513 -1.2701 -0.4307 -1.0435
   9523SM   C3S12804   1.403   1.257  12.527 -0.7526  0.0871  0.4290
   9523SM   H3S12805   1.442   1.154  12.540 -3.4431 -1.0272  0.2977
   9523SM    O312806   1.319   1.238  12.416 -1.0901  0.3538 -0.0306
   9523SM   HO312807   1.357   1.301  12.355  0.6438 -0.4454  0.1659
   9523SM   C4S12808   1.320   1.286  12.656  1.2699  0.9274 -0.8673
   9523SM   H4S12809   1.350   1.233  12.748  0.2956  0.8045 -0.6133
   9523SM   C5S12810   1.224   1.382  12.655 -0.7406  0.7701  0.4054
   9523SM   H5S12811   1.214   1.455  12.574 -0.3553 -0.7616 -1.0720
   9523SM   C6S12812   1.181   1.436  12.779  0.5897 -0.5383  0.0326
   9523SM   H6S12813   1.198   1.373  12.868 -1.1805  0.8130  1.4151
   9523SM   H6T12814   1.070   1.449  12.775  0.6597 -0.0004 -0.3265
   9523SM   C7S12815   1.245   1.570  12.817 -0.0371 -0.1430 -0.1056
   9523SM   H7S12816   1.187   1.637  12.750  0.6778  0.1003 -0.4894
   9523SM   H7T12817   1.347   1.577  12.775 -0.4092 -0.2753 -1.0614
   9523SM   C8S12818   1.245   1.605  12.965 -1.1742 -0.8276 -0.0034
   9523SM   H8S12819   1.274   1.518  13.026 -0.7469 -0.0887  0.8727
   9523SM   H8T12820   1.143   1.632  12.999 -2.6083 -0.2298 -4.2058
   9523SM   C9S12821   1.344   1.718  12.987  0.3736 -0.3041  0.2140
   9523SM   H9S12822   1.308   1.790  12.911  0.6308 -0.7565 -0.3437
   9523SM   H9T12823   1.440   1.678  12.948 -1.4381 -2.4403 -2.4212
   9523SM  C10S12824   1.349   1.788  13.121 -0.3821 -1.4008 -0.3084
   9523SM  H10S12825   1.253   1.791  13.176 -1.4375  2.0529 -2.0567
   9523SM  H10T12826   1.375   1.892  13.090  0.7390 -2.2967 -2.5722
   9523SM  C11S12827   1.450   1.736  13.220  0.2412  0.6299  0.7335
   9523SM  H11S12828   1.548   1.726  13.169 -1.2482  1.3100 -2.6049
   9523SM  H11T12829   1.415   1.634  13.246  1.3619 -0.3959 -1.5294
   9523SM  C12S12830   1.459   1.821  13.344  0.0952 -0.0659  0.7191
   9523SM  H12S12831   1.357   1.857  13.367 -0.1491  0.5646 -1.1867
   9523SM  H12T12832   1.525   1.902  13.307  0.2880 -1.6610 -2.8262
   9523SM  C13S12833   1.521   1.758  13.462 -0.0944  0.0189  0.0777
   9523SM  H13S12834   1.629   1.743  13.439  0.3174 -1.1954  2.4281
   9523SM  H13T12835   1.474   1.662  13.493 -1.0311  0.6018  0.4916
   9523SM  C14S12836   1.511   1.855  13.578  0.6072  0.1404 -0.7201
   9523SM  H14S12837   1.407   1.863  13.615  0.2285  0.8334 -1.8869
   9523SM  H14T12838   1.529   1.955  13.534  1.2371 -0.1564 -1.1602
   9523SM  C15S12839   1.598   1.821  13.698  0.1416  0.2039  0.1021
   9523SM  H15S12840   1.706   1.838  13.679  0.2210 -1.4693 -1.1935
   9523SM  H15T12841   1.577   1.717  13.732 -1.7619  0.8665  1.0723
   9523SM  C16S12842   1.576   1.921  13.821 -0.1588 -0.3714 -0.1777
   9523SM  H16S12843   1.474   1.908  13.863  0.0122 -0.6719  0.1484
   9523SM  H16T12844   1.576   2.022  13.775 -0.7731  0.3355  1.3131
   9523SM  C17S12845   1.675   1.894  13.934 -0.4975  0.0272 -0.1548
   9523SM  H17S12846   1.780   1.921  13.910 -0.0599 -0.9578  0.5666
   9523SM  H17T12847   1.688   1.786  13.953  0.8166  0.4764  1.8329
   9523SM  C18S12848   1.639   1.961  14.068  0.3129 -0.8434  0.3743
   9523SM  H18S12849   1.723   1.973  14.141  0.7458  2.9839 -0.5458
   9523SM  H18T12850   1.557   1.911  14.124 -0.7487  1.0538  0.5829
   9523SM  H18U12851   1.595   2.059  14.039  1.6318 -0.2688  0.2219
   9523SM   C1F12852   1.709   1.434  12.647  0.3504  0.6523  0.3163
   9523SM    OF12853   1.694   1.543  12.596  0.1127 -0.1664 -0.5566
   9523SM   C2F12854   1.831   1.391  12.732 -0.1021  0.1764  0.1901
   9523SM   H2F12855   1.916   1.415  12.664 -1.5359  3.5864 -0.6191
   9523SM   H2G12856   1.829   1.291  12.779  2.6487  0.8114  1.9053
   9523SM   C3F12857   1.839   1.494  12.848  0.0820 -0.3607 -0.2287
   9523SM   H3F12858   1.846   1.600  12.814 -2.9451  0.8864  2.4869
   9523SM   H3G12859   1.934   1.462  12.897 -0.1311 -1.3829 -0.4679
   9523SM   C4F12860   1.718   1.487  12.941  0.5468 -0.2681 -0.2945
   9523SM   H4F12861   1.703   1.385  12.983  1.5761  0.4223  1.9026
   9523SM   H4G12862   1.621   1.505  12.890 -0.1004 -3.4542 -0.4435
   9523SM   C5F12863   1.740   1.581  13.064 -0.3720 -0.4115 -0.5579
   9523SM   H5F12864   1.646   1.570  13.123  0.1776 -0.4589  0.3348
   9523SM   H5G12865   1.764   1.684  13.030 -0.5393 -0.3814 -0.5859
   9523SM   C6F12866   1.864   1.547  13.148 -0.2304  0.1185 -0.1250
   9523SM   H6F12867   1.963   1.562  13.101 -0.6543  1.4138 -0.6626
   9523SM   H6G12868   1.854   1.438  13.163  0.2790 -0.2369 -2.1512
   9523SM   C7F12869   1.856   1.627  13.277 -0.3902 -0.0365  0.2746
   9523SM   H7F12870   1.754   1.620  13.321 -0.0409 -0.0305  1.1195
   9523SM   H7G12871   1.862   1.732  13.242 -0.9307  0.1522  0.7363
   9523SM   C8F12872   1.963   1.573  13.378 -0.3506 -0.1492 -0.7506
   9523SM   H8F12873   2.064   1.560  13.332 -1.0270  1.2965 -2.7978
   9523SM   H8G12874   1.922   1.475  13.411  1.9889 -0.4907  1.3989
   9523SM   C9F12875   1.963   1.652  13.509  0.2231 -0.5078  0.3929
   9523SM   H9F12876   1.860   1.686  13.534  0.6520  1.2159 -0.0390
   9523SM   H9G12877   2.019   1.742  13.477  0.6651 -1.4626 -1.6400
   9523SM  C10F12878   2.035   1.586  13.616  0.2334 -0.1841 -0.6115
   9523SM  H10F12879   2.083   1.661  13.683 -1.1684 -0.5951  0.9369
   9523SM  H10G12880   2.105   1.514  13.569 -0.0907 -1.9654  1.4846
   9523SM  C11F12881   1.930   1.512  13.702  1.6804 -1.6054 -0.4800
   9523SM  H11F12882   1.848   1.465  13.645 -2.0263  0.5142  2.5958
   9523SM  H11G12883   1.891   1.593  13.768  1.3099 -0.6058 -1.8833
   9523SM  C12F12884   1.981   1.409  13.800 -0.2795  1.0451  0.1219
   9523SM  H12F12885   2.038   1.331  13.746  0.8022  1.6919  0.3049
   9523SM  H12G12886   1.897   1.357  13.851 -0.4540  0.7892 -0.4143
   9523SM  C13F12887   2.069   1.466  13.904 -0.0013  0.0110 -0.1537
   9523SM  H13F12888   2.000   1.531  13.962  2.5564  2.8205 -0.0078
   9523SM  H13G12889   2.141   1.536  13.856  0.3490 -2.2516 -3.1968
   9523SM  C14F12890   2.132   1.362  13.993 -0.8079  0.1554 -0.7036
   9523SM  H14F12891   2.174   1.287  13.922  0.2240  0.6516 -0.6312
   9523SM  H14G12892   2.052   1.310  14.049  2.3958 -1.5979  2.6808
   9523SM  C15F12893   2.254   1.399  14.074 -0.0713  0.3511 -0.0302
   9523SM  H15F12894   2.310   1.486  14.032  0.0617  0.9974  1.4419
   9523SM  H15G12895   2.325   1.314  14.080 -0.0174  0.3572 -0.5233
   9523SM  C16F12896   2.219   1.432  14.221 -0.5280  0.5398  0.1353
   9523SM  H16F12897   2.174   1.533  14.205  1.2278  1.3705  0.2261
   9523SM  H16G12898   2.317   1.444  14.272 -0.0307 -0.5013 -0.5262
   9523SM  C17F12899   2.131   1.330  14.302  0.8465 -1.0521 -0.6993
   9523SM  H17F12900   2.161   1.224  14.290  1.1663 -0.8258 -2.0831
   9523SM  H17G12901   2.027   1.337  14.261  0.7535  2.8799 -0.1830
   9523SM  C18F12902   2.116   1.364  14.449 -0.0060 -0.0707  0.7817
   9523SM  H18F12903   2.207   1.367  14.512 -0.0370 -1.2792  0.9196
   9523SM  H18G12904   2.045   1.296  14.502 -0.2486 -1.0422 -0.7158
   9523SM  C19F12905   2.055   1.513  14.472  0.0409 -0.0569  0.0376
   9523SM  H19F12906   1.968   1.531  14.406 -0.0028 -0.4147 -0.0007
   9523SM  H19G12907   2.135   1.580  14.433  0.9956 -1.7296 -0.9958
   9523SM  C20F12908   2.014   1.523  14.620  0.3393 -0.4781 -0.0768
   9523SM  H20F12909   1.932   1.453  14.641 -0.6078  0.1071 -1.6326
   9523SM  H20G12910   1.976   1.626  14.641 -2.3075 -0.5069 -3.7798
   9523SM  C21F12911   2.139   1.518  14.713 -1.1847  0.3943  0.7609
   9523SM  H21F12912   2.219   1.583  14.672  0.5502 -1.6724  0.7037
   9523SM  H21G12913   2.172   1.412  14.714 -1.8579  0.1540 -0.2337
   9523SM  C22F12914   2.112   1.544  14.858 -0.6425 -0.6200  0.3177
   9523SM  H22F12915   2.025   1.478  14.879 -1.9196  0.7776 -0.4016
   9523SM  H22G12916   2.091   1.653  14.862 -1.4009 -0.6813 -1.1723
   9523SM  C23F12917   2.229   1.510  14.950 -0.6732  0.3672 -0.5296
   9523SM  H23F12918   2.194   1.511  15.056  1.1843 -1.3725  0.1596
   9523SM  H23G12919   2.317   1.577  14.948  1.1160 -1.8306 -0.2659
   9523SM  H23H12920   2.273   1.410  14.927  2.8933  1.7588 -0.3740
   9623SM     N12921   3.355   0.247  12.136  0.1684  0.2546  0.1088
   9623SM   C1512922   3.431   0.139  12.070  0.7400 -0.2688  0.2313
   9623SM  H15A12923   3.384   0.102  11.980 -0.2028 -1.8152  1.3219
   9623SM  H15B12924   3.430   0.052  12.134 -2.1434 -1.7168 -1.5405
   9623SM  H15C12925   3.529   0.170  12.035  0.6612  0.9370  1.0364
   9623SM   C1412926   3.432   0.297  12.256  0.0891 -0.1837 -0.3646
   9623SM  H14A12927   3.424   0.237  12.345 -0.9940  2.0860  1.1712
   9623SM  H14B12928   3.408   0.395  12.296 -0.5649 -0.8763  0.9980
   9623SM  H14C12929   3.532   0.308  12.215  0.4122 -0.6694  0.2797
   9623SM   C1312930   3.337   0.354  12.032 -1.2877 -0.2567  0.2881
   9623SM  H13A12931   3.276   0.318  11.950  1.3032  0.6977 -2.2361
   9623SM  H13B12932   3.429   0.377  11.981 -1.6748 -0.5193 -0.5556
   9623SM  H13C12933   3.285   0.442  12.067 -1.0927 -0.4927  1.2104
   9623SM   C1212934   3.210   0.212  12.174 -0.3994 -0.1460  0.1665
   9623SM  H12A12935   3.169   0.163  12.087  2.4445 -0.6226 -1.0160
   9623SM  H12B12936   3.153   0.297  12.210  0.8943  0.1770  1.5308
   9623SM   C1112937   3.189   0.113  12.286 -0.0994  0.4378 -0.5912
   9623SM  H11A12938   3.080   0.109  12.311  0.1640 -0.5574  0.5009
   9623SM  H11B12939   3.249   0.151  12.371 -0.2939 -2.3775  0.9164
   9623SM     P12940   3.129  -0.107  12.159 -0.2820  0.1742 -0.1329
   9623SM   O1312941   3.080  -0.039  12.043  0.4284  0.7434  0.3235
   9623SM   O1412942   3.189  -0.240  12.141 -0.2559  0.4575 -0.1765
   9623SM   O1112943   3.007  -0.115  12.262  0.2972  0.1175 -0.1493
   9623SM   O1212944   3.231  -0.015  12.241  0.3146  0.5100  0.0271
   9623SM   C1S12945   3.018  -0.202  12.378 -0.2343 -0.0460  0.5270
   9623SM   H1S12946   3.106  -0.271  12.374 -0.0279  0.2368  0.0252
   9623SM   H1T12947   2.924  -0.260  12.390  0.7765 -1.6090  1.2396
   9623SM    NF12948   3.094  -0.195  12.618 -0.1004  0.1914 -0.5875
   9623SM   HNF12949   3.036  -0.256  12.671  0.0316  1.3745  1.0074
   9623SM   C2S12950   3.025  -0.117  12.509  0.1142  0.7385  0.1224
   9623SM   H2S12951   3.098  -0.039  12.478 -0.9911  0.7223 -2.8426
   9623SM   C3S12952   2.886  -0.060  12.549  0.1255  0.4807 -0.5887
   9623SM   H3S12953   2.829  -0.155  12.563  0.1840  0.6046  0.5310
   9623SM    O312954   2.819   0.017  12.448  0.3516 -0.4256  0.0706
   9623SM   HO312955   2.859  -0.005  12.364  1.7842  0.8750  0.3588
   9623SM   C4S12956   2.896   0.021  12.682  0.2112  0.3035  0.7884
   9623SM   H4S12957   2.981   0.091  12.686 -1.0602  1.8360  2.2079
   9623SM   C5S12958   2.822  -0.002  12.793  0.3381  0.1661 -0.2538
   9623SM   H5S12959   2.754  -0.087  12.785 -0.7003  0.6366  2.5289
   9623SM   C6S12960   2.823   0.085  12.916  0.1033  0.6727  0.0477
   9623SM   H6S12961   2.813   0.021  13.006 -1.1461  0.9268  0.1029
   9623SM   H6T12962   2.741   0.159  12.905 -0.8619 -0.5692 -1.4137
   9623SM   C7S12963   2.944   0.183  12.946  0.2652 -0.6028 -0.2168
   9623SM   H7S12964   2.950   0.258  12.864  1.8669  1.0820  1.3626
   9623SM   H7T12965   3.036   0.121  12.944  0.3888 -0.4764  0.8981
   9623SM   C8S12966   2.943   0.255  13.079 -0.3697  0.4323 -0.4506
   9623SM   H8S12967   2.933   0.192  13.170  1.8666  2.0337  1.0153
   9623SM   H8T12968   2.866   0.335  13.087 -0.7321  0.1073 -0.6596
   9623SM   C9S12969   3.079   0.325  13.097  0.1755 -0.0182 -0.6521
   9623SM   H9S12970   3.096   0.396  13.014 -1.0968  0.9237 -0.1466
   9623SM   H9T12971   3.163   0.252  13.101 -0.1216 -0.3568  2.3361
   9623SM  C10S12972   3.084   0.393  13.236 -0.1848 -0.4536  0.0354
   9623SM  H10S12973   3.086   0.320  13.320 -3.2767  0.3690  0.9688
   9623SM  H10T12974   2.993   0.453  13.257 -0.4750  0.3191 -2.9781
   9623SM  C11S12975   3.198   0.480  13.252 -0.1099 -0.2962  0.6455
   9623SM  H11S12976   3.189   0.572  13.190  0.4429 -0.7028 -0.0573
   9623SM  H11T12977   3.284   0.419  13.219  0.2483  1.2772 -1.5877
   9623SM  C12S12978   3.219   0.527  13.398  0.0641  0.4421 -1.0253
   9623SM  H12S12979   3.238   0.441  13.466  1.0421  0.7263 -0.9274
   9623SM  H12T12980   3.123   0.575  13.424  0.2362 -0.1552  0.8538
   9623SM  C13S12981   3.326   0.629  13.406 -1.0176  0.2211 -0.5357
   9623SM  H13S12982   3.286   0.731  13.386 -0.5402  1.3437  3.4685
   9623SM  H13T12983   3.401   0.601  13.329 -2.9409 -1.1382 -2.0177
   9623SM  C14S12984   3.390   0.657  13.543 -0.0110 -0.4180 -0.1527
   9623SM  H14S12985   3.454   0.748  13.539  0.2705 -0.6147 -0.1087
   9623SM  H14T12986   3.454   0.576  13.584  0.9394  1.1745  1.6440
   9623SM  C15S12987   3.295   0.677  13.662 -0.2846 -0.5265  0.2722
   9623SM  H15S12988   3.238   0.585  13.687 -2.8849  0.8810 -0.1592
   9623SM  H15T12989   3.220   0.756  13.640  1.5192  1.0159 -0.7426
   9623SM  C16S12990   3.375   0.729  13.783  0.3600  0.0845  0.0740
   9623SM  H16S12991   3.405   0.833  13.758 -0.4275 -0.0347 -1.4627
   9623SM  H16T12992   3.467   0.669  13.799 -0.3046 -0.7924  0.7318
   9623SM  C17S12993   3.284   0.740  13.905  0.1166  1.5113  0.3895
   9623SM  H17S12994   3.255   0.640  13.944  1.3201  1.1417  0.4026
   9623SM  H17T12995   3.189   0.793  13.883 -1.0060 -0.4787  0.2215
   9623SM  C18S12996   3.358   0.801  14.027  0.4298  0.5178  0.2257
   9623SM  H18S12997   3.289   0.827  14.110 -1.7556  2.5728 -2.0622
   9623SM  H18T12998   3.426   0.886  14.007 -0.1746  1.0759  0.5039
   9623SM  H18U12999   3.418   0.721  14.075  0.6106  1.5028  1.7144
   9623SM   C1F13000   3.223  -0.234  12.626  0.0131  0.9986  0.3710
   9623SM    OF13001   3.308  -0.196  12.541  0.1308 -0.3986  0.3186
   9623SM   C2F13002   3.254  -0.334  12.728 -0.4476  1.0177  0.2284
   9623SM   H2F13003   3.349  -0.380  12.693 -1.1315 -0.9168  0.7599
   9623SM   H2G13004   3.177  -0.414  12.736  0.5872 -0.3195 -2.0241
   9623SM   C3F13005   3.303  -0.271  12.858  0.2123  0.1980 -0.1791
   9623SM   H3F13006   3.359  -0.178  12.839 -0.2823  1.0380  2.0719
   9623SM   H3G13007   3.366  -0.342  12.916  0.0649  0.2289  0.0200
   9623SM   C4F13008   3.187  -0.228  12.952 -0.7366 -0.0964 -0.1030
   9623SM   H4F13009   3.114  -0.306  12.984 -0.7951 -0.4864 -1.1609
   9623SM   H4G13010   3.133  -0.148  12.898  1.6612  0.5194 -1.7321
   9623SM   C5F13011   3.231  -0.173  13.090 -0.0879 -0.7544 -0.1942
   9623SM   H5F13012   3.301  -0.088  13.073 -1.2419  0.4009  0.5707
   9623SM   H5G13013   3.290  -0.244  13.152  1.2850 -0.3289 -0.9760
   9623SM   C6F13014   3.110  -0.121  13.172 -0.6409  0.3808  0.3132
   9623SM   H6F13015   3.025  -0.115  13.102 -0.0320  1.9273 -0.3518
   9623SM   H6G13016   3.142  -0.018  13.201  1.8265 -0.6374  1.4909
   9623SM   C7F13017   3.069  -0.216  13.290  0.0387  1.2542  0.1515
   9623SM   H7F13018   3.152  -0.215  13.364  0.7281 -1.6141 -0.4614
   9623SM   H7G13019   3.058  -0.319  13.249  0.4464  0.8529  1.0277
   9623SM   C8F13020   2.937  -0.178  13.350  0.4444 -0.4182  0.0209
   9623SM   H8F13021   2.863  -0.207  13.273  0.6733 -0.1524 -0.2992
   9623SM   H8G13022   2.934  -0.070  13.377 -3.0381 -0.5714  0.7211
   9623SM   C9F13023   2.893  -0.256  13.483 -0.3296  0.4249  0.4401
   9623SM   H9F13024   2.966  -0.225  13.560  0.4763  0.3200 -0.2586
   9623SM   H9G13025   2.905  -0.365  13.465  0.0579  0.8418 -2.3747
   9623SM  C10F13026   2.756  -0.220  13.533 -0.5511  0.2777  0.2919
   9623SM  H10F13027   2.746  -0.276  13.629 -2.0077 -0.5772 -0.3230
   9623SM  H10G13028   2.676  -0.265  13.471  2.1337 -2.3391 -1.5018
   9623SM  C11F13029   2.723  -0.072  13.552 -0.6750  0.1672  0.3420
   9623SM  H11F13030   2.715  -0.041  13.446 -1.0273 -2.8736 -0.6088
   9623SM  H11G13031   2.807  -0.012  13.594 -1.1820 -0.9717  3.1939
   9623SM  C12F13032   2.587  -0.041  13.608 -0.2003  0.4203 -0.5208
   9623SM  H12F13033   2.514  -0.108  13.558 -2.3500  0.2107  2.6142
   9623SM  H12G13034   2.550   0.060  13.582  2.3258  1.6783  0.4559
   9623SM  C13F13035   2.593  -0.059  13.757  0.2325 -0.1321  0.1039
   9623SM  H13F13036   2.585  -0.167  13.783 -2.9587 -0.1351 -0.5032
   9623SM  H13G13037   2.501  -0.020  13.804 -0.2892 -1.8184  0.5776
   9623SM  C14F13038   2.700   0.011  13.830 -0.0112  0.0512 -0.4949
   9623SM  H14F13039   2.688   0.120  13.813 -0.4317  0.0048 -0.4871
   9623SM  H14G13040   2.798  -0.025  13.791 -0.0346  0.2561 -0.7444
   9623SM  C15F13041   2.686  -0.011  13.984 -0.1080 -0.1446  0.1374
   9623SM  H15F13042   2.682  -0.119  14.010  0.6919  0.1330  1.4831
   9623SM  H15G13043   2.587   0.031  14.013 -0.2375  0.0579 -0.5788
   9623SM  C16F13044   2.799   0.063  14.057  0.1312  0.5971  0.0735
   9623SM  H16F13045   2.795   0.168  14.020 -1.8542  0.3442 -0.5922
   9623SM  H16G13046   2.898   0.022  14.027  0.3927  0.0884  1.5590
   9623SM  C17F13047   2.807   0.055  14.207  0.1301 -0.1753  0.0444
   9623SM  H17F13048   2.801  -0.050  14.242 -0.3578  0.0358  0.6168
   9623SM  H17G13049   2.716   0.099  14.252 -1.6496 -1.7919 -1.7842
   9623SM  C18F13050   2.938   0.121  14.255  0.0138  0.5526 -0.3346
   9623SM  H18F13051   2.939   0.231  14.235 -1.2060  0.9649  1.6348
   9623SM  H18G13052   3.012   0.071  14.188 -1.8361 -1.8611 -0.6753
   9623SM  C19F13053   2.983   0.089  14.405  0.4880  0.7288  0.3822
   9623SM  H19F13054   2.977  -0.021  14.419 -0.4175  0.6864 -0.2483
   9623SM  H19G13055   2.909   0.148  14.464  1.1128  1.6887  0.2335
   9623SM  C20F13056   3.124   0.139  14.438 -0.1650 -0.1477 -0.6102
   9623SM  H20F13057   3.123   0.250  14.428  1.8622  0.1046  1.2431
   9623SM  H20G13058   3.201   0.113  14.363 -1.5318 -0.6667 -1.8828
   9623SM  C21F13059   3.161   0.095  14.585 -0.4461  0.0419 -0.2767
   9623SM  H21F13060   3.197  -0.010  14.588 -0.6146 -0.0392 -0.8636
   9623SM  H21G13061   3.069   0.095  14.647  0.1722  1.2106  0.6854
   9623SM  C22F13062   3.246   0.191  14.660 -0.0723 -0.4294  0.2191
   9623SM  H22F13063   3.191   0.288  14.661  0.1578 -0.2980  0.0438
   9623SM  H22G13064   3.335   0.205  14.595  1.0986  1.4258  2.0883
   9623SM  C23F13065   3.284   0.151  14.801 -0.5137  0.4260 -0.2789
   9623SM  H23F13066   3.342   0.056  14.811 -0.8333  0.3448  1.0332
   9623SM  H23G13067   3.193   0.141  14.863 -1.1248  0.6946 -1.1215
   9623SM  H23H13068   3.347   0.222  14.860 -1.1339  1.0156 -0.3193
   9723SM     N13069   4.579   0.478  11.982 -0.0838  0.8350  0.2560
   9723SM   C1513070   4.480   0.362  11.969 -0.1800 -0.8218 -0.4759
   9723SM  H15A13071   4.419   0.378  11.881  0.8355 -2.0463 -1.4453
   9723SM  H15B13072   4.415   0.363  12.055  1.6366  0.5427  0.9590
   9723SM  H15C13073   4.533   0.268  11.956  1.2367 -0.0037 -0.8910
   9723SM   C1413074   4.675   0.469  11.866 -0.8162  0.3076  0.1505
   9723SM  H14A13075   4.722   0.565  11.850 -0.2553  0.2013  1.0938
   9723SM  H14B13076   4.621   0.427  11.782 -0.2000 -0.5100  0.1527
   9723SM  H14C13077   4.752   0.396  11.885 -2.7704 -2.4032 -1.5795
   9723SM   C1313078   4.504   0.611  11.979  0.4115  0.2314  0.6133
   9723SM  H13A13079   4.431   0.620  12.057 -1.0309  2.9035 -0.9037
   9723SM  H13B13080   4.462   0.627  11.881  2.5612  1.1565 -0.2327
   9723SM  H13C13081   4.572   0.695  11.991 -1.6779  1.7119  3.0503
   9723SM   C1213082   4.659   0.465  12.111  0.2486 -0.2148 -0.1123
   9723SM  H12A13083   4.592   0.478  12.195  1.4009  2.2457  0.5134
   9723SM  H12B13084   4.713   0.558  12.121 -1.2747  0.6623  0.4203
   9723SM   C1113085   4.751   0.343  12.127  0.3359 -0.2088 -0.3117
   9723SM  H11A13086   4.818   0.350  12.216 -1.7630 -1.0454  1.3970
   9723SM  H11B13087   4.826   0.324  12.047 -0.2207 -0.4596 -0.7743
   9723SM     P13088   4.602   0.193  12.276  0.3865  0.0094  0.0765
   9723SM   O1313089   4.486   0.101  12.252  0.2785  0.7114 -0.4958
   9723SM   O1413090   4.702   0.134  12.372  0.4436  0.8509 -0.6358
   9723SM   O1113091   4.555   0.324  12.340 -0.2711 -0.0671 -0.0561
   9723SM   O1213092   4.672   0.231  12.139  0.1505  0.5650 -0.9943
   9723SM   C1S13093   4.427   0.352  12.394 -0.2319  0.0866 -0.2217
   9723SM   H1S13094   4.352   0.278  12.357  0.9523 -0.3167 -1.8982
   9723SM   H1T13095   4.390   0.452  12.364  0.5882  0.5434  0.2892
   9723SM    NF13096   4.259   0.319  12.572 -0.0183 -0.3016 -0.2002
   9723SM   HNF13097   4.212   0.401  12.603 -1.2907 -0.7558 -0.8519
   9723SM   C2S13098   4.401   0.336  12.543 -0.5310  0.2890 -0.5660
   9723SM   H2S13099   4.444   0.240  12.579 -2.2792  0.5084  2.4429
   9723SM   C3S13100   4.473   0.455  12.616  0.0335  0.1035  0.1456
   9723SM   H3S13101   4.411   0.541  12.584 -2.1233 -2.1124 -2.1094
   9723SM    O313102   4.610   0.483  12.578  0.4494  0.3745 -0.0910
   9723SM   HO313103   4.618   0.429  12.498 -0.4563 -0.6665  0.4900
   9723SM   C4S13104   4.460   0.441  12.766  0.0716  0.6479 -0.9917
   9723SM   H4S13105   4.365   0.477  12.809 -0.2888 -0.2724 -0.9875
   9723SM   C5S13106   4.555   0.389  12.843 -0.2886 -0.3133 -0.9981
   9723SM   H5S13107   4.657   0.376  12.803 -0.1918  1.3890 -1.3709
   9723SM   C6S13108   4.543   0.377  12.994  0.4612  0.3252 -0.1084
   9723SM   H6S13109   4.557   0.473  13.047  1.1544 -0.2889  0.8383
   9723SM   H6T13110   4.626   0.313  13.029 -0.3606 -0.1138  1.0925
   9723SM   C7S13111   4.418   0.313  13.059 -0.3702  0.2768  0.0545
   9723SM   H7S13112   4.384   0.219  13.009  0.2994  0.5155 -0.8901
   9723SM   H7T13113   4.330   0.378  13.039 -0.5911  0.0078  0.1370
   9723SM   C8S13114   4.438   0.302  13.208 -0.0789 -0.0192 -0.0942
   9723SM   H8S13115   4.340   0.279  13.254 -0.7446 -0.9738 -1.8623
   9723SM   H8T13116   4.472   0.404  13.236 -1.6539  0.5072 -0.0289
   9723SM   C9S13117   4.542   0.198  13.249 -0.3718 -0.1984  0.0091
   9723SM   H9S13118   4.605   0.157  13.167 -0.4255  0.3461 -0.3114
   9723SM   H9T13119   4.490   0.102  13.270  1.3743 -0.9363  1.2427
   9723SM  C10S13120   4.618   0.242  13.374  0.5964 -0.3200  1.0418
   9723SM  H10S13121   4.637   0.351  13.369 -0.2270 -0.2240 -1.0008
   9723SM  H10T13122   4.713   0.186  13.390  0.7560 -0.2829  0.2430
   9723SM  C11S13123   4.531   0.213  13.491 -0.9769 -0.0788 -0.4755
   9723SM  H11S13124   4.526   0.102  13.491  0.4335 -0.1794 -2.3111
   9723SM  H11T13125   4.434   0.266  13.497 -1.2140 -0.6757  2.8574
   9723SM  C12S13126   4.599   0.248  13.627 -0.0960  0.7259  0.2589
   9723SM  H12S13127   4.601   0.356  13.651 -0.9227  0.6268  0.8123
   9723SM  H12T13128   4.690   0.184  13.628  0.7063  1.7542 -1.5554
   9723SM  C13S13129   4.510   0.177  13.739 -0.0418  0.6474 -0.0404
   9723SM  H13S13130   4.505   0.068  13.719 -1.1358  0.0219  3.0394
   9723SM  H13T13131   4.408   0.219  13.728 -0.5753 -0.2090  1.3698
   9723SM  C14S13132   4.542   0.208  13.890 -0.3754  0.7284  0.1774
   9723SM  H14S13133   4.461   0.167  13.954 -0.8265 -0.7868 -1.2889
   9723SM  H14T13134   4.540   0.319  13.889  0.0867  0.7355 -0.4447
   9723SM  C15S13135   4.677   0.168  13.941 -0.2438 -0.1643  0.4600
   9723SM  H15S13136   4.703   0.194  14.046  1.1116 -2.4958  0.7783
   9723SM  H15T13137   4.761   0.215  13.887  0.7249 -1.4654  0.7649
   9723SM  C16S13138   4.723   0.022  13.914  0.0453  0.0894 -0.3688
   9723SM  H16S13139   4.699  -0.003  13.808  0.5727  0.7777 -0.6530
   9723SM  H16T13140   4.662  -0.050  13.973 -0.6585  1.8456  1.1431
   9723SM  C17S13141   4.874   0.017  13.940 -0.1652  0.0783  1.0047
   9723SM  H17S13142   4.922   0.096  13.878 -0.9568 -0.6405 -0.5871
   9723SM  H17T13143   4.909  -0.082  13.904  0.1062  0.2478  0.7920
   9723SM  C18S13144   4.918   0.035  14.086 -0.6854 -0.1855  0.2243
   9723SM  H18S13145   4.905   0.140  14.120 -0.8867 -0.3979  0.8083
   9723SM  H18T13146   5.018  -0.012  14.098 -1.0831 -0.7519  1.3713
   9723SM  H18U13147   4.857  -0.036  14.146  0.0881 -1.0246  0.0316
   9723SM   C1F13148   4.186   0.207  12.563 -1.2642  0.0805  0.0233
   9723SM    OF13149   4.243   0.101  12.530  0.1445 -0.1385 -0.2956
   9723SM   C2F13150   4.036   0.210  12.596 -0.2984  0.6617 -0.0053
   9723SM   H2F13151   3.985   0.126  12.545 -3.5155  1.3424  1.8119
   9723SM   H2G13152   3.998   0.300  12.543  0.8943 -0.5697 -3.1261
   9723SM   C3F13153   4.001   0.229  12.745 -0.4082 -0.2577 -0.0022
   9723SM   H3F13154   3.890   0.232  12.743 -0.4439 -1.0853 -2.1952
   9723SM   H3G13155   4.037   0.328  12.780 -0.5793 -0.7478  1.6444
   9723SM   C4F13156   4.048   0.131  12.848  0.1346  0.1033  0.2064
   9723SM   H4F13157   4.158   0.115  12.836  0.1170 -0.1439  0.3616
   9723SM   H4G13158   4.003   0.036  12.814  4.3922 -1.0877 -2.8833
   9723SM   C5F13159   4.016   0.167  12.994 -0.2120 -1.1267 -0.3162
   9723SM   H5F13160   3.906   0.163  13.004 -0.2322 -0.3240 -0.1874
   9723SM   H5G13161   4.048   0.269  13.024 -0.3470 -1.4058  0.8142
   9723SM   C6F13162   4.081   0.068  13.097  0.0329 -0.2261  0.5333
   9723SM   H6F13163   4.191   0.058  13.084 -0.0644 -1.9113  0.7572
   9723SM   H6G13164   4.036  -0.029  13.066 -0.4918  0.2560 -0.2474
   9723SM   C7F13165   4.046   0.103  13.241 -0.0551 -0.3124  0.0482
   9723SM   H7F13166   3.935   0.099  13.248 -0.0022 -0.1834  1.0271
   9723SM   H7G13167   4.077   0.208  13.260  2.2618 -0.3515 -2.7514
   9723SM   C8F13168   4.104   0.008  13.341 -0.5811  0.3944 -0.7210
   9723SM   H8F13169   4.212  -0.018  13.332 -0.3213  0.6293  1.2395
   9723SM   H8G13170   4.061  -0.095  13.340 -0.5873  0.3834  0.0148
   9723SM   C9F13171   4.086   0.068  13.486  0.5329 -0.0399  0.0736
   9723SM   H9F13172   3.981   0.077  13.523  0.9504 -1.1796  1.6456
   9723SM   H9G13173   4.122   0.173  13.474 -0.6291  0.3401 -0.2834
   9723SM  C10F13174   4.157  -0.015  13.598  1.1856  0.1827 -0.3525
   9723SM  H10F13175   4.259  -0.028  13.555  2.1646 -2.7963  2.4740
   9723SM  H10G13176   4.116  -0.118  13.602  2.3328 -0.2306  1.6111
   9723SM  C11F13177   4.162   0.051  13.738 -0.6718  0.4305  0.1524
   9723SM  H11F13178   4.190   0.158  13.723 -1.4694  0.5741 -0.3898
   9723SM  H11G13179   4.241   0.004  13.800  0.7896  0.5717 -1.5240
   9723SM  C12F13180   4.033   0.043  13.810  0.1521 -0.3110  0.4753
   9723SM  H12F13181   4.008  -0.065  13.814  1.7821 -0.6901  1.6986
   9723SM  H12G13182   3.954   0.091  13.749  1.4023 -0.5887 -1.4491
   9723SM  C13F13183   4.032   0.101  13.948  0.5087 -0.0692  0.3512
   9723SM  H13F13184   4.096   0.192  13.960  0.0169  0.1137  1.9041
   9723SM  H13G13185   4.096   0.034  14.010  0.7375  0.4225  0.6552
   9723SM  C14F13186   3.895   0.137  13.994  0.2722  0.0939  0.0408
   9723SM  H14F13187   3.917   0.189  14.090  1.6110  2.5209 -1.4785
   9723SM  H14G13188   3.829   0.050  14.014 -0.1464 -0.2519 -2.5113
   9723SM  C15F13189   3.818   0.239  13.902 -0.0598 -0.4972  0.4020
   9723SM  H15F13190   3.754   0.182  13.830  0.9694  2.3966 -3.1226
   9723SM  H15G13191   3.885   0.307  13.844 -1.2446  2.6480  2.4579
   9723SM  C16F13192   3.729   0.333  13.989  0.1901  0.4891 -0.3812
   9723SM  H16F13193   3.693   0.280  14.079  2.6379  0.3929  0.6329
   9723SM  H16G13194   3.646   0.373  13.927 -0.4134  1.5932  1.0915
   9723SM  C17F13195   3.805   0.455  14.045 -0.0780 -1.0199 -0.1021
   9723SM  H17F13196   3.846   0.529  13.972  0.0127 -0.0652  0.8903
   9723SM  H17G13197   3.893   0.412  14.098  0.3071 -0.2466 -0.1075
   9723SM  C18F13198   3.723   0.542  14.144  0.7606  0.2262  0.2353
   9723SM  H18F13199   3.688   0.483  14.232 -0.7332  0.3151 -0.2697
   9723SM  H18G13200   3.628   0.571  14.093  0.6128  1.8030  1.3174
   9723SM  C19F13201   3.778   0.675  14.200  0.0418  0.3152 -0.5020
   9723SM  H19F13202   3.779   0.741  14.111  0.6702 -1.1216 -1.5823
   9723SM  H19G13203   3.881   0.670  14.242  0.2449  0.5318 -0.9641
   9723SM  C20F13204   3.686   0.738  14.304 -0.0061  0.0147  0.5291
   9723SM  H20F13205   3.674   0.671  14.391  1.7698  0.6957  1.3571
   9723SM  H20G13206   3.585   0.732  14.258  0.9600 -1.8489 -1.5360
   9723SM  C21F13207   3.707   0.889  14.333  0.3166  0.3271  0.2913
   9723SM  H21F13208   3.629   0.933  14.399  2.1688  1.3697  1.8591
   9723SM  H21G13209   3.698   0.932  14.230  1.2942  0.0963  0.1047
   9723SM  C22F13210   3.855   0.916  14.380  0.0376  0.4912 -0.0295
   9723SM  H22F13211   3.924   0.855  14.317  0.6146  0.8439  0.2581
   9723SM  H22G13212   3.854   0.875  14.483 -3.0682 -1.7370 -0.7841
   9723SM  C23F13213   3.901   1.064  14.374 -0.4543  0.3427 -0.2573
   9723SM  H23F13214   3.922   1.083  14.267 -2.3338 -0.5347 -0.8250
   9723SM  H23G13215   4.000   1.071  14.423 -0.4787  0.6231 -0.2463
   9723SM  H23H13216   3.826   1.140  14.406  0.2367  1.6614 -1.6311
   9823SM     N13217   7.301   7.008  11.815 -0.3778  0.2995 -0.7973
   9823SM   C1513218   7.377   6.877  11.798  0.2860 -0.2142  0.6013
   9823SM  H15A13219   7.335   6.797  11.858 -1.9524  0.4918  0.0824
   9823SM  H15B13220   7.483   6.887  11.813  0.3042 -0.5511  0.6949
   9823SM  H15C13221   7.362   6.848  11.695  0.4155  2.6864 -0.3287
   9823SM   C1413222   7.347   7.091  11.698 -0.2004  0.4739 -0.2723
   9823SM  H14A13223   7.296   7.187  11.696 -0.8681  0.1393  0.2460
   9823SM  H14B13224   7.330   7.038  11.605  1.5253 -0.7786  0.0941
   9823SM  H14C13225   7.453   7.102  11.710 -0.0943  0.2567 -0.9819
   9823SM   C1313226   7.150   6.973  11.817 -0.5717 -0.2100  0.3819
   9823SM  H13A13227   7.126   6.941  11.917  0.4799 -0.3627  0.5956
   9823SM  H13B13228   7.123   6.897  11.745 -0.2180 -0.0710  0.0983
   9823SM  H13C13229   7.095   7.059  11.783  0.9926  0.5767 -0.2592
   9823SM   C1213230   7.343   7.073  11.950 -0.1682  0.3083  0.4674
   9823SM  H12A13231   7.303   7.173  11.952 -0.6728  0.1202  0.1994
   9823SM  H12B13232   7.449   7.089  11.956  0.0588 -1.3337  1.7634
   9823SM   C1113233   7.302   6.998  12.081 -0.0356  0.1282  0.7086
   9823SM  H11A13234   7.372   7.045  12.153  1.8371 -1.9153  0.3371
   9823SM  H11B13235   7.327   6.890  12.075 -0.7689 -0.1272  1.9327
   9823SM     P13236   7.086   6.920  12.204  0.1358  0.0758  0.3926
   9823SM   O1313237   6.958   6.975  12.241  0.4515 -0.3873  0.3343
   9823SM   O1413238   7.073   6.787  12.137  0.3288  0.0031  0.0378
   9823SM   O1113239   7.171   6.905  12.335  0.0517 -0.4517  0.1442
   9823SM   O1213240   7.168   7.018  12.111  0.5378  0.5084  0.0914
   9823SM   C1S13241   7.238   7.015  12.394 -0.6899 -0.3751 -0.3947
   9823SM   H1S13242   7.185   7.110  12.372  0.7697  0.8011  0.9151
   9823SM   H1T13243   7.344   7.033  12.368 -0.5686 -1.6012 -0.7853
   9823SM    NF13244   7.260   7.138  12.610 -0.3736 -0.0192  0.2409
   9823SM   HNF13245   7.344   7.157  12.659 -1.4498 -1.2974  2.7658
   9823SM   C2S13246   7.233   7.006  12.550 -0.6990  0.2608  0.3638
   9823SM   H2S13247   7.140   6.958  12.587 -0.1624 -1.1802 -0.0823
   9823SM   C3S13248   7.339   6.888  12.593  0.4262  0.1993 -0.2072
   9823SM   H3S13249   7.438   6.936  12.581 -0.1404  1.3923 -0.3205
   9823SM    O313250   7.313   6.767  12.520  0.2616  0.6897  0.3669
   9823SM   HO313251   7.269   6.794  12.439  3.3173 -0.6020 -1.9097
   9823SM   C4S13252   7.332   6.867  12.747 -1.1815 -1.0911  0.1887
   9823SM   H4S13253   7.236   6.903  12.787 -1.1307  1.2102 -1.5551
   9823SM   C5S13254   7.428   6.825  12.838 -0.0525 -0.8702 -0.1518
   9823SM   H5S13255   7.533   6.820  12.806 -0.3743 -1.6067 -1.1411
   9823SM   C6S13256   7.393   6.837  12.985  0.2225  0.0911  0.4260
   9823SM   H6S13257   7.482   6.822  13.049 -1.1341 -0.4837  2.2713
   9823SM   H6T13258   7.333   6.746  13.009 -0.2925  0.4700  0.6030
   9823SM   C7S13259   7.328   6.970  13.022  0.8867  0.1509  0.0991
   9823SM   H7S13260   7.219   6.969  13.004  0.9625 -2.6012 -0.6241
   9823SM   H7T13261   7.389   7.045  12.967  2.7175 -1.1083  0.2999
   9823SM   C8S13262   7.340   6.997  13.173  0.5309 -0.5000 -0.2001
   9823SM   H8S13263   7.318   7.104  13.193  1.3248 -0.4111  0.2099
   9823SM   H8T13264   7.443   6.981  13.209  0.3667  0.3323  0.6737
   9823SM   C9S13265   7.260   6.914  13.273  0.4339 -0.4219  0.5177
   9823SM   H9S13266   7.286   6.807  13.260  2.3278  0.0994 -0.2232
   9823SM   H9T13267   7.160   6.911  13.224  0.4169 -1.7127  0.5960
   9823SM  C10S13268   7.279   6.963  13.422 -0.0507 -0.1442  0.5176
   9823SM  H10S13269   7.251   7.070  13.419 -1.3565 -0.4873 -0.7856
   9823SM  H10T13270   7.387   6.960  13.448  0.3367  0.9531 -0.8824
   9823SM  C11S13271   7.185   6.892  13.517  0.1629 -0.0644 -0.4652
   9823SM  H11S13272   7.231   6.794  13.540 -0.9139  0.0164  2.5456
   9823SM  H11T13273   7.092   6.873  13.460  0.0457  0.1901 -0.3630
   9823SM  C12S13274   7.166   6.975  13.646 -0.4203  0.3594  1.2489
   9823SM  H12S13275   7.114   7.067  13.612 -0.3687 -0.6259 -1.8368
   9823SM  H12T13276   7.266   7.010  13.678  1.2947 -2.9310 -0.0530
   9823SM  C13S13277   7.114   6.895  13.759  0.2185  0.5014  0.1410
   9823SM  H13S13278   7.093   6.950  13.853 -0.5184  1.0488 -0.3318
   9823SM  H13T13279   7.191   6.817  13.777 -0.6337 -1.0219 -2.3363
   9823SM  C14S13280   6.978   6.821  13.721 -0.7839 -0.0427 -0.2446
   9823SM  H14S13281   6.999   6.728  13.663  0.3105 -0.7309  1.1957
   9823SM  H14T13282   6.913   6.889  13.661 -0.9861 -0.2429 -0.2574
   9823SM  C15S13283   6.898   6.779  13.849 -0.2126 -0.5175 -0.2852
   9823SM  H15S13284   6.870   6.866  13.912  0.7800  0.9191 -1.7582
   9823SM  H15T13285   6.961   6.710  13.910  0.4349  2.2482  2.4301
   9823SM  C16S13286   6.775   6.702  13.831  0.0302 -0.4424  0.0940
   9823SM  H16S13287   6.712   6.751  13.754  0.5550  2.1441  1.2294
   9823SM  H16T13288   6.716   6.691  13.925 -1.7299 -0.0420 -0.9080
   9823SM  C17S13289   6.799   6.562  13.784  0.0539  0.1598 -0.0120
   9823SM  H17S13290   6.851   6.499  13.859  1.5701  0.9720 -0.3553
   9823SM  H17T13291   6.870   6.570  13.699  0.6017  1.1643  0.5192
   9823SM  C18S13292   6.668   6.485  13.746  0.4863 -0.1589 -0.1479
   9823SM  H18S13293   6.599   6.479  13.832  0.4503 -2.3894 -0.2765
   9823SM  H18T13294   6.700   6.387  13.705  0.6212 -0.3465  0.3929
   9823SM  H18U13295   6.625   6.539  13.659 -0.5254 -0.0558  0.4065
   9823SM   C1F13296   7.174   7.239  12.596 -1.0150  0.3916  0.2495
   9823SM    OF13297   7.056   7.217  12.572  0.0228  0.5671 -0.2509
   9823SM   C2F13298   7.227   7.376  12.623 -0.1071 -0.2636  0.2130
   9823SM   H2F13299   7.233   7.422  12.522 -1.8373  0.2776  0.3131
   9823SM   H2G13300   7.326   7.375  12.673 -0.0433 -2.0289  0.1047
   9823SM   C3F13301   7.132   7.454  12.717 -0.1966 -0.2154  0.2864
   9823SM   H3F13302   7.028   7.457  12.679 -0.5278 -0.1597  1.1759
   9823SM   H3G13303   7.173   7.557  12.711  1.0159 -0.6492  0.7772
   9823SM   C4F13304   7.139   7.405  12.863 -0.4360 -0.4975 -0.7490
   9823SM   H4F13305   7.241   7.420  12.904  0.0744 -2.2791 -1.2371
   9823SM   H4G13306   7.120   7.296  12.874 -1.4409 -0.1712  1.1396
   9823SM   C5F13307   7.038   7.465  12.960 -0.3652 -0.4004  0.1379
   9823SM   H5F13308   6.932   7.440  12.938 -0.9056  1.3764  0.4958
   9823SM   H5G13309   7.043   7.575  12.944 -0.1968 -0.3388  0.6073
   9823SM   C6F13310   7.061   7.426  13.108  0.2619  0.5980 -0.1186
   9823SM   H6F13311   7.170   7.431  13.128  0.0401 -1.4106  1.9504
   9823SM   H6G13312   7.046   7.317  13.127  4.5727 -0.2903 -0.8992
   9823SM   C7F13313   6.976   7.515  13.208 -0.5218  0.3001  0.9373
   9823SM   H7F13314   6.867   7.500  13.193 -0.7125  1.8377  0.6486
   9823SM   H7G13315   7.001   7.620  13.182  1.2404 -0.6698 -1.6978
   9823SM   C8F13316   7.023   7.484  13.351  0.6067 -0.0838  0.6037
   9823SM   H8F13317   7.132   7.504  13.361  0.1857  2.9734  0.0601
   9823SM   H8G13318   7.001   7.375  13.363 -3.5196  0.5430  0.3629
   9823SM   C9F13319   6.953   7.558  13.467 -0.6616  0.1750  0.1678
   9823SM   H9F13320   6.844   7.546  13.452 -0.9168  2.9143 -0.6761
   9823SM   H9G13321   6.973   7.667  13.464 -0.3963  0.2165  2.0977
   9823SM  C10F13322   7.005   7.503  13.605 -0.7598 -0.1968 -0.3131
   9823SM  H10F13323   7.116   7.490  13.602 -0.5620  1.4440 -0.9023
   9823SM  H10G13324   6.954   7.405  13.596  1.4109 -1.3855 -0.3752
   9823SM  C11F13325   6.952   7.586  13.724  0.7100 -0.3676 -0.4107
   9823SM  H11F13326   6.842   7.578  13.716  0.5668 -1.4661  1.8909
   9823SM  H11G13327   6.984   7.692  13.715 -2.0249  0.5933  0.1557
   9823SM  C12F13328   6.982   7.528  13.863  0.5706  0.1862 -0.1040
   9823SM  H12F13329   7.093   7.525  13.863  0.6076  1.1966  0.3843
   9823SM  H12G13330   6.942   7.426  13.882  0.0579  0.6749  1.6184
   9823SM  C13F13331   6.953   7.617  13.987  0.1577 -0.7086 -0.2176
   9823SM  H13F13332   6.974   7.559  14.079  0.5640 -1.6567 -0.8896
   9823SM  H13G13333   6.844   7.639  13.993  0.7763  2.3854  2.0768
   9823SM  C14F13334   7.042   7.748  14.002  0.2469  0.4146  0.3222
   9823SM  H14F13335   7.026   7.812  13.912 -0.3986  0.1700  0.2582
   9823SM  H14G13336   7.148   7.716  13.991  0.3080  0.2970  1.2368
   9823SM  C15F13337   7.023   7.822  14.133  0.6246  0.0429  0.3124
   9823SM  H15F13338   6.917   7.853  14.128  0.7931  0.4585 -1.0958
   9823SM  H15G13339   7.087   7.910  14.113  1.5733 -0.0576  2.5637
   9823SM  C16F13340   7.069   7.748  14.253 -0.1673 -0.2281  0.4819
   9823SM  H16F13341   7.160   7.686  14.236  0.1798  0.7329 -1.4215
   9823SM  H16G13342   6.984   7.681  14.280 -1.4710  1.1662 -0.0453
   9823SM  C17F13343   7.091   7.837  14.377  0.0975  0.6465 -0.1785
   9823SM  H17F13344   6.998   7.894  14.396  0.1255  0.5401  0.2975
   9823SM  H17G13345   7.168   7.912  14.348 -0.3892  0.9788 -0.6475
   9823SM  C18F13346   7.122   7.760  14.512 -0.3513 -0.6364  0.7713
   9823SM  H18F13347   7.210   7.694  14.500  1.1855  1.1676  1.4978
   9823SM  H18G13348   7.040   7.692  14.541 -0.5655 -0.5837  0.2980
   9823SM  C19F13349   7.135   7.866  14.626  0.9607 -0.5375  0.9463
   9823SM  H19F13350   7.046   7.931  14.639  1.1286 -0.3268  1.0592
   9823SM  H19G13351   7.218   7.934  14.594 -2.7812  3.8204 -0.6138
   9823SM  C20F13352   7.165   7.807  14.760 -0.1417 -0.7640  0.2497
   9823SM  H20F13353   7.243   7.729  14.768  0.9826  0.3190  0.2122
   9823SM  H20G13354   7.063   7.763  14.771 -1.0263  0.7201 -1.4713
   9823SM  C21F13355   7.176   7.918  14.874 -0.5594  0.0967 -0.1860
   9823SM  H21F13356   7.078   7.972  14.872 -0.7665 -0.2716 -0.0064
   9823SM  H21G13357   7.253   7.988  14.835 -0.0429 -1.8282 -2.9132
   9823SM  C22F13358   7.225   7.871  15.014  0.1685 -0.8361  0.4867
   9823SM  H22F13359   7.149   7.797  15.049 -1.2510  0.1838 -0.3149
   9823SM  H22G13360   7.225   7.954  15.088 -3.3115  0.2411 -0.5135
   9823SM  C23F13361   7.370   7.826  15.015 -0.2584 -0.0876 -0.0886
   9823SM  H23F13362   7.399   7.761  14.929  0.7051 -0.9626  0.8627
   9823SM  H23G13363   7.397   7.782  15.113  1.7199  1.3301  0.0375
   9823SM  H23H13364   7.424   7.921  14.998  0.0600 -0.0558  1.0811
   9923SM     N13365   0.378   0.010  11.907 -0.0067  0.0565 -0.0675
   9923SM   C1513366   0.250   0.086  11.924 -0.0018  0.6827 -0.2393
   9923SM  H15A13367   0.275   0.189  11.946  0.6893  0.1974  1.4386
   9923SM  H15B13368   0.188   0.042  12.001 -0.1512 -1.5592 -1.5500
   9923SM  H15C13369   0.193   0.091  11.833  1.2939 -1.7508 -1.2915
   9923SM   C1413370   0.355  -0.125  11.850 -0.0604  0.1004  0.0207
   9923SM  H14A13371   0.446  -0.169  11.812 -0.8528 -1.8048  0.1609
   9923SM  H14B13372   0.283  -0.130  11.769  2.1846  0.2424 -2.1204
   9923SM  H14C13373   0.324  -0.196  11.925 -2.1957  0.4830 -0.4292
   9923SM   C1313374   0.470   0.077  11.802 -0.0361 -0.4620 -0.1070
   9923SM  H13A13375   0.573   0.045  11.812  0.2520 -0.0913 -1.7046
   9923SM  H13B13376   0.455   0.182  11.821 -0.5959 -0.4130 -0.7948
   9923SM  H13C13377   0.438   0.045  11.704  0.4575  1.2942 -0.8906
   9923SM   C1213378   0.453  -0.013  12.037  0.6982 -0.2901 -0.1604
   9923SM  H12A13379   0.495   0.084  12.059  1.4891 -1.1449  2.4766
   9923SM  H12B13380   0.531  -0.086  12.020 -2.2068 -3.7944  0.1632
   9923SM   C1113381   0.377  -0.061  12.163 -0.2989 -0.3941 -0.4652
   9923SM  H11A13382   0.276  -0.017  12.177 -0.2436  0.5722 -2.7541
   9923SM  H11B13383   0.429  -0.022  12.253  1.3501 -1.4905 -0.9039
   9923SM     P13384   0.446  -0.311  12.237  0.0073 -0.7276  0.4163
   9923SM   O1313385   0.386  -0.438  12.191 -0.2686 -0.4508  0.3624
   9923SM   O1413386   0.595  -0.287  12.216  0.1545  0.6769 -0.6371
   9923SM   O1113387   0.416  -0.290  12.395  0.5417  0.0352 -0.1497
   9923SM   O1213388   0.368  -0.200  12.166  0.3569 -0.1648  0.5664
   9923SM   C1S13389   0.302  -0.356  12.454 -0.5488 -0.4377  0.1705
   9923SM   H1S13390   0.305  -0.464  12.427 -1.0081 -0.4922  0.3217
   9923SM   H1T13391   0.209  -0.307  12.419 -0.4831 -1.7529 -2.0214
   9923SM    NF13392   0.222  -0.422  12.673  0.1798  0.2712  0.1077
   9923SM   HNF13393   0.155  -0.388  12.739 -2.9761 -3.0637 -1.0197
   9923SM   C2S13394   0.325  -0.337  12.605  0.3163  0.6600  0.7483
   9923SM   H2S13395   0.423  -0.384  12.632  0.2007 -1.0692 -1.6047
   9923SM   C3S13396   0.337  -0.182  12.640 -0.0950  0.6417 -0.4032
   9923SM   H3S13397   0.241  -0.131  12.618  0.8618  1.8311 -2.1284
   9923SM    O313398   0.426  -0.108  12.557 -0.2064  0.4222  0.2171
   9923SM   HO313399   0.442  -0.173  12.488  3.9074  0.0851  1.1897
   9923SM   C4S13400   0.376  -0.163  12.787 -0.4533 -0.2148 -0.0004
   9923SM   H4S13401   0.475  -0.205  12.812  0.1758  1.0877 -0.2334
   9923SM   C5S13402   0.311  -0.085  12.871 -0.6361 -0.6409  0.1230
   9923SM   H5S13403   0.229  -0.026  12.828  1.6355  0.8209 -2.5208
   9923SM   C6S13404   0.357  -0.058  13.010 -0.0562  0.5784 -0.0602
   9923SM   H6S13405   0.373   0.051  13.029 -2.2538  0.7004  1.5398
   9923SM   H6T13406   0.460  -0.091  13.035 -0.5190  0.3010  1.5616
   9923SM   C7S13407   0.250  -0.106  13.106  0.1106 -0.4431  0.6843
   9923SM   H7S13408   0.232  -0.213  13.085 -2.8308  0.1472 -0.3388
   9923SM   H7T13409   0.148  -0.068  13.083 -1.7981 -5.5934 -0.6150
   9923SM   C8S13410   0.273  -0.097  13.263  0.1269 -0.0358 -0.4212
   9923SM   H8S13411   0.382  -0.106  13.284  0.3751  0.2126 -1.5537
   9923SM   H8T13412   0.227  -0.179  13.322  1.1213 -1.2372 -1.2605
   9923SM   C9S13413   0.221   0.030  13.322 -0.0807  0.6378  1.1861
   9923SM   H9S13414   0.113   0.008  13.323 -0.2441  1.1490 -0.6813
   9923SM   H9T13415   0.244   0.111  13.248  1.3240 -0.4007  0.4218
   9923SM  C10S13416   0.253   0.070  13.465  0.1130  0.7452 -0.7209
   9923SM  H10S13417   0.184   0.154  13.484  0.5509  1.0865 -0.6167
   9923SM  H10T13418   0.356   0.112  13.474  0.3370  0.1441 -0.3825
   9923SM  C11S13419   0.220  -0.040  13.568 -0.0908  0.0684 -0.2585
   9923SM  H11S13420   0.267  -0.138  13.541 -0.8455 -0.5699  0.6757
   9923SM  H11T13421   0.112  -0.064  13.560  0.1016 -0.6817 -0.8010
   9923SM  C12S13422   0.265  -0.004  13.708  0.8472 -0.3025 -0.8318
   9923SM  H12S13423   0.208   0.074  13.762 -1.2911 -2.4947  0.2923
   9923SM  H12T13424   0.365   0.042  13.695 -0.3219  2.6760 -0.1541
   9923SM  C13S13425   0.271  -0.129  13.793 -0.4106  0.0885  0.1588
   9923SM  H13S13426   0.351  -0.110  13.868  0.4102 -0.1906 -0.6261
   9923SM  H13T13427   0.309  -0.207  13.724 -2.2922  0.0821 -0.9363
   9923SM  C14S13428   0.143  -0.170  13.870 -0.5499  0.4437 -0.4296
   9923SM  H14S13429   0.069  -0.195  13.791  1.5859  0.8405 -2.6718
   9923SM  H14T13430   0.112  -0.076  13.922  1.3489  1.0130 -0.2678
   9923SM  C15S13431   0.159  -0.284  13.980 -0.1319  0.2362  0.2512
   9923SM  H15S13432   0.061  -0.300  14.029  0.0579  0.5529  0.7340
   9923SM  H15T13433   0.235  -0.258  14.057  0.0327 -1.2959  0.6412
   9923SM  C16S13434   0.192  -0.422  13.910  0.1473 -0.4466  0.3267
   9923SM  H16S13435   0.280  -0.405  13.844 -1.0765  2.3226 -0.7671
   9923SM  H16T13436   0.102  -0.437  13.846  0.1276 -0.3229  0.3241
   9923SM  C17S13437   0.211  -0.528  14.025  0.7942  0.8503  0.0390
   9923SM  H17S13438   0.248  -0.469  14.111 -2.6970  2.2348  0.7795
   9923SM  H17T13439   0.286  -0.600  13.986  0.8106  0.2643  1.1314
   9923SM  C18S13440   0.082  -0.603  14.069  0.8381  0.1884 -0.6515
   9923SM  H18S13441   0.023  -0.539  14.138  2.7056 -0.0530  1.2750
   9923SM  H18T13442   0.103  -0.693  14.130 -1.5573 -0.5125 -0.7486
   9923SM  H18U13443   0.021  -0.623  13.978 -0.5005  0.8374  0.0668
   9923SM   C1F13444   0.228  -0.555  12.667  0.4627  0.4439  0.3980
   9923SM    OF13445   0.328  -0.604  12.623 -0.8067 -0.7671  0.6083
   9923SM   C2F13446   0.115  -0.646  12.711  0.3390  0.5095  0.3239
   9923SM   H2F13447   0.148  -0.747  12.680 -2.4151 -0.4581  0.2968
   9923SM   H2G13448   0.026  -0.631  12.646  0.0143 -0.3225  0.5672
   9923SM   C3F13449   0.082  -0.628  12.862 -0.1310  0.2848  0.2850
   9923SM   H3F13450   0.015  -0.709  12.897 -0.0009  0.8167  1.8577
   9923SM   H3G13451   0.023  -0.533  12.863 -1.0100 -0.2522  0.1879
   9923SM   C4F13452   0.200  -0.627  12.962 -1.0137 -0.3978  0.0476
   9923SM   H4F13453   0.231  -0.521  12.971 -1.8275 -0.3078  2.9523
   9923SM   H4G13454   0.289  -0.686  12.932 -0.9247  1.0334 -2.8315
   9923SM   C5F13455   0.150  -0.682  13.098  0.0760  0.3083  0.0479
   9923SM   H5F13456   0.134  -0.791  13.086  0.5099  0.2513 -0.0152
   9923SM   H5G13457   0.043  -0.656  13.110 -0.1828 -0.7444  0.0819
   9923SM   C6F13458   0.233  -0.654  13.229  0.2361  0.2100  0.2974
   9923SM   H6F13459   0.335  -0.693  13.208  0.3112  1.0963 -1.1095
   9923SM   H6G13460   0.186  -0.710  13.312 -1.4502  1.9001  0.5610
   9923SM   C7F13461   0.244  -0.507  13.287  0.2490 -0.3695 -0.3416
   9923SM   H7F13462   0.140  -0.474  13.308 -0.2363 -3.0624  2.0192
   9923SM   H7G13463   0.282  -0.448  13.200  2.8843 -0.0625  0.9196
   9923SM   C8F13464   0.336  -0.487  13.402  0.0537  0.2823 -0.3185
   9923SM   H8F13465   0.337  -0.381  13.435 -1.0369 -0.1903  1.4037
   9923SM   H8G13466   0.440  -0.515  13.373  0.5202  1.0880  0.5296
   9923SM   C9F13467   0.300  -0.565  13.536 -0.0032 -0.4738 -0.5502
   9923SM   H9F13468   0.277  -0.672  13.520 -1.7765 -0.2849  0.5205
   9923SM   H9G13469   0.203  -0.524  13.572  0.6975  1.9866 -1.2624
   9923SM  C10F13470   0.405  -0.560  13.642  0.2268 -0.1326 -0.5381
   9923SM  H10F13471   0.369  -0.616  13.731  1.0751  1.0518  0.6013
   9923SM  H10G13472   0.415  -0.450  13.654 -0.0017 -0.1183 -0.4673
   9923SM  C11F13473   0.538  -0.622  13.589 -0.3923 -0.2938 -0.1398
   9923SM  H11F13474   0.585  -0.544  13.526  0.1740 -1.5576 -1.3139
   9923SM  H11G13475   0.519  -0.705  13.518 -2.9104  0.0469  0.0425
   9923SM  C12F13476   0.623  -0.678  13.699 -0.4637  0.0760 -0.6001
   9923SM  H12F13477   0.579  -0.769  13.745  1.2695  0.8539  2.9577
   9923SM  H12G13478   0.639  -0.592  13.767 -4.1958  0.3260  0.1686
   9923SM  C13F13479   0.770  -0.714  13.660 -0.2355  0.2460  0.0202
   9923SM  H13F13480   0.825  -0.724  13.756 -0.1897  0.5501  0.0243
   9923SM  H13G13481   0.805  -0.625  13.603  1.8281 -0.1996  0.5112
   9923SM  C14F13482   0.778  -0.840  13.572 -0.3126  0.2646 -0.0662
   9923SM  H14F13483   0.770  -0.806  13.466 -0.7745 -0.5817 -0.3107
   9923SM  H14G13484   0.696  -0.907  13.604  0.3407 -0.5489 -0.0721
   9923SM  C15F13485   0.916  -0.907  13.585 -0.2036 -0.3258  0.4589
   9923SM  H15F13486   0.999  -0.834  13.577 -0.1835 -0.1218  2.1781
   9923SM  H15G13487   0.915  -0.988  13.509 -0.3890  1.0338 -1.0487
   9923SM  C16F13488   0.936  -0.980  13.719 -0.4962 -0.1942 -0.0008
   9923SM  H16F13489   0.943  -0.906  13.802 -0.2646  0.0290 -0.2170
   9923SM  H16G13490   1.034  -1.027  13.701 -1.6388 -2.1652 -1.4328
   9923SM  C17F13491   0.832  -1.075  13.766 -0.3379  0.0384 -0.4519
   9923SM  H17F13492   0.798  -1.136  13.680  2.1205 -0.0408 -1.4377
   9923SM  H17G13493   0.742  -1.016  13.797 -0.4131  1.6397 -3.3430
   9923SM  C18F13494   0.879  -1.168  13.880  0.4008 -0.1612 -0.2591
   9923SM  H18F13495   0.888  -1.115  13.977 -1.7924  0.8988 -0.5519
   9923SM  H18G13496   0.975  -1.203  13.837  0.7969  1.1926 -0.5395
   9923SM  C19F13497   0.792  -1.297  13.900  0.3369 -0.1581  0.0991
   9923SM  H19F13498   0.845  -1.370  13.966 -0.8488 -1.3708 -0.2462
   9923SM  H19G13499   0.776  -1.337  13.798  1.4306  3.6306 -1.7495
   9923SM  C20F13500   0.654  -1.260  13.957 -0.4672  0.0870  0.4997
   9923SM  H20F13501   0.598  -1.187  13.896 -0.3255 -0.8732 -0.8258
   9923SM  H20G13502   0.679  -1.224  14.059  0.1037  1.1280  0.0078
   9923SM  C21F13503   0.570  -1.388  13.967  0.3501  0.5964 -0.6747
   9923SM  H21F13504   0.619  -1.464  14.032 -0.9085 -0.3728 -0.8169
   9923SM  H21G13505   0.559  -1.433  13.866  1.7839 -1.5225  0.0530
   9923SM  C22F13506   0.423  -1.359  14.019  0.0224  0.6554 -0.2601
   9923SM  H22F13507   0.373  -1.456  13.997  1.1405  0.0245 -0.0627
   9923SM  H22G13508   0.375  -1.276  13.963 -3.6272 -1.0114  0.0812
   9923SM  C23F13509   0.403  -1.324  14.169 -0.5234  1.3004 -0.2818
   9923SM  H23F13510   0.489  -1.366  14.225 -1.3975  0.6196  0.5830
   9923SM  H23G13511   0.302  -1.346  14.209  0.3140 -0.6389  0.9141
   9923SM  H23H13512   0.411  -1.216  14.191  1.2313  0.7066  2.4958
  10023SM     N13513   7.525   0.498  12.093 -0.1881  0.4510 -0.1177
  10023SM   C1513514   7.576   0.600  11.987  0.2879  0.0800  0.2337
  10023SM  H15A13515   7.667   0.568  11.938 -1.4464 -1.6917 -2.0693
  10023SM  H15B13516   7.593   0.695  12.037  0.3765 -0.6970  1.7396
  10023SM  H15C13517   7.507   0.625  11.908  0.8917  0.2214 -0.2547
  10023SM   C1413518   7.629   0.439  12.179 -0.3728 -0.5765 -0.1305
  10023SM  H14A13519   7.696   0.515  12.215 -0.4636 -0.1119 -0.9137
  10023SM  H14B13520   7.680   0.365  12.119  0.1480  2.3035 -3.6307
  10023SM  H14C13521   7.588   0.387  12.264 -0.0824 -1.9250 -0.7755
  10023SM   C1313522   7.416   0.574  12.174  0.2020  0.1127 -0.3761
  10023SM  H13A13523   7.472   0.643  12.236 -0.3628 -1.6662  2.3097
  10023SM  H13B13524   7.369   0.503  12.241 -0.1359 -1.3786 -2.1336
  10023SM  H13C13525   7.332   0.619  12.124 -0.0569 -1.2835 -1.2410
  10023SM   C1213526   7.468   0.381  12.020 -0.3071 -0.2534 -0.0001
  10023SM  H12A13527   7.547   0.337  11.961 -0.2092 -0.0732 -0.0030
  10023SM  H12B13528   7.395   0.424  11.953  1.4370  0.1150 -1.7516
  10023SM   C1113529   7.402   0.261  12.099 -0.1267 -0.6157  0.0810
  10023SM  H11A13530   7.359   0.192  12.023 -0.1997 -0.9596  0.4308
  10023SM  H11B13531   7.318   0.306  12.156 -0.4438 -0.9255 -0.1418
  10023SM     P13532   7.582   0.070  12.121  0.3774 -0.2069  0.0789
  10023SM   O1313533   7.512  -0.058  12.098  0.6291  0.4526 -0.7951
  10023SM   O1413534   7.654   0.129  12.010 -0.5810  0.3762 -0.4422
  10023SM   O1113535   7.686   0.033  12.236 -0.3234 -0.1731  0.2569
  10023SM   O1213536   7.497   0.193  12.186  0.3459  0.5823  0.5648
  10023SM   C1S13537   7.631   0.032  12.368 -0.5423 -0.9848 -0.0322
  10023SM   H1S13538   7.577  -0.064  12.376 -0.1617 -1.0562  2.1108
  10023SM   H1T13539   7.550   0.106  12.384 -2.5362 -2.4839 -2.3636
  10023SM    NF13540   7.686   0.018  12.611 -0.2787 -0.2795 -0.3640
  10023SM   HNF13541   7.676   0.095  12.674 -1.0371 -1.3431  0.8668
  10023SM   C2S13542   7.747   0.042  12.478  0.3186  0.5738  0.1346
  10023SM   H2S13543   7.819  -0.039  12.455  2.0421  2.1841 -0.4461
  10023SM   C3S13544   7.817   0.181  12.463  0.6390  0.6058 -0.8108
  10023SM   H3S13545   7.737   0.258  12.463 -1.8706 -1.8310 -0.6021
  10023SM    O313546   7.887   0.189  12.340 -0.6949 -0.3004  0.4591
  10023SM   HO313547   7.842   0.127  12.283 -0.8850  1.3514 -1.2768
  10023SM   C4S13548   7.914   0.220  12.581  0.3929  0.5594  0.0204
  10023SM   H4S13549   7.990   0.145  12.610 -1.3924 -1.7991 -1.1059
  10023SM   C5S13550   7.902   0.337  12.648  0.0830  0.3653 -0.4372
  10023SM   H5S13551   7.830   0.412  12.611 -0.8320 -0.1996  0.1890
  10023SM   C6S13552   7.993   0.383  12.759 -0.0898  0.1860 -0.6520
  10023SM   H6S13553   8.007   0.493  12.759  0.4888  0.1161 -0.3324
  10023SM   H6T13554   8.096   0.340  12.754 -0.2965 -0.4050  0.1104
  10023SM   C7S13555   7.938   0.352  12.900  0.4007 -0.4333 -0.1846
  10023SM   H7S13556   8.020   0.364  12.974 -0.0986  0.5412  0.2269
  10023SM   H7T13557   7.902   0.247  12.911 -0.5487 -0.3218 -1.8568
  10023SM   C8S13558   7.810   0.422  12.941  0.4330  0.4672 -0.4417
  10023SM   H8S13559   7.740   0.417  12.855  0.2528 -0.7039 -0.2364
  10023SM   H8T13560   7.826   0.531  12.956  3.2039  0.1762 -0.7500
  10023SM   C9S13561   7.757   0.373  13.075 -0.2814 -0.1902 -0.0328
  10023SM   H9S13562   7.741   0.263  13.076 -1.8652  0.0300 -0.0457
  10023SM   H9T13563   7.669   0.437  13.092 -1.2891 -1.9074  1.5010
  10023SM  C10S13564   7.862   0.391  13.192 -0.1426  0.3722  0.1763
  10023SM  H10S13565   7.913   0.490  13.185  1.9931 -0.7841 -2.7475
  10023SM  H10T13566   7.947   0.321  13.179 -1.1289 -1.3629  2.4211
  10023SM  C11S13567   7.790   0.382  13.323  0.0223 -0.1999  0.1240
  10023SM  H11S13568   7.758   0.276  13.327  0.1591 -0.3550 -1.6709
  10023SM  H11T13569   7.703   0.449  13.335  0.2662  0.1285  0.0782
  10023SM  C12S13570   7.883   0.417  13.440  0.6385  0.1538  0.4699
  10023SM  H12S13571   7.935   0.514  13.429  0.0802  0.3002 -1.1340
  10023SM  H12T13572   7.964   0.341  13.438 -0.4319 -1.1858  2.7361
  10023SM  C13S13573   7.810   0.414  13.568 -0.2661  0.1392 -0.1750
  10023SM  H13S13574   7.766   0.315  13.592  0.0773 -0.2378 -1.0688
  10023SM  H13T13575   7.740   0.501  13.572 -0.8852  0.0097 -4.1191
  10023SM  C14S13576   7.909   0.435  13.670 -0.2095 -0.9545 -0.6020
  10023SM  H14S13577   7.964   0.530  13.655  2.6304 -2.4408 -0.2286
  10023SM  H14T13578   7.974   0.346  13.679 -0.8093 -1.3228  0.2314
  10023SM  C15S13579   7.850   0.445  13.812 -0.4324 -0.0631 -0.0520
  10023SM  H15S13580   7.812   0.350  13.854  1.0694 -1.1352 -1.0113
  10023SM  H15T13581   7.774   0.526  13.808 -0.3894  0.0175  0.6449
  10023SM  C16S13582   7.956   0.497  13.914  0.2659  0.5579 -0.3622
  10023SM  H16S13583   7.907   0.530  14.008 -1.7823  0.8277 -1.4564
  10023SM  H16T13584   8.015   0.583  13.877 -0.2344  0.3665 -1.6699
  10023SM  C17S13585   8.073   0.394  13.944 -0.4466 -0.6850  0.2190
  10023SM  H17S13586   8.131   0.384  13.850 -1.3107 -0.1473 -0.3826
  10023SM  H17T13587   8.036   0.291  13.959 -1.0040 -0.5538 -0.2308
  10023SM  C18S13588   8.165   0.434  14.063  0.0043  0.3622 -0.2575
  10023SM  H18S13589   8.197   0.540  14.054  0.0949  0.2265 -1.7861
  10023SM  H18T13590   8.247   0.362  14.085 -1.7593 -1.0863  1.9661
  10023SM  H18U13591   8.110   0.427  14.159  0.3086 -0.6412 -0.1428
  10023SM   C1F13592   7.645  -0.104  12.656  0.1028 -0.5376  0.4956
  10023SM    OF13593   7.673  -0.206  12.589  0.4559  0.1771 -0.2189
  10023SM   C2F13594   7.553  -0.114  12.784 -0.2618  0.1643  0.3114
  10023SM   H2F13595   7.448  -0.118  12.747 -0.7181  3.8915  0.8468
  10023SM   H2G13596   7.566  -0.026  12.850 -0.6057 -0.1957  0.8667
  10023SM   C3F13597   7.594  -0.242  12.865  0.4539 -0.3570 -0.5440
  10023SM   H3F13598   7.699  -0.274  12.850 -0.4157 -1.9242 -4.4372
  10023SM   H3G13599   7.545  -0.329  12.816 -0.6430  0.0290 -0.1538
  10023SM   C4F13600   7.545  -0.241  13.006  0.3659 -0.4448 -0.7255
  10023SM   H4F13601   7.435  -0.223  13.008  0.7054  1.9805 -0.3130
  10023SM   H4G13602   7.592  -0.157  13.061 -1.9828  1.8248 -1.9176
  10023SM   C5F13603   7.577  -0.368  13.084  0.1940 -0.9181  0.5948
  10023SM   H5F13604   7.686  -0.388  13.092 -0.0018 -2.0211  0.6483
  10023SM   H5G13605   7.536  -0.448  13.018  0.3512  0.6009 -1.4659
  10023SM   C6F13606   7.525  -0.389  13.228 -0.0955  0.2061  0.4097
  10023SM   H6F13607   7.551  -0.494  13.254  1.9782 -0.4408 -3.4260
  10023SM   H6G13608   7.413  -0.390  13.229 -0.1454  2.0352  0.3178
  10023SM   C7F13609   7.581  -0.287  13.319 -0.1396  0.1373 -0.6450
  10023SM   H7F13610   7.517  -0.196  13.314  0.5559  0.6887  0.1660
  10023SM   H7G13611   7.689  -0.263  13.303  0.8036 -2.5566  1.0227
  10023SM   C8F13612   7.593  -0.342  13.468 -1.2994 -0.0741 -0.1856
  10023SM   H8F13613   7.660  -0.268  13.518 -1.5767  0.6265 -0.8258
  10023SM   H8G13614   7.647  -0.439  13.467 -2.0585 -0.5008 -0.6610
  10023SM   C9F13615   7.466  -0.349  13.553  0.3303  0.3749 -0.5510
  10023SM   H9F13616   7.398  -0.429  13.518 -0.1662 -0.3699  1.9605
  10023SM   H9G13617   7.413  -0.251  13.552 -1.2002 -0.3697  1.5613
  10023SM  C10F13618   7.516  -0.393  13.695 -0.2552  0.2613 -0.1076
  10023SM  H10F13619   7.593  -0.324  13.735 -0.0901  0.2875 -0.4684
  10023SM  H10G13620   7.561  -0.494  13.701  2.0468  1.1824 -0.7818
  10023SM  C11F13621   7.399  -0.380  13.804  0.0154 -0.1833  1.0504
  10023SM  H11F13622   7.316  -0.444  13.767  0.6484 -0.8786  0.8261
  10023SM  H11G13623   7.361  -0.275  13.807 -3.1301 -1.1953 -0.1149
  10023SM  C12F13624   7.430  -0.407  13.949 -1.1946 -0.1343  0.4607
  10023SM  H12F13625   7.526  -0.357  13.974 -1.3568 -0.3236  1.5160
  10023SM  H12G13626   7.453  -0.514  13.967  0.7952  0.1334 -0.2875
  10023SM  C13F13627   7.315  -0.365  14.041  0.0069  0.5127 -0.9052
  10023SM  H13F13628   7.278  -0.268  14.003 -1.0758  0.6482  0.4126
  10023SM  H13G13629   7.335  -0.353  14.150 -1.5877 -2.2764 -0.1894
  10023SM  C14F13630   7.201  -0.468  14.050  0.3592 -0.2062  0.3828
  10023SM  H14F13631   7.237  -0.562  14.096  0.3535  0.9549  2.9036
  10023SM  H14G13632   7.167  -0.496  13.948  0.6327 -0.6873  0.4199
  10023SM  C15F13633   7.087  -0.411  14.140 -0.8092  0.1283 -0.1051
  10023SM  H15F13634   7.028  -0.345  14.073  1.7059  2.3749 -0.2945
  10023SM  H15G13635   7.130  -0.357  14.227 -0.2137 -0.6378  0.0855
  10023SM  C16F13636   7.005  -0.530  14.197  0.4514  0.2994  0.5093
  10023SM  H16F13637   7.074  -0.612  14.226  0.6915 -0.7643 -2.7003
  10023SM  H16G13638   6.937  -0.566  14.117  1.2039 -2.2364  0.8995
  10023SM  C17F13639   6.923  -0.485  14.319  0.3687 -0.9204  0.1243
  10023SM  H17F13640   6.865  -0.394  14.295  1.8303 -0.0138 -0.0511
  10023SM  H17G13641   6.990  -0.462  14.405  0.0331 -0.3671  0.2400
  10023SM  C18F13642   6.821  -0.601  14.356  0.0326 -0.1481  1.0923
  10023SM  H18F13643   6.750  -0.615  14.271 -0.5118 -0.7914  1.6499
  10023SM  H18G13644   6.774  -0.551  14.443  1.8550  1.1382  1.3861
  10023SM  C19F13645   6.889  -0.733  14.388  0.3059  0.0587 -0.2049
  10023SM  H19F13646   6.848  -0.765  14.486  1.3406  0.2708  0.3069
  10023SM  H19G13647   6.997  -0.709  14.403 -0.2844  1.5809  2.0098
  10023SM  C20F13648   6.859  -0.846  14.292 -0.5712 -0.2806  0.7749
  10023SM  H20F13649   6.895  -0.800  14.198 -0.5990  0.1636  0.9815
  10023SM  H20G13650   6.748  -0.849  14.295 -0.9641  2.8969 -3.1302
  10023SM  C21F13651   6.938  -0.973  14.308  0.6006  0.0116  0.1927
  10023SM  H21F13652   6.933  -1.011  14.412 -3.6072 -1.5512 -0.3702
  10023SM  H21G13653   7.043  -0.943  14.290  0.1619  0.1002 -2.8666
  10023SM  C22F13654   6.920  -1.096  14.216 -0.2576 -0.2915 -0.5598
  10023SM  H22F13655   6.992  -1.175  14.246  2.1546  2.0137  0.0155
  10023SM  H22G13656   6.953  -1.081  14.111  2.8774  0.4362  0.4393
  10023SM  C23F13657   6.768  -1.142  14.213 -0.5785 -0.5635  0.2933
  10023SM  H23F13658   6.712  -1.073  14.146  1.2176  2.5085  1.7070
  10023SM  H23G13659   6.714  -1.125  14.309 -0.1823  0.8279  0.2974
  10023SM  H23H13660   6.757  -1.252  14.206 -3.2440 -0.2881 -0.7363
  101CHL1    C313661   3.585   4.906  15.508  0.4075  0.5631  0.0947
  101CHL1    H313662   3.483   4.945  15.486 -0.3827 -1.1249  0.5981
  101CHL1    O313663   3.625   4.977  15.616 -0.0396 -0.2237  0.0586
  101CHL1   H3'13664   3.703   4.930  15.648  0.4245  0.3498 -0.2193
  101CHL1    C413665   3.577   4.758  15.552  0.2552 -0.2577 -0.1857
  101CHL1   H4A13666   3.678   4.721  15.579  0.5794  0.7860  0.0697
  101CHL1   H4B13667   3.512   4.742  15.641  1.4819  0.5784  0.8888
  101CHL1    C513668   3.532   4.670  15.440  0.2337  0.0930 -0.4711
  101CHL1    C613669   3.421   4.588  15.444 -0.5624 -0.3148  0.0367
  101CHL1    H613670   3.355   4.586  15.532 -1.0676 -1.9100 -0.3446
  101CHL1    C713671   3.373   4.505  15.328  0.6621 -0.1330  0.1435
  101CHL1   H7A13672   3.328   4.411  15.365 -1.9935  1.4802  1.3970
  101CHL1   H7B13673   3.293   4.563  15.277  0.0460 -0.3930  0.7945
  101CHL1    C813674   3.484   4.478  15.227 -0.5513  0.2220  0.7304
  101CHL1    H813675   3.558   4.408  15.272  1.0898  1.7850  0.6068
  101CHL1   C1413676   3.426   4.416  15.103 -0.8676  0.6964  0.2633
  101CHL1   H1413677   3.357   4.483  15.046 -0.4965  0.5758 -0.3454
  101CHL1   C1513678   3.346   4.287  15.108  0.6504  0.2781  0.6688
  101CHL1  H15A13679   3.398   4.233  15.191  0.6905  0.8536  1.0212
  101CHL1  H15B13680   3.237   4.296  15.127  0.0355 -0.7518 -1.9224
  101CHL1   C1613681   3.364   4.209  14.977  0.6092  0.7366 -0.0189
  101CHL1  H16A13682   3.418   4.116  15.006  2.6372  2.6210  2.7015
  101CHL1  H16B13683   3.265   4.192  14.931  1.0814 -0.5776 -0.6187
  101CHL1   C1713684   3.455   4.299  14.893 -0.0731  0.7290 -0.3569
  101CHL1   H1713685   3.385   4.377  14.856 -2.5042 -0.6850  1.0425
  101CHL1   C1313686   3.533   4.377  15.003 -0.3926 -0.7768 -0.6663
  101CHL1   C1813687   3.655   4.291  15.060  0.2842  0.7297 -0.4154
  101CHL1  H18A13688   3.613   4.212  15.126 -0.2256  2.6735  1.7088
  101CHL1  H18B13689   3.710   4.237  14.980  2.1512 -0.4083  1.5557
  101CHL1  H18C13690   3.721   4.347  15.130  1.3568 -0.9793 -0.0109
  101CHL1   C1213691   3.586   4.513  14.953  0.2125 -0.2576  0.3744
  101CHL1  H12A13692   3.658   4.496  14.870  0.5681 -0.4953  0.7279
  101CHL1  H12B13693   3.502   4.577  14.919 -0.1673 -1.2346 -0.5854
  101CHL1   C1113694   3.654   4.592  15.071  0.0981  0.2078  0.4600
  101CHL1  H11A13695   3.749   4.540  15.097 -0.5355 -0.9729  0.4944
  101CHL1  H11B13696   3.687   4.695  15.046  0.0391  0.3682  1.0376
  101CHL1    C913697   3.562   4.613  15.197 -0.2405  0.1762  0.7876
  101CHL1    H913698   3.484   4.680  15.155 -1.1752 -1.0950  0.4529
  101CHL1   C1013699   3.626   4.682  15.316  0.0931 -0.3348 -0.3248
  101CHL1   C1913700   3.755   4.610  15.348 -0.2656 -0.7621 -0.0556
  101CHL1  H19A13701   3.828   4.627  15.266  0.5187 -1.4251  0.4876
  101CHL1  H19B13702   3.810   4.644  15.438  1.9609 -1.7918 -0.9451
  101CHL1  H19C13703   3.740   4.500  15.361  2.2271 -1.2279 -0.6902
  101CHL1    C113704   3.655   4.833  15.282  0.3121 -0.4565 -0.1844
  101CHL1   H1A13705   3.737   4.838  15.206 -1.5296  0.6150 -2.2063
  101CHL1   H1B13706   3.566   4.874  15.231  2.3905  2.4001 -1.8240
  101CHL1    C213707   3.686   4.927  15.396  0.2250 -0.7280 -0.5481
  101CHL1   H2A13708   3.676   5.036  15.376 -2.5392 -0.5410  1.2343
  101CHL1   H2B13709   3.785   4.900  15.437  0.4110  1.0025  0.2118
  101CHL1   C2013710   3.532   4.247  14.773  0.3432  0.5736 -0.0317
  101CHL1   H2013711   3.628   4.302  14.778 -0.0940  1.3696 -0.1554
  101CHL1   C2113712   3.454   4.300  14.651 -0.3009  0.3988 -0.4241
  101CHL1  H21A13713   3.489   4.235  14.568  1.3140  3.0430 -1.9146
  101CHL1  H21B13714   3.482   4.404  14.626 -0.4542  0.0504 -2.1861
  101CHL1  H21C13715   3.343   4.293  14.660 -0.2548 -0.8998 -0.6142
  101CHL1   C2213716   3.556   4.101  14.779 -0.8627  0.7755  0.3109
  101CHL1  H22A13717   3.602   4.074  14.876  1.0772  0.2813 -0.7011
  101CHL1  H22B13718   3.462   4.042  14.787 -0.2295 -0.2102  0.5877
  101CHL1   C2313719   3.650   4.031  14.675 -0.0615 -0.0246 -0.0312
  101CHL1  H23A13720   3.591   4.012  14.583  1.2167 -0.7817 -0.7269
  101CHL1  H23B13721   3.748   4.080  14.656 -0.8100  2.7929  2.6647
  101CHL1   C2413722   3.702   3.905  14.745  0.3681  0.3204 -0.0884
  101CHL1  H24A13723   3.754   3.927  14.840  0.2732  1.8279 -0.3650
  101CHL1  H24B13724   3.625   3.828  14.769  0.2591  0.5544  0.3079
  101CHL1   C2513725   3.789   3.820  14.647 -0.2452 -0.8825 -0.2881
  101CHL1   H2513726   3.868   3.892  14.617  0.3717  0.0486  3.1355
  101CHL1   C2613727   3.883   3.732  14.725  0.1679  0.3634  0.2778
  101CHL1  H26A13728   3.824   3.645  14.761 -2.1013  1.6518 -0.1425
  101CHL1  H26B13729   3.974   3.701  14.670  1.0963 -0.3974  2.1359
  101CHL1  H26C13730   3.914   3.783  14.820  2.9188  0.9677 -0.8479
  101CHL1   C2713731   3.715   3.753  14.535 -0.2354 -1.0418 -0.5362
  101CHL1  H27A13732   3.640   3.689  14.586 -0.1241 -0.7830 -0.0300
  101CHL1  H27B13733   3.653   3.824  14.476 -0.4507 -2.3424 -1.9171
  101CHL1  H27C13734   3.772   3.694  14.461  1.4213 -1.5800  1.0695
  102CHL1    C313735   3.024   4.962  15.562  0.3102  0.0935 -0.4319
  102CHL1    H313736   2.914   4.952  15.574  0.4294  0.2268  1.0350
  102CHL1    O313737   3.067   5.012  15.690  0.0606 -0.6898 -0.7749
  102CHL1   H3'13738   3.161   5.018  15.677  0.5445 -1.7212  1.7066
  102CHL1    C413739   3.104   4.835  15.531  0.2270  0.2700 -0.6554
  102CHL1   H4A13740   3.212   4.846  15.552  0.0261 -1.3745  1.6589
  102CHL1   H4B13741   3.069   4.769  15.613  2.9070  1.7860  1.8767
  102CHL1    C513742   3.086   4.789  15.388  0.0118  0.2586 -0.0091
  102CHL1    C613743   3.043   4.667  15.350 -0.2054  0.4614  0.1936
  102CHL1    H613744   3.030   4.585  15.422 -0.3915  0.8375  0.5941
  102CHL1    C713745   3.026   4.621  15.209  0.0718 -0.2112  0.0206
  102CHL1   H7A13746   3.058   4.515  15.198 -2.1187 -0.8142 -1.0586
  102CHL1   H7B13747   2.921   4.629  15.177 -0.1924 -0.9626  0.6592
  102CHL1    C813748   3.107   4.707  15.113  0.1301 -0.4630 -0.0133
  102CHL1    H813749   3.217   4.694  15.116  0.1992  0.2549  1.2011
  102CHL1   C1413750   3.057   4.676  14.975  0.1156  0.3535  0.0813
  102CHL1   H1413751   2.949   4.701  14.975 -0.0671 -0.1014 -2.6730
  102CHL1   C1513752   3.070   4.530  14.925  0.4156 -0.3368 -0.3076
  102CHL1  H15A13753   3.157   4.479  14.973  0.9430  2.5388  2.0591
  102CHL1  H15B13754   2.982   4.468  14.954  0.9351 -0.3712  1.3057
  102CHL1   C1613755   3.077   4.555  14.771  0.9534  0.4682  0.0184
  102CHL1  H16A13756   3.174   4.514  14.737  0.0070 -2.9644  1.0513
  102CHL1  H16B13757   2.998   4.498  14.717  2.3338 -1.1239 -0.4042
  102CHL1   C1713758   3.063   4.700  14.743 -0.0492  0.0630  0.2539
  102CHL1   H1713759   2.953   4.716  14.752 -0.2447 -1.5543  1.1916
  102CHL1   C1313760   3.119   4.766  14.869  0.1549 -0.6669  0.4399
  102CHL1   C1813761   3.268   4.757  14.872 -0.7432 -0.2625 -0.4997
  102CHL1  H18A13762   3.315   4.823  14.795 -2.3938 -0.8587 -2.0774
  102CHL1  H18B13763   3.313   4.790  14.969 -0.5634  0.5673 -0.8563
  102CHL1  H18C13764   3.304   4.654  14.853 -1.4785 -0.2323 -2.2257
  102CHL1   C1213765   3.075   4.909  14.891 -1.0243  0.1105  0.0829
  102CHL1  H12A13766   3.116   4.980  14.817 -0.8610  0.5116  0.5504
  102CHL1  H12B13767   2.964   4.913  14.881 -1.3386 -2.3881  1.5760
  102CHL1   C1113768   3.115   4.961  15.030  0.2033  0.1949 -0.5490
  102CHL1  H11A13769   3.226   4.970  15.037  0.1589  0.0835  0.4621
  102CHL1  H11B13770   3.077   5.062  15.056  1.7220  0.3384  1.4093
  102CHL1    C913771   3.075   4.860  15.145 -0.1544 -0.1903  0.2008
  102CHL1    H913772   2.964   4.855  15.142 -0.1347 -0.3257 -0.4288
  102CHL1   C1013773   3.113   4.905  15.288 -0.3668 -0.4659 -0.1548
  102CHL1   C1913774   3.263   4.936  15.294  0.1427 -0.5940  0.4346
  102CHL1  H19A13775   3.307   4.957  15.395 -0.9762  1.9464  0.4653
  102CHL1  H19B13776   3.326   4.855  15.252  0.8752 -0.0654  0.4824
  102CHL1  H19C13777   3.287   5.031  15.242 -0.8019 -0.2819  0.5548
  102CHL1    C113778   3.024   5.033  15.319  0.2786 -0.5225 -0.3956
  102CHL1   H1A13779   3.042   5.109  15.239 -2.7162 -1.5551 -2.2330
  102CHL1   H1B13780   2.918   4.999  15.314  0.2046 -0.6352  1.2825
  102CHL1    C213781   3.056   5.078  15.464  0.6208  0.1404  1.0199
  102CHL1   H2A13782   3.007   5.170  15.502  2.1405  0.6373  1.8809
  102CHL1   H2B13783   3.159   5.115  15.481  0.4550  1.5217 -0.7000
  102CHL1   C2013784   3.106   4.746  14.601  1.1373  0.1451 -0.5878
  102CHL1   H2013785   3.121   4.856  14.599 -2.2185  0.8303  2.6108
  102CHL1   C2113786   2.982   4.717  14.513 -0.4657  0.6474 -0.6959
  102CHL1  H21A13787   2.994   4.752  14.408  0.7241  0.6697 -0.5596
  102CHL1  H21B13788   2.888   4.761  14.552 -0.5072  1.3797 -1.6010
  102CHL1  H21C13789   2.979   4.606  14.500 -0.5424  0.6250 -0.4838
  102CHL1   C2213790   3.232   4.682  14.537 -0.1671  0.2429 -0.1586
  102CHL1  H22A13791   3.313   4.702  14.610  0.2532  0.9232 -0.7977
  102CHL1  H22B13792   3.212   4.573  14.538  0.6466  0.0546 -1.6230
  102CHL1   C2313793   3.272   4.737  14.400 -0.1976  0.4889 -0.5079
  102CHL1  H23A13794   3.189   4.726  14.328  0.9269  0.2551 -1.8153
  102CHL1  H23B13795   3.301   4.842  14.421  0.7220  0.0385  0.6372
  102CHL1   C2413796   3.403   4.668  14.352 -0.7298 -0.0282  0.0628
  102CHL1  H24A13797   3.483   4.700  14.422  1.0066 -0.8239 -1.4562
  102CHL1  H24B13798   3.380   4.560  14.357  2.3754 -0.7452  1.4746
  102CHL1   C2513799   3.452   4.700  14.207  0.6457  0.6075  0.6177
  102CHL1   H2513800   3.384   4.658  14.130  2.2040  1.4058 -1.2858
  102CHL1   C2613801   3.445   4.854  14.181 -0.0195 -0.1815 -0.2805
  102CHL1  H26A13802   3.342   4.892  14.161 -0.0015 -0.0757 -0.1734
  102CHL1  H26B13803   3.489   4.914  14.263  1.4208  2.5055 -2.8206
  102CHL1  H26C13804   3.497   4.870  14.084 -0.1869  0.1291 -0.3216
  102CHL1   C2713805   3.596   4.652  14.169 -0.0676  0.3211 -0.4813
  102CHL1  H27A13806   3.655   4.724  14.108 -1.4013  3.2309  1.4444
  102CHL1  H27B13807   3.648   4.650  14.266 -0.4823  0.1326 -0.2598
  102CHL1  H27C13808   3.599   4.552  14.120 -0.8754  0.2397 -0.3907
  103CHL1    C313809   2.097   3.250  15.943  0.7156  0.0424 -0.4971
  103CHL1    H313810   2.003   3.207  15.902  2.0331 -3.3945 -0.2742
  103CHL1    O313811   2.070   3.331  16.053  1.0123  0.1483 -1.1567
  103CHL1   H3'13812   2.154   3.336  16.100  1.3302 -1.9233 -1.3912
  103CHL1    C413813   2.192   3.138  15.994 -0.6853 -0.8356  0.7033
  103CHL1   H4A13814   2.277   3.193  16.039  0.8358 -0.6860 -2.0881
  103CHL1   H4B13815   2.132   3.083  16.069 -1.0850 -3.8762 -1.6196
  103CHL1    C513816   2.228   3.039  15.887 -0.7396 -0.6005  0.5869
  103CHL1    C613817   2.201   2.909  15.897  0.1997 -0.8716  0.1758
  103CHL1    H613818   2.152   2.879  15.991 -0.8588  3.1563  1.1203
  103CHL1    C713819   2.224   2.812  15.785 -0.6551  0.1376  0.2697
  103CHL1   H7A13820   2.263   2.716  15.823  2.0612  0.6342 -1.0364
  103CHL1   H7B13821   2.126   2.815  15.731 -0.0834  2.6173 -0.7822
  103CHL1    C813822   2.326   2.855  15.679  0.1457  0.6681 -0.0931
  103CHL1    H813823   2.429   2.856  15.720 -0.4729 -2.1865  1.8379
  103CHL1   C1413824   2.323   2.769  15.550  0.3022  0.2440  0.2044
  103CHL1   H1413825   2.221   2.779  15.508  0.6499  0.2675 -0.6570
  103CHL1   C1513826   2.350   2.617  15.558  0.3158  0.2117 -0.1824
  103CHL1  H15A13827   2.442   2.603  15.619  0.7587 -4.7051 -1.5076
  103CHL1  H15B13828   2.264   2.554  15.590 -0.1744 -0.0769 -1.9599
  103CHL1   C1613829   2.381   2.575  15.412 -0.7061 -0.3273  0.3551
  103CHL1  H16A13830   2.482   2.531  15.419  0.1609  1.2516 -1.3992
  103CHL1  H16B13831   2.311   2.498  15.372 -1.2434  0.9546 -1.2978
  103CHL1   C1713832   2.384   2.702  15.328 -0.2477 -0.2312 -0.0511
  103CHL1   H1713833   2.280   2.718  15.291 -1.1997 -1.9385  1.7106
  103CHL1   C1313834   2.407   2.819  15.436  0.2656  0.2878  0.0618
  103CHL1   C1813835   2.560   2.806  15.472  0.3888 -1.3285 -0.8846
  103CHL1  H18A13836   2.588   2.847  15.571 -0.2882 -2.3736 -0.2410
  103CHL1  H18B13837   2.613   2.708  15.464  2.1733 -0.5618  0.8179
  103CHL1  H18C13838   2.615   2.864  15.394  2.3462 -1.0112  0.6532
  103CHL1   C1213839   2.363   2.958  15.389 -0.1796  0.2315  0.5600
  103CHL1  H12A13840   2.437   3.014  15.328 -0.5689  0.2447  0.0992
  103CHL1  H12B13841   2.262   2.954  15.342  0.0932 -1.1072  0.0380
  103CHL1   C1113842   2.361   3.052  15.511 -0.9256 -0.2223 -0.4549
  103CHL1  H11A13843   2.470   3.061  15.526 -0.7362  2.8107 -2.8336
  103CHL1  H11B13844   2.322   3.152  15.482 -0.8951  0.0266  0.3274
  103CHL1    C913845   2.288   2.996  15.641  0.3718  0.6445  0.2727
  103CHL1    H913846   2.181   2.989  15.612  0.2336  1.8570  0.4353
  103CHL1   C1013847   2.283   3.100  15.753 -0.2545  0.4437 -0.4325
  103CHL1   C1913848   2.429   3.146  15.787  0.4136 -0.5723 -0.4432
  103CHL1  H19A13849   2.486   3.178  15.697  1.3046  1.5282  0.8095
  103CHL1  H19B13850   2.420   3.223  15.866  0.8686  0.1755 -1.1108
  103CHL1  H19C13851   2.491   3.063  15.829 -0.7818 -0.6505  1.2608
  103CHL1    C113852   2.204   3.224  15.711  0.0141 -0.2178  0.3604
  103CHL1   H1A13853   2.256   3.283  15.633 -1.6978  1.2520  0.2557
  103CHL1   H1B13854   2.111   3.191  15.660 -0.4031  3.1303 -1.3068
  103CHL1    C213855   2.162   3.323  15.828  0.6572  0.6433  0.3026
  103CHL1   H2A13856   2.085   3.394  15.792 -1.5135 -0.9370  1.6079
  103CHL1   H2B13857   2.250   3.375  15.872  0.4286 -0.3297  2.0101
  103CHL1   C2013858   2.462   2.704  15.199  0.0848  0.5679 -0.1713
  103CHL1   H2013859   2.568   2.736  15.208  0.0265  0.6523  0.2150
  103CHL1   C2113860   2.400   2.797  15.097  0.6177  0.1010  0.4066
  103CHL1  H21A13861   2.426   2.782  14.991  0.3947  3.2286 -0.1831
  103CHL1  H21B13862   2.434   2.899  15.124  0.3662  1.0641 -2.6583
  103CHL1  H21C13863   2.289   2.792  15.090  0.5879  1.4591 -0.4780
  103CHL1   C2213864   2.492   2.566  15.140  0.0898  0.7151  0.1564
  103CHL1  H22A13865   2.561   2.581  15.056  0.9367 -0.9790  0.5053
  103CHL1  H22B13866   2.546   2.503  15.213 -2.3885 -0.8405  0.7803
  103CHL1   C2313867   2.383   2.490  15.071 -0.1281 -0.0736 -0.1479
  103CHL1  H23A13868   2.308   2.432  15.130  0.4119 -0.4502  0.1849
  103CHL1  H23B13869   2.321   2.554  15.005 -2.9865 -0.6264  1.8127
  103CHL1   C2413870   2.445   2.379  14.982  0.0412  0.3423  0.2020
  103CHL1  H24A13871   2.527   2.422  14.921 -0.3582  0.1997 -0.4593
  103CHL1  H24B13872   2.481   2.296  15.046 -1.9441 -0.6155  0.1839
  103CHL1   C2513873   2.344   2.308  14.878  0.1171  0.3031 -0.2405
  103CHL1   H2513874   2.248   2.273  14.920  0.7285 -1.4075 -0.1795
  103CHL1   C2613875   2.328   2.409  14.763  0.2022 -0.7222  0.4805
  103CHL1  H26A13876   2.290   2.503  14.807  0.2216  0.1535 -1.2709
  103CHL1  H26B13877   2.416   2.439  14.701 -1.0506  2.4338  0.0806
  103CHL1  H26C13878   2.254   2.380  14.686  1.6170 -0.7210 -0.9447
  103CHL1   C2713879   2.406   2.178  14.827  0.4427 -0.5429 -0.6141
  103CHL1  H27A13880   2.503   2.202  14.779  1.0675 -0.6086  0.5810
  103CHL1  H27B13881   2.425   2.115  14.916  0.2379 -0.3177 -0.4071
  103CHL1  H27C13882   2.329   2.134  14.760 -0.2527 -0.5752  0.1892
  104CHL1    C313883   5.807   4.396  15.679 -0.3156  0.6653  0.6779
  104CHL1    H313884   5.804   4.285  15.672 -0.2031  0.5927  1.6343
  104CHL1    O313885   5.774   4.435  15.813  0.1806  0.3314 -0.2514
  104CHL1   H3'13886   5.729   4.519  15.803 -0.6842 -0.2374 -1.3338
  104CHL1    C413887   5.951   4.440  15.651  0.4021  0.3627 -0.5768
  104CHL1   H4A13888   5.951   4.546  15.685  3.3480  0.1028  0.5149
  104CHL1   H4B13889   6.025   4.397  15.722  1.6905  0.9079 -1.5448
  104CHL1    C513890   6.001   4.422  15.513 -0.5049 -0.5309 -0.6131
  104CHL1    C613891   6.115   4.350  15.490 -0.0340 -0.0251  0.5028
  104CHL1    H613892   6.174   4.304  15.570 -0.7713 -0.8270  0.5991
  104CHL1    C713893   6.162   4.328  15.352 -0.9269 -0.5179  0.7852
  104CHL1   H7A13894   6.271   4.309  15.338 -1.1026 -0.1589 -1.2818
  104CHL1   H7B13895   6.118   4.230  15.325 -1.7928  0.8915 -3.6865
  104CHL1    C813896   6.102   4.424  15.247 -0.4116  0.2576  0.5737
  104CHL1    H813897   6.150   4.522  15.269  0.2877 -0.6639  3.5348
  104CHL1   C1413898   6.140   4.380  15.099  0.4686  0.1243  0.4352
  104CHL1   H1413899   6.094   4.280  15.090  0.5501  0.1422 -0.2689
  104CHL1   C1513900   6.287   4.360  15.061 -0.1358  0.0077  0.1081
  104CHL1  H15A13901   6.355   4.438  15.104 -0.4588  0.7854 -0.7587
  104CHL1  H15B13902   6.342   4.275  15.107 -1.6666 -1.2640 -0.3538
  104CHL1   C1613903   6.285   4.363  14.906  0.0160  0.7761 -0.7746
  104CHL1  H16A13904   6.361   4.436  14.871 -0.8511  1.3988 -1.4297
  104CHL1  H16B13905   6.295   4.271  14.845  1.6827 -0.3275  1.0642
  104CHL1   C1713906   6.149   4.422  14.864  0.5927  0.3421  0.5725
  104CHL1   H1713907   6.083   4.340  14.828  3.0509 -1.2220 -0.6073
  104CHL1   C1313908   6.083   4.479  14.986 -0.2803  0.6576  0.2906
  104CHL1   C1813909   6.150   4.615  15.017  0.8962  0.4518 -0.3461
  104CHL1  H18A13910   6.139   4.664  15.116  0.8406  2.7958 -1.4284
  104CHL1  H18B13911   6.258   4.610  14.992  0.6503 -1.0317 -1.2264
  104CHL1  H18C13912   6.112   4.696  14.951 -2.2607  0.3003  1.0821
  104CHL1   C1213913   5.933   4.470  14.997  0.2492 -0.4726  0.5777
  104CHL1  H12A13914   5.876   4.531  14.924 -1.0339 -1.6628  0.5514
  104CHL1  H12B13915   5.910   4.365  14.968  1.7384 -0.5952 -0.2752
  104CHL1   C1113916   5.877   4.505  15.132 -0.3717 -0.1837 -0.4090
  104CHL1  H11A13917   5.876   4.615  15.149 -1.6977 -0.3681  0.9724
  104CHL1  H11B13918   5.769   4.479  15.143  0.2299 -1.9780  2.0823
  104CHL1    C913919   5.951   4.434  15.261  0.2979  0.1270 -0.1077
  104CHL1    H913920   5.915   4.330  15.247 -2.0333  0.8841 -0.1752
  104CHL1   C1013921   5.910   4.483  15.405  0.1655 -0.1111  0.4590
  104CHL1   C1913922   5.908   4.634  15.411 -0.6883 -0.8713  0.6995
  104CHL1  H19A13923   5.900   4.668  15.517 -0.8046  2.7539 -0.3559
  104CHL1  H19B13924   5.993   4.691  15.368 -1.8391  1.1528  1.0245
  104CHL1  H19C13925   5.818   4.676  15.363  0.0644  1.0312  0.8542
  104CHL1    C113926   5.762   4.450  15.430 -0.2366  0.7880  0.1610
  104CHL1   H1A13927   5.689   4.489  15.356  0.2120 -2.8138 -2.4875
  104CHL1   H1B13928   5.753   4.340  15.413 -1.2172  0.5287  2.0852
  104CHL1    C213929   5.718   4.460  15.579  0.2027  0.1924 -0.4873
  104CHL1   H2A13930   5.619   4.410  15.580  0.5455 -0.5302  1.9244
  104CHL1   H2B13931   5.708   4.566  15.611  1.3857 -0.1180  1.0199
  104CHL1   C2013932   6.169   4.514  14.737 -0.1014  0.9604  0.3270
  104CHL1   H2013933   6.254   4.583  14.754  0.1773  0.8021 -0.3825
  104CHL1   C2113934   6.032   4.585  14.710 -0.6319 -0.6949  0.8261
  104CHL1  H21A13935   6.029   4.645  14.617 -0.9940 -2.7065 -0.5387
  104CHL1  H21B13936   6.012   4.653  14.796  0.4441  1.3118 -0.4531
  104CHL1  H21C13937   5.962   4.500  14.699 -0.0787 -0.8898 -1.8201
  104CHL1   C2213938   6.203   4.441  14.603  0.2376  0.1904  0.4950
  104CHL1  H22A13939   6.300   4.390  14.622  1.1532  0.5337 -2.6698
  104CHL1  H22B13940   6.122   4.368  14.581 -1.9760  2.9006 -1.1007
  104CHL1   C2313941   6.211   4.528  14.474  0.3881 -0.6951 -0.3688
  104CHL1  H23A13942   6.115   4.576  14.445  0.2086  0.7093  2.2918
  104CHL1  H23B13943   6.274   4.616  14.497 -1.2574  0.5762 -0.5467
  104CHL1   C2413944   6.261   4.447  14.358 -0.3348  0.0500  0.0675
  104CHL1  H24A13945   6.347   4.383  14.387 -0.5628  0.1687  1.0479
  104CHL1  H24B13946   6.179   4.382  14.321 -1.3895  1.0869  0.5175
  104CHL1   C2513947   6.293   4.523  14.224 -0.0106 -1.2211 -0.1417
  104CHL1   H2513948   6.357   4.609  14.252 -1.7348 -0.4697  1.7803
  104CHL1   C2613949   6.367   4.432  14.129  0.1336 -0.5877 -0.0604
  104CHL1  H26A13950   6.448   4.373  14.177  1.0558  1.2405  0.7237
  104CHL1  H26B13951   6.298   4.354  14.088  1.6982 -1.7425 -0.6129
  104CHL1  H26C13952   6.393   4.491  14.039 -1.2036  0.9235  0.4888
  104CHL1   C2713953   6.164   4.578  14.153 -0.4093  1.3243 -0.3296
  104CHL1  H27A13954   6.200   4.640  14.069  0.6933  1.8415  0.4928
  104CHL1  H27B13955   6.114   4.488  14.112 -1.7746  1.5839  0.7080
  104CHL1  H27C13956   6.099   4.636  14.222 -2.3276 -0.6744 -0.3274
  105CHL1    C313957   6.450   3.168  15.931 -0.5059  0.9508 -0.2203
  105CHL1    H313958   6.546   3.156  15.877 -0.5844 -0.9034  0.0025
  105CHL1    O313959   6.475   3.145  16.070 -0.0492  0.3014 -0.1121
  105CHL1   H3'13960   6.391   3.154  16.116 -0.0463  0.4989 -0.1444
  105CHL1    C413961   6.395   3.307  15.909  0.1021 -0.0053 -0.1732
  105CHL1   H4A13962   6.301   3.316  15.967  0.1414  1.6218 -0.3208
  105CHL1   H4B13963   6.467   3.380  15.951  1.9463 -1.3291 -0.8848
  105CHL1    C513964   6.370   3.334  15.761  0.4380  0.1886 -0.0798
  105CHL1    C613965   6.427   3.425  15.690 -0.2568 -0.5180  0.4279
  105CHL1    H613966   6.502   3.490  15.737 -1.8865  1.7389  0.0701
  105CHL1    C713967   6.403   3.455  15.544 -0.1891 -0.9914 -0.3124
  105CHL1   H7A13968   6.397   3.566  15.540 -1.4972 -0.7722  3.6241
  105CHL1   H7B13969   6.487   3.418  15.481  0.8981 -2.5821  1.9543
  105CHL1    C813970   6.266   3.399  15.500  0.0936 -0.1637 -0.6470
  105CHL1    H813971   6.188   3.454  15.557 -1.6552 -1.7669 -1.3780
  105CHL1   C1413972   6.246   3.424  15.349  0.6627 -0.4295  0.4456
  105CHL1   H1413973   6.320   3.364  15.291  0.7130  0.0768 -0.0177
  105CHL1   C1513974   6.261   3.564  15.283 -0.3583  0.0483 -0.1313
  105CHL1  H15A13975   6.191   3.633  15.335 -1.6647  0.3294 -2.1397
  105CHL1  H15B13976   6.361   3.606  15.259 -0.3880  0.9766  1.2269
  105CHL1   C1613977   6.195   3.539  15.144  0.6383 -0.7380  0.1574
  105CHL1  H16A13978   6.120   3.620  15.134 -1.5217 -2.6506 -0.0412
  105CHL1  H16B13979   6.268   3.548  15.061  2.6282 -1.2327  1.7823
  105CHL1   C1713980   6.123   3.405  15.146  0.7442 -0.5709  0.0749
  105CHL1   H1713981   6.191   3.329  15.103  0.9734  0.8152 -2.2047
  105CHL1   C1313982   6.114   3.370  15.301 -0.3136 -0.3116 -0.7123
  105CHL1   C1813983   5.985   3.447  15.361 -0.5466  0.0206 -0.0952
  105CHL1  H18A13984   5.996   3.462  15.471  0.4199 -1.5242  0.0534
  105CHL1  H18B13985   5.981   3.548  15.315 -0.4852 -0.4316 -1.1267
  105CHL1  H18C13986   5.887   3.399  15.343 -0.7308 -0.0514  0.9968
  105CHL1   C1213987   6.110   3.214  15.333  0.2029  0.2089 -0.2317
  105CHL1  H12A13988   6.017   3.173  15.287 -0.5897  0.9624  0.6558
  105CHL1  H12B13989   6.190   3.171  15.269  0.0462 -0.1866 -0.1650
  105CHL1   C1113990   6.125   3.185  15.484  0.2755  0.2965  0.2408
  105CHL1  H11A13991   6.032   3.225  15.530  0.6409 -0.3807  1.5896
  105CHL1  H11B13992   6.132   3.075  15.490  0.4088  0.0956 -2.2601
  105CHL1    C913993   6.252   3.258  15.540 -0.1605  0.1768 -0.0805
  105CHL1    H913994   6.333   3.201  15.490  0.6449 -0.7419  2.1691
  105CHL1   C1013995   6.263   3.238  15.698 -0.4434 -0.2418  0.1983
  105CHL1   C1913996   6.135   3.272  15.763  0.2549  0.0826  0.1016
  105CHL1  H19A13997   6.128   3.269  15.874  1.1497  2.4770  0.2945
  105CHL1  H19B13998   6.117   3.378  15.732  1.7709 -0.1562 -1.6964
  105CHL1  H19C13999   6.051   3.209  15.727  0.3823 -1.7301  2.7134
  105CHL1    C114000   6.320   3.097  15.726 -0.1967  0.1145 -0.4603
  105CHL1   H1A14001   6.252   3.020  15.686 -1.6617  0.4479  1.2501
  105CHL1   H1B14002   6.412   3.076  15.667  0.7144 -0.2703  1.0474
  105CHL1    C214003   6.361   3.059  15.874 -0.8687  0.9038  0.0078
  105CHL1   H2A14004   6.400   2.955  15.866 -2.8699  0.1026  0.0569
  105CHL1   H2B14005   6.269   3.062  15.936 -1.0495 -2.8195  0.1912
  105CHL1   C2014006   5.993   3.413  15.061 -0.3699 -0.0761 -0.2942
  105CHL1   H2014007   5.919   3.482  15.108 -1.2171 -1.4324  0.4181
  105CHL1   C2114008   5.936   3.273  15.059 -0.6075 -0.4460  0.6915
  105CHL1  H21A14009   5.906   3.244  14.956 -0.5846  0.2531  0.4867
  105CHL1  H21B14010   5.850   3.262  15.129  0.5077  1.4904  2.4857
  105CHL1  H21C14011   6.017   3.199  15.074  0.1334 -0.3598 -2.3058
  105CHL1   C2214012   6.014   3.474  14.917 -0.1590 -0.1251  0.7813
  105CHL1  H22A14013   6.076   3.566  14.912  0.0250 -0.2715  0.3130
  105CHL1  H22B14014   6.070   3.404  14.851 -1.0988 -1.1612  1.0538
  105CHL1   C2314015   5.880   3.513  14.846 -0.2803 -0.2199  0.0973
  105CHL1  H23A14016   5.819   3.422  14.830 -1.8058  0.9450 -0.9432
  105CHL1  H23B14017   5.828   3.590  14.907 -2.5840 -1.9482  0.4404
  105CHL1   C2414018   5.903   3.574  14.709  0.6066  1.0290 -0.5538
  105CHL1  H24A14019   5.980   3.654  14.707 -0.3215  2.0343 -4.1808
  105CHL1  H24B14020   5.941   3.497  14.639 -1.2546  0.2671 -0.7914
  105CHL1   C2514021   5.771   3.620  14.643  0.1076  0.8637  0.1864
  105CHL1   H2514022   5.708   3.688  14.702 -1.2512  1.5279 -1.9083
  105CHL1   C2614023   5.793   3.699  14.522  0.2123 -0.1339 -0.5497
  105CHL1  H26A14024   5.839   3.797  14.546  0.7455 -0.6806  0.7489
  105CHL1  H26B14025   5.849   3.634  14.452 -2.6030 -3.6299  0.1529
  105CHL1  H26C14026   5.689   3.719  14.487 -0.0133 -2.3276 -1.2679
  105CHL1   C2714027   5.666   3.502  14.606 -0.5451 -0.1685 -0.5127
  105CHL1  H27A14028   5.653   3.431  14.690 -1.9315 -1.8326 -2.0501
  105CHL1  H27B14029   5.564   3.535  14.576 -0.9688 -0.3756  0.6570
  105CHL1  H27C14030   5.710   3.437  14.528  0.3451  0.0822 -0.2320
  106CHL1    C314031   1.360   2.803  15.819 -0.3987 -0.4226 -0.2257
  106CHL1    H314032   1.426   2.892  15.823 -2.2413  0.9765  0.5516
  106CHL1    O314033   1.332   2.769  15.952  0.1223  0.1366  0.0790
  106CHL1   H3'14034   1.417   2.756  15.994 -0.4179 -1.2010  0.8461
  106CHL1    C414035   1.232   2.842  15.739 -0.0070 -0.3262  0.1236
  106CHL1   H4A14036   1.157   2.760  15.732  0.7975 -1.0483 -0.1483
  106CHL1   H4B14037   1.188   2.924  15.799  2.0345  0.1852  0.9918
  106CHL1    C514038   1.259   2.892  15.597 -0.3803 -0.1484  0.4096
  106CHL1    C614039   1.216   3.018  15.558 -0.1461 -0.2427  0.0694
  106CHL1    H614040   1.162   3.089  15.622  0.5164 -0.0037  0.3711
  106CHL1    C714041   1.250   3.065  15.417  0.4786 -0.3401 -0.1160
  106CHL1   H7A14042   1.161   3.116  15.374  0.9562  1.0285  0.4782
  106CHL1   H7B14043   1.319   3.149  15.438  3.3750 -2.6281  0.2724
  106CHL1    C814044   1.315   2.962  15.321  0.0616  0.3704  0.2780
  106CHL1    H814045   1.233   2.899  15.280  0.2952  0.6055 -0.5813
  106CHL1   C1414046   1.390   3.032  15.211  0.2996 -0.0769 -0.6044
  106CHL1   H1414047   1.468   3.091  15.265  0.8858 -1.9309  0.6520
  106CHL1   C1514048   1.308   3.132  15.123 -0.6577 -0.1864 -0.5000
  106CHL1  H15A14049   1.215   3.082  15.088 -0.2184 -1.3529 -0.0655
  106CHL1  H15B14050   1.284   3.218  15.189  0.9623 -1.0478  1.3400
  106CHL1   C1614051   1.402   3.165  14.998  0.4967 -0.0232 -0.7522
  106CHL1  H16A14052   1.348   3.137  14.905 -1.3794  0.4026  0.1672
  106CHL1  H16B14053   1.437   3.270  14.996 -2.1022  0.9643  0.9751
  106CHL1   C1714054   1.523   3.069  15.017 -0.1908  0.2643 -0.2146
  106CHL1   H1714055   1.597   3.124  15.078 -0.6678  1.3380 -0.5866
  106CHL1   C1314056   1.471   2.953  15.110  0.5752 -0.1529 -0.3717
  106CHL1   C1814057   1.382   2.857  15.028 -0.5014 -0.2121 -0.3126
  106CHL1  H18A14058   1.311   2.914  14.964 -0.5505  2.3009  1.8324
  106CHL1  H18B14059   1.460   2.805  14.968  0.5568  0.6460  0.2793
  106CHL1  H18C14060   1.328   2.795  15.103 -2.1622  1.9008  0.3406
  106CHL1   C1214061   1.580   2.876  15.190 -0.1690  0.1492 -0.0815
  106CHL1  H12A14062   1.635   2.805  15.124  1.1328  1.0960 -0.0722
  106CHL1  H12B14063   1.655   2.950  15.225 -0.6135  0.6436 -0.1615
  106CHL1   C1114064   1.519   2.803  15.308  0.7322  0.0498 -0.3097
  106CHL1  H11A14065   1.458   2.726  15.256 -0.3310  1.9016 -1.9809
  106CHL1  H11B14066   1.596   2.752  15.369  1.4267  0.3658 -0.9155
  106CHL1    C914067   1.416   2.878  15.400 -0.0203 -0.3010  0.2685
  106CHL1    H914068   1.477   2.950  15.459 -0.8222  0.7520 -0.1609
  106CHL1   C1014069   1.358   2.796  15.514  0.8836  0.1093 -0.0474
  106CHL1   C1914070   1.271   2.687  15.457 -0.6477  0.2139  0.1424
  106CHL1  H19A14071   1.185   2.738  15.409 -0.6463  1.4911  1.4354
  106CHL1  H19B14072   1.321   2.619  15.385  1.3578  0.8293  0.8748
  106CHL1  H19C14073   1.238   2.624  15.543  3.6551 -0.6608  1.4153
  106CHL1    C114074   1.467   2.728  15.606  0.2366  0.3854 -0.2867
  106CHL1   H1A14075   1.526   2.653  15.549  1.8398  0.8724  0.6642
  106CHL1   H1B14076   1.545   2.807  15.612 -0.2440  0.8151  0.4425
  106CHL1    C214077   1.430   2.689  15.750  0.0630 -0.0421  0.3892
  106CHL1   H2A14078   1.527   2.665  15.799  0.1705  3.0193  1.8964
  106CHL1   H2B14079   1.367   2.597  15.742 -1.2742  0.7992  0.9765
  106CHL1   C2014080   1.591   3.042  14.880 -0.1820 -0.3042 -0.2777
  106CHL1   H2014081   1.508   2.996  14.822 -0.2862 -0.1814 -0.2264
  106CHL1   C2114082   1.698   2.934  14.892  0.3325  0.2740  0.0622
  106CHL1  H21A14083   1.778   2.978  14.957 -0.0558  0.0963  0.6684
  106CHL1  H21B14084   1.748   2.900  14.799  1.7635 -0.8040  1.1675
  106CHL1  H21C14085   1.667   2.841  14.944 -0.8394  0.3166 -0.5320
  106CHL1   C2214086   1.640   3.167  14.811 -0.1036  0.2791 -1.0950
  106CHL1  H22A14087   1.573   3.252  14.836  1.3889  0.4019  3.3068
  106CHL1  H22B14088   1.739   3.193  14.854  0.3894 -3.1870  0.1959
  106CHL1   C2314089   1.657   3.146  14.664 -0.0442 -0.3046 -0.2164
  106CHL1  H23A14090   1.735   3.069  14.647  2.3431  1.9124  0.2607
  106CHL1  H23B14091   1.564   3.099  14.624  0.4406 -2.0835  0.6223
  106CHL1   C2414092   1.697   3.275  14.594  0.7584 -0.7769  0.0268
  106CHL1  H24A14093   1.616   3.352  14.595  0.3685 -1.1833 -0.0042
  106CHL1  H24B14094   1.783   3.318  14.650 -0.6617  1.9514  0.2634
  106CHL1   C2514095   1.760   3.247  14.453  0.1313  0.6555 -0.0260
  106CHL1   H2514096   1.849   3.181  14.461  0.2972  0.9792  0.9250
  106CHL1   C2614097   1.653   3.192  14.349 -0.1773 -0.3681  0.0525
  106CHL1  H26A14098   1.614   3.099  14.394 -0.4798  0.3327  1.2647
  106CHL1  H26B14099   1.572   3.267  14.334 -1.0452 -1.2697  0.1298
  106CHL1  H26C14100   1.700   3.166  14.252  2.1232  0.7007  0.8137
  106CHL1   C2714101   1.792   3.387  14.388 -0.5982  0.0422  0.1670
  106CHL1  H27A14102   1.830   3.365  14.286  1.4173 -1.3388  1.1689
  106CHL1  H27B14103   1.716   3.468  14.391  1.6455  2.3479 -1.6245
  106CHL1  H27C14104   1.879   3.436  14.434  0.9459 -0.2301 -2.2860
  107CHL1    C314105   3.704   6.826  15.701  0.4257 -0.7015 -0.3580
  107CHL1    H314106   3.733   6.733  15.754 -0.9176 -1.5917 -1.1201
  107CHL1    O314107   3.617   6.900  15.787 -0.2403  0.0260 -0.2868
  107CHL1   H3'14108   3.634   6.992  15.764 -2.8244  0.3936 -1.0692
  107CHL1    C414109   3.829   6.910  15.674 -0.0548 -0.3971  0.3356
  107CHL1   H4A14110   3.788   7.009  15.645 -1.5894 -0.9952  0.3999
  107CHL1   H4B14111   3.881   6.927  15.770 -0.7358 -0.6684  0.7599
  107CHL1    C514112   3.920   6.853  15.571  0.1812  0.5358  0.4658
  107CHL1    C614113   4.044   6.818  15.599 -0.0326  0.5179 -0.7455
  107CHL1    H614114   4.084   6.848  15.697  0.4161  0.2831 -0.8534
  107CHL1    C714115   4.139   6.776  15.494  0.2964 -0.5447 -0.6634
  107CHL1   H7A14116   4.237   6.824  15.511 -0.1147  0.1007 -0.0291
  107CHL1   H7B14117   4.154   6.666  15.501  0.2259 -0.4791  0.9755
  107CHL1    C814118   4.096   6.804  15.355 -0.3463  0.4824  0.2367
  107CHL1    H814119   4.109   6.913  15.342  0.3277  0.3440 -0.3525
  107CHL1   C1414120   4.178   6.739  15.255 -0.8301  0.2425 -0.7042
  107CHL1   H1414121   4.161   6.630  15.266  0.3770 -0.1537 -2.4103
  107CHL1   C1514122   4.327   6.771  15.273  0.2993 -0.0051 -0.4067
  107CHL1  H15A14123   4.332   6.880  15.291  0.3080 -0.1475  0.4980
  107CHL1  H15B14124   4.373   6.724  15.363  3.3945 -0.2040 -1.9694
  107CHL1   C1614125   4.386   6.727  15.139 -0.0689  0.0391 -0.5161
  107CHL1  H16A14126   4.434   6.816  15.093 -1.3823  1.7931  1.3008
  107CHL1  H16B14127   4.454   6.640  15.138 -0.7835 -0.5346 -1.7480
  107CHL1   C1714128   4.271   6.691  15.047  0.5794 -0.4313 -0.3615
  107CHL1   H1714129   4.247   6.584  15.063  1.9853 -1.4816 -4.2210
  107CHL1   C1314130   4.141   6.762  15.108 -0.3471 -0.0310  0.2845
  107CHL1   C1814131   4.152   6.912  15.065 -1.1458 -0.1239 -0.2008
  107CHL1  H18A14132   4.134   6.922  14.956 -0.3631 -0.8282 -0.4065
  107CHL1  H18B14133   4.078   6.976  15.117  0.6980  0.4586  1.8330
  107CHL1  H18C14134   4.250   6.953  15.097 -1.4355  0.3851  0.0358
  107CHL1   C1214135   4.004   6.700  15.086  0.1885  0.0892 -0.2168
  107CHL1  H12A14136   3.979   6.739  14.985 -3.8792 -0.8365  0.2423
  107CHL1  H12B14137   4.010   6.590  15.076 -0.7825  0.0187 -0.1047
  107CHL1   C1114138   3.893   6.741  15.192  0.1480  0.2097  0.0531
  107CHL1  H11A14139   3.863   6.836  15.144 -2.1449 -0.4125  0.1394
  107CHL1  H11B14140   3.798   6.684  15.196  1.1784 -1.5940  0.1190
  107CHL1    C914141   3.946   6.753  15.336 -0.3548  1.0074  0.4660
  107CHL1    H914142   3.946   6.649  15.374  2.2911  0.2887 -1.2898
  107CHL1   C1014143   3.855   6.832  15.431  0.2632 -0.4824 -0.2479
  107CHL1   C1914144   3.831   6.970  15.372  0.5670  0.3200 -0.0216
  107CHL1  H19A14145   3.923   7.005  15.320 -0.1850 -2.3824 -3.6094
  107CHL1  H19B14146   3.755   6.963  15.291  0.9159  1.3523 -0.4586
  107CHL1  H19C14147   3.778   7.042  15.439 -0.5150  1.1151 -1.6617
  107CHL1    C114148   3.726   6.754  15.461  0.0668 -0.2932  0.0292
  107CHL1   H1A14149   3.664   6.748  15.368 -1.3261 -0.4151  0.9281
  107CHL1   H1B14150   3.758   6.652  15.489 -1.4629 -0.1137  2.7660
  107CHL1    C214151   3.627   6.811  15.569 -0.2662 -0.6161 -0.0090
  107CHL1   H2A14152   3.539   6.744  15.582 -0.5326 -0.1978  0.3832
  107CHL1   H2B14153   3.604   6.912  15.529 -1.1933 -1.1803 -0.9281
  107CHL1   C2014154   4.307   6.701  14.897 -0.1416  0.6261  0.8156
  107CHL1   H2014155   4.292   6.806  14.862 -2.9685  0.2138  0.5438
  107CHL1   C2114156   4.208   6.610  14.818  0.0411 -0.3483  0.3496
  107CHL1  H21A14157   4.105   6.646  14.839  0.0230  1.0444 -1.7909
  107CHL1  H21B14158   4.215   6.509  14.862 -2.2029  0.3736  2.5521
  107CHL1  H21C14159   4.217   6.611  14.707 -1.6946  0.8949  0.1790
  107CHL1   C2214160   4.455   6.678  14.859 -0.0372  0.4106 -0.0266
  107CHL1  H22A14161   4.527   6.739  14.917  3.0987 -0.8357 -2.3298
  107CHL1  H22B14162   4.482   6.573  14.882  1.0810  0.9288  1.1427
  107CHL1   C2314163   4.494   6.720  14.708  0.6734  0.2676  0.1012
  107CHL1  H23A14164   4.426   6.670  14.636 -0.8879  2.6656 -0.2239
  107CHL1  H23B14165   4.481   6.830  14.694 -0.0845 -0.0022 -1.4379
  107CHL1   C2414166   4.639   6.680  14.683  0.0628 -1.1255 -0.3419
  107CHL1  H24A14167   4.694   6.738  14.761 -2.4797 -0.2988  0.9667
  107CHL1  H24B14168   4.651   6.571  14.696  1.1760 -1.1608 -1.4617
  107CHL1   C2514169   4.688   6.722  14.539  0.9604  0.0610 -0.6753
  107CHL1   H2514170   4.659   6.825  14.509 -1.4415 -0.8713 -1.9211
  107CHL1   C2614171   4.839   6.711  14.528 -0.2318 -0.5240  0.5152
  107CHL1  H26A14172   4.855   6.689  14.420 -4.6415  1.0891 -0.6811
  107CHL1  H26B14173   4.894   6.797  14.571 -2.3027  1.3236 -0.3710
  107CHL1  H26C14174   4.872   6.616  14.575  1.3211 -0.0418  0.4457
  107CHL1   C2714175   4.621   6.637  14.435  0.3104  0.2749  0.0569
  107CHL1  H27A14176   4.653   6.533  14.460 -0.8057 -0.6586 -2.2025
  107CHL1  H27B14177   4.510   6.643  14.430  0.2818 -0.6097 -0.5410
  107CHL1  H27C14178   4.667   6.637  14.334 -4.0116 -0.7237 -2.1187
  108CHL1    C314179   5.685   3.367  15.899  0.0001 -0.3681 -0.6082
  108CHL1    H314180   5.605   3.290  15.907 -0.2529  0.0103  0.6613
  108CHL1    O314181   5.769   3.368  16.019  0.3502 -0.2545 -0.3133
  108CHL1   H3'14182   5.846   3.417  15.992 -1.0933  1.4577 -1.5882
  108CHL1    C414183   5.773   3.347  15.780  0.2094 -0.1445  0.2414
  108CHL1   H4A14184   5.848   3.427  15.798  0.9348 -0.3202 -1.7562
  108CHL1   H4B14185   5.824   3.249  15.792 -1.3932 -1.2866 -1.6088
  108CHL1    C514186   5.708   3.381  15.647 -0.4016  0.8331  0.9209
  108CHL1    C614187   5.712   3.288  15.549  0.2186  0.8682  0.5415
  108CHL1    H614188   5.762   3.192  15.564  0.6211  0.9772 -0.0452
  108CHL1    C714189   5.656   3.311  15.410  0.3598  0.3743  0.5039
  108CHL1   H7A14190   5.736   3.278  15.341 -0.0441  0.1454  0.1420
  108CHL1   H7B14191   5.565   3.252  15.389  0.7094 -0.0933  0.3000
  108CHL1    C814192   5.617   3.457  15.383 -0.1123  0.6590  0.7270
  108CHL1    H814193   5.711   3.510  15.358 -0.6495 -0.4780 -4.9414
  108CHL1   C1414194   5.524   3.465  15.260 -0.7202 -0.5264 -0.0687
  108CHL1   H1414195   5.432   3.411  15.288 -0.8602 -0.7065 -0.8618
  108CHL1   C1514196   5.575   3.398  15.133  0.4252 -0.0611 -0.7623
  108CHL1  H15A14197   5.684   3.417  15.131  0.2639  0.9741 -0.7279
  108CHL1  H15B14198   5.554   3.289  15.125  0.2892 -0.1610  0.6616
  108CHL1   C1614199   5.504   3.468  15.019 -0.2799  0.0097 -0.2792
  108CHL1  H16A14200   5.578   3.494  14.941 -1.8999 -0.7674 -2.1783
  108CHL1  H16B14201   5.437   3.400  14.962  0.5433  0.5083 -1.9205
  108CHL1   C1714202   5.428   3.589  15.084 -0.6343 -0.2120  0.5439
  108CHL1   H1714203   5.325   3.550  15.098 -0.5843 -0.7592 -0.5466
  108CHL1   C1314204   5.509   3.611  15.213  0.2141 -0.4636  0.3130
  108CHL1   C1814205   5.646   3.677  15.172  0.1691 -0.2028 -0.1537
  108CHL1  H18A14206   5.625   3.778  15.131  0.3469 -1.1619 -2.8245
  108CHL1  H18B14207   5.721   3.681  15.253  1.6705 -2.2296 -1.3513
  108CHL1  H18C14208   5.700   3.627  15.089  1.1705  0.3276  0.1662
  108CHL1   C1214209   5.437   3.686  15.321 -0.2140  0.3296 -0.0958
  108CHL1  H12A14210   5.422   3.793  15.295  2.8528  0.4925 -1.6591
  108CHL1  H12B14211   5.331   3.654  15.327 -0.7510  1.7330 -1.3927
  108CHL1   C1114212   5.503   3.663  15.465  0.1557 -0.0170 -0.3174
  108CHL1  H11A14213   5.584   3.736  15.485  0.9304  0.1088 -3.5050
  108CHL1  H11B14214   5.426   3.691  15.541  0.5719  0.9503 -0.2384
  108CHL1    C914215   5.555   3.523  15.503 -0.5032  0.1873  0.2206
  108CHL1    H914216   5.473   3.452  15.529  0.5214 -0.8785  0.6886
  108CHL1   C1014217   5.637   3.512  15.635 -0.0889  0.0134 -0.3480
  108CHL1   C1914218   5.748   3.622  15.636  0.8354 -0.5356 -0.2955
  108CHL1  H19A14219   5.813   3.604  15.548  2.0716 -2.4000  0.9355
  108CHL1  H19B14220   5.704   3.724  15.643  0.2168 -0.5771 -2.6399
  108CHL1  H19C14221   5.819   3.612  15.721  0.5429  0.7320  0.1247
  108CHL1    C114222   5.539   3.521  15.757 -0.5444 -1.3205  0.4240
  108CHL1   H1A14223   5.493   3.622  15.754  0.0021 -1.0603  0.6780
  108CHL1   H1B14224   5.459   3.444  15.749 -2.7388  0.8089  0.9106
  108CHL1    C214225   5.622   3.511  15.890 -0.2708 -0.0896  0.3723
  108CHL1   H2A14226   5.562   3.528  15.983 -1.2450 -0.6937 -0.1276
  108CHL1   H2B14227   5.696   3.593  15.894 -1.1534  0.6794  2.1590
  108CHL1   C2014228   5.415   3.705  14.982 -0.1444 -1.1018  0.2787
  108CHL1   H2014229   5.509   3.761  14.966 -1.5934  1.9338  1.5643
  108CHL1   C2114230   5.304   3.806  15.027 -0.5654 -0.0772  0.4616
  108CHL1  H21A14231   5.297   3.904  14.976  0.3646 -0.6435 -0.8123
  108CHL1  H21B14232   5.315   3.827  15.136 -1.4377  0.0782  0.5305
  108CHL1  H21C14233   5.208   3.755  15.004 -1.2142  1.1770  0.2758
  108CHL1   C2214234   5.369   3.651  14.841 -0.2258 -0.1934 -0.1846
  108CHL1  H22A14235   5.451   3.594  14.791 -0.5468  1.6086 -2.9679
  108CHL1  H22B14236   5.286   3.578  14.847 -2.4800  2.1330 -1.3859
  108CHL1   C2314237   5.347   3.774  14.742 -0.0792  0.0472 -0.2027
  108CHL1  H23A14238   5.253   3.827  14.766 -0.1645 -0.0304 -0.3667
  108CHL1  H23B14239   5.427   3.851  14.749  0.0445 -0.0491 -0.5122
  108CHL1   C2414240   5.342   3.724  14.600  0.4444 -0.1578 -0.1066
  108CHL1  H24A14241   5.438   3.690  14.555  0.1098  0.9856 -1.7660
  108CHL1  H24B14242   5.265   3.644  14.597  0.0858  0.1445  0.8749
  108CHL1   C2514243   5.292   3.824  14.494 -0.5560 -0.0577 -0.6067
  108CHL1   H2514244   5.200   3.884  14.513 -0.7230 -0.1282 -1.1939
  108CHL1   C2614245   5.392   3.947  14.494 -0.0204  0.3588  0.1628
  108CHL1  H26A14246   5.374   4.007  14.586  0.5005  0.0263  0.4900
  108CHL1  H26B14247   5.496   3.911  14.479 -0.6903 -1.2869 -0.8294
  108CHL1  H26C14248   5.355   4.010  14.411 -0.7237  0.3198  0.4371
  108CHL1   C2714249   5.264   3.751  14.359  0.0616  0.5315 -0.9836
  108CHL1  H27A14250   5.222   3.809  14.273 -0.2309  1.2251 -0.3833
  108CHL1  H27B14251   5.360   3.709  14.323  0.3720  1.2002 -0.9571
  108CHL1  H27C14252   5.185   3.675  14.376  0.6413 -0.0069 -0.6689
  109CHL1    C314253   2.813   6.340  15.569  0.1751  0.7179  0.0440
  109CHL1    H314254   2.731   6.402  15.529 -0.3400  1.2083  1.7509
  109CHL1    O314255   2.819   6.347  15.708 -0.0227 -0.2509  0.1877
  109CHL1   H3'14256   2.878   6.422  15.722 -1.4791  1.1125 -0.6996
  109CHL1    C414257   2.788   6.199  15.526  1.0079  0.6511 -0.6652
  109CHL1   H4A14258   2.861   6.133  15.576  0.7304  1.6403  1.1261
  109CHL1   H4B14259   2.692   6.165  15.570  1.1293 -0.2535 -1.0650
  109CHL1    C514260   2.799   6.192  15.373 -0.6447  0.4080 -0.5897
  109CHL1    C614261   2.689   6.154  15.309 -0.5708  0.9531 -0.2923
  109CHL1    H614262   2.600   6.128  15.368 -0.1920 -0.0506 -0.1496
  109CHL1    C714263   2.685   6.134  15.164 -1.4994  0.1173 -0.3322
  109CHL1   H7A14264   2.636   6.036  15.142  1.2488 -1.6977  1.1146
  109CHL1   H7B14265   2.615   6.212  15.127 -3.3590 -0.6047  1.4694
  109CHL1    C814266   2.822   6.141  15.101 -0.1817 -0.1786 -0.6256
  109CHL1    H814267   2.872   6.044  15.124  1.3914  0.5077 -1.0280
  109CHL1   C1414268   2.809   6.147  14.950  0.1931 -0.2055 -0.1196
  109CHL1   H1414269   2.775   6.250  14.924 -0.2553 -0.6998 -1.6067
  109CHL1   C1514270   2.721   6.050  14.879  0.6403 -0.2589 -0.4294
  109CHL1  H15A14271   2.738   5.947  14.918  0.6640 -0.9964 -2.3040
  109CHL1  H15B14272   2.615   6.070  14.904  0.6504 -0.0946 -0.5149
  109CHL1   C1614273   2.760   6.054  14.734 -0.5932  0.3994 -0.4071
  109CHL1  H16A14274   2.759   5.958  14.677 -0.0913 -0.0263  0.2885
  109CHL1  H16B14275   2.679   6.111  14.684 -1.2934  1.1330  1.4916
  109CHL1   C1714276   2.896   6.130  14.730 -0.6589  0.4420 -0.4041
  109CHL1   H1714277   2.873   6.234  14.698  0.8399  1.0690  0.4582
  109CHL1   C1314278   2.939   6.141  14.874 -0.5467  0.2398 -0.3240
  109CHL1   C1814279   3.022   6.011  14.914 -0.4986  0.7157  0.3301
  109CHL1  H18A14280   2.959   5.923  14.886  0.2051  0.6719 -1.2597
  109CHL1  H18B14281   3.113   6.011  14.851  0.1799  3.2259  1.1882
  109CHL1  H18C14282   3.040   5.995  15.022 -0.6070 -1.9705  0.0180
  109CHL1   C1214283   3.025   6.264  14.913 -0.2770  0.0093  0.0583
  109CHL1  H12A14284   3.125   6.270  14.866 -0.2948  2.5721  0.2122
  109CHL1  H12B14285   2.962   6.355  14.902 -0.3576 -0.1164 -0.5693
  109CHL1   C1114286   3.043   6.265  15.067  0.4577  0.7294 -0.0206
  109CHL1  H11A14287   3.107   6.176  15.084  0.8710  0.9819 -0.2040
  109CHL1  H11B14288   3.097   6.353  15.110 -1.7756  1.9989  0.3121
  109CHL1    C914289   2.908   6.255  15.149 -0.0367 -0.0263  0.2209
  109CHL1    H914290   2.848   6.343  15.120  0.6456  0.4660  0.2794
  109CHL1   C1014291   2.929   6.246  15.302  0.0211 -0.3149  0.3121
  109CHL1   C1914292   3.047   6.142  15.339 -0.1880  0.9637  0.2456
  109CHL1  H19A14293   3.149   6.176  15.308  1.4329 -2.7362  1.0067
  109CHL1  H19B14294   3.055   6.120  15.447 -3.0101  0.7407  0.4873
  109CHL1  H19C14295   3.031   6.051  15.276  0.6287 -0.1628  1.6121
  109CHL1    C114296   2.966   6.381  15.360 -0.1396 -0.1365 -0.8174
  109CHL1   H1A14297   3.061   6.428  15.326  0.2663 -0.2695  0.1223
  109CHL1   H1B14298   2.889   6.448  15.317 -2.3291 -2.2294 -0.4027
  109CHL1    C214299   2.955   6.392  15.518  0.1777  0.3437 -0.5551
  109CHL1   H2A14300   2.965   6.501  15.539 -0.4166 -0.0220  2.0215
  109CHL1   H2B14301   3.038   6.329  15.558 -0.9095 -0.8024 -0.0349
  109CHL1   C2014302   2.986   6.063  14.625  0.4285 -0.9711 -0.0659
  109CHL1   H2014303   3.003   5.957  14.653  4.0126 -1.1011 -2.1828
  109CHL1   C2114304   3.122   6.133  14.603  0.5632 -0.1008 -0.0090
  109CHL1  H21A14305   3.202   6.128  14.679  2.0661 -1.7499 -1.6264
  109CHL1  H21B14306   3.087   6.236  14.579 -1.0067 -1.1665 -2.8711
  109CHL1  H21C14307   3.170   6.090  14.513  0.3686 -2.6034  1.0034
  109CHL1   C2214308   2.916   6.060  14.490  0.0133 -0.4399  0.3532
  109CHL1  H22A14309   2.986   6.013  14.417  0.9917 -1.4379  1.8839
  109CHL1  H22B14310   2.829   5.990  14.487  1.3251 -2.1812  1.2160
  109CHL1   C2314311   2.865   6.195  14.432  0.2875  0.1114  0.4294
  109CHL1  H23A14312   2.773   6.223  14.488 -1.6993 -1.6340 -1.7741
  109CHL1  H23B14313   2.933   6.281  14.454  0.2472  0.3634 -0.4005
  109CHL1   C2414314   2.824   6.182  14.280  0.0279  0.0775 -1.7208
  109CHL1  H24A14315   2.911   6.130  14.236  1.5379  1.4816 -0.5362
  109CHL1  H24B14316   2.741   6.109  14.270 -0.0976  0.0569 -0.6254
  109CHL1   C2514317   2.786   6.313  14.216 -0.5877  1.1228  0.6903
  109CHL1   H2514318   2.706   6.373  14.263 -2.2503  2.5698 -3.5306
  109CHL1   C2614319   2.910   6.395  14.184  0.1283 -0.2253  0.0573
  109CHL1  H26A14320   2.876   6.496  14.154  1.6066 -0.5711 -3.0618
  109CHL1  H26B14321   2.980   6.392  14.270  0.1857 -1.2674 -0.0057
  109CHL1  H26C14322   2.959   6.348  14.096 -0.4053  2.1854 -1.6307
  109CHL1   C2714323   2.723   6.281  14.083  0.2528  0.1990  0.8784
  109CHL1  H27A14324   2.786   6.203  14.034  0.3251  0.0568  1.1933
  109CHL1  H27B14325   2.618   6.246  14.085 -0.8102  3.1327  2.2196
  109CHL1  H27C14326   2.724   6.366  14.012  1.4172 -0.0386  0.5958
  110CHL1    C314327   1.848   5.129  15.904 -0.3767  0.1149  0.8469
  110CHL1    H314328   1.869   5.025  15.936  0.5252  0.2322  0.6645
  110CHL1    O314329   1.809   5.190  16.024 -0.7809 -0.5295 -0.3449
  110CHL1   H3'14330   1.813   5.285  16.013  1.1168 -0.3449  1.4112
  110CHL1    C414331   1.972   5.194  15.840  0.2725 -0.0686 -0.3061
  110CHL1   H4A14332   1.937   5.298  15.821 -2.1645 -0.4627  1.5347
  110CHL1   H4B14333   2.050   5.199  15.919  0.3210 -0.2181 -0.3447
  110CHL1    C514334   2.020   5.128  15.718  0.6120  0.2308 -0.7791
  110CHL1    C614335   2.143   5.082  15.700  0.3107 -0.0030  0.3729
  110CHL1    H614336   2.204   5.084  15.792 -1.0973  1.6425  1.3439
  110CHL1    C714337   2.193   5.024  15.568 -0.1152  0.0962 -0.3508
  110CHL1   H7A14338   2.284   5.078  15.536  1.1181 -1.7105 -0.0031
  110CHL1   H7B14339   2.210   4.916  15.588  1.0425  0.3635  0.1620
  110CHL1    C814340   2.088   5.051  15.452  0.0460  0.2720  0.4874
  110CHL1    H814341   2.100   5.154  15.414 -0.0927  0.5121  1.0847
  110CHL1   C1414342   2.113   4.956  15.332 -0.7119 -0.3237 -0.2123
  110CHL1   H1414343   2.097   4.853  15.372  1.8976 -0.5335  0.4824
  110CHL1   C1514344   2.251   4.946  15.283 -0.8389  0.2386  0.1535
  110CHL1  H15A14345   2.300   5.045  15.283 -1.3684  0.5303 -1.2637
  110CHL1  H15B14346   2.304   4.877  15.352 -0.1039 -0.8118 -1.3850
  110CHL1   C1614347   2.248   4.898  15.137 -0.5718  0.0663  0.2286
  110CHL1  H16A14348   2.295   4.979  15.078  1.4473  0.3228  2.0583
  110CHL1  H16B14349   2.301   4.802  15.119  0.4571  0.5559  0.5556
  110CHL1   C1714350   2.094   4.866  15.113  0.2820 -0.0769  0.2470
  110CHL1   H1714351   2.077   4.766  15.158 -1.4765 -0.8235 -1.8926
  110CHL1   C1314352   2.025   4.971  15.207 -0.0442  0.7727 -0.2118
  110CHL1   C1814353   2.038   5.109  15.143  0.4115  0.5545  0.3242
  110CHL1  H18A14354   1.957   5.125  15.068 -0.1779 -0.2908  0.7622
  110CHL1  H18B14355   2.033   5.181  15.227  1.0706  0.7765  0.1775
  110CHL1  H18C14356   2.137   5.133  15.099  0.2305 -1.9769 -1.6947
  110CHL1   C1214357   1.877   4.944  15.247 -0.1959 -0.2395  0.4095
  110CHL1  H12A14358   1.816   4.976  15.159  0.0207  1.1317  0.7280
  110CHL1  H12B14359   1.865   4.835  15.265  1.1806 -0.3125  0.9723
  110CHL1   C1114360   1.837   5.029  15.368  0.0776 -0.0513  0.4746
  110CHL1  H11A14361   1.837   5.134  15.335 -0.1020 -0.4385 -0.7897
  110CHL1  H11B14362   1.736   4.995  15.400  0.4089 -0.8852  0.6758
  110CHL1    C914363   1.938   5.019  15.492 -0.0886 -0.0519 -0.0388
  110CHL1    H914364   1.943   4.917  15.536  1.2219 -0.4282 -0.9939
  110CHL1   C1014365   1.909   5.111  15.613  0.1041  0.4405  0.1039
  110CHL1   C1914366   1.875   5.253  15.561 -0.0140  0.6264 -0.7734
  110CHL1  H19A14367   1.879   5.334  15.637  2.1720 -0.2625  0.1375
  110CHL1  H19B14368   1.930   5.284  15.470 -0.6511  0.5425 -1.1950
  110CHL1  H19C14369   1.766   5.256  15.539 -0.2698  1.2592  0.4894
  110CHL1    C114370   1.776   5.048  15.686 -0.1878 -0.1077 -0.1320
  110CHL1   H1A14371   1.685   5.048  15.622 -0.2071  1.7104 -0.1635
  110CHL1   H1B14372   1.796   4.942  15.710  2.2655  0.0878 -0.9806
  110CHL1    C214373   1.735   5.132  15.807 -0.1036  0.3675  0.1642
  110CHL1   H2A14374   1.648   5.090  15.861 -0.1984 -0.4337 -0.6029
  110CHL1   H2B14375   1.706   5.235  15.776 -0.0036 -0.4731 -3.0641
  110CHL1   C2014376   2.051   4.860  14.966 -0.6820  0.3481  0.5382
  110CHL1   H2014377   2.044   4.966  14.932  0.6445  0.7503  1.4744
  110CHL1   C2114378   1.916   4.785  14.961  0.1437 -0.0670 -0.3665
  110CHL1  H21A14379   1.883   4.743  14.863 -1.9850  0.6850 -0.0222
  110CHL1  H21B14380   1.840   4.854  15.001  0.7639  1.2255 -1.3414
  110CHL1  H21C14381   1.905   4.704  15.037  2.7561  0.7423  0.9944
  110CHL1   C2214382   2.160   4.777  14.878  1.3635 -0.1519 -0.5284
  110CHL1  H22A14383   2.266   4.806  14.896  1.4184 -0.1645 -0.8270
  110CHL1  H22B14384   2.157   4.669  14.904 -0.0647 -0.2041 -0.7997
  110CHL1   C2314385   2.132   4.795  14.730  0.2372  0.5755  0.3885
  110CHL1  H23A14386   2.029   4.779  14.690  1.3751 -0.0599 -2.5471
  110CHL1  H23B14387   2.163   4.899  14.708  0.6654  0.5797  0.9888
  110CHL1   C2414388   2.239   4.708  14.655  0.4744  0.3330  0.0294
  110CHL1  H24A14389   2.345   4.737  14.674  0.0805  1.8446  0.0146
  110CHL1  H24B14390   2.234   4.606  14.700  0.6594  0.2735 -0.0847
  110CHL1   C2514391   2.209   4.690  14.504  0.0599 -1.1984 -0.0244
  110CHL1   H2514392   2.100   4.679  14.488  0.2240 -3.5590  0.1084
  110CHL1   C2614393   2.256   4.817  14.428  0.6578 -0.0664 -0.4259
  110CHL1  H26A14394   2.365   4.836  14.420  0.6037 -0.0778 -1.3817
  110CHL1  H26B14395   2.222   4.808  14.322 -0.8483 -2.0694  0.1498
  110CHL1  H26C14396   2.219   4.911  14.473  1.0862  0.9153 -2.0198
  110CHL1   C2714397   2.273   4.559  14.447  0.1630 -0.6574  0.0868
  110CHL1  H27A14398   2.237   4.545  14.342  1.6581  0.2285 -0.5799
  110CHL1  H27B14399   2.384   4.562  14.447  0.1678 -0.5196  1.3342
  110CHL1  H27C14400   2.239   4.468  14.502 -0.6705 -0.6951 -0.4676
  111CHL1    C314401   2.803   1.155  15.306 -0.5526 -0.6374 -0.9205
  111CHL1    H314402   2.906   1.143  15.267 -0.1621 -2.8830  0.5844
  111CHL1    O314403   2.829   1.166  15.439 -0.1851 -0.1249 -0.0094
  111CHL1   H3'14404   2.741   1.164  15.478 -0.3665 -1.9191 -0.4124
  111CHL1    C414405   2.731   1.279  15.258  0.2478 -0.1951 -0.5174
  111CHL1   H4A14406   2.628   1.285  15.301  1.3333  2.9062  2.0616
  111CHL1   H4B14407   2.786   1.366  15.301 -3.1285  1.0525  1.8213
  111CHL1    C514408   2.723   1.268  15.105  0.4274 -0.2171 -0.8453
  111CHL1    C614409   2.784   1.357  15.030 -0.2974  0.3833  0.4663
  111CHL1    H614410   2.842   1.439  15.074  0.1008 -1.0694  2.8308
  111CHL1    C714411   2.787   1.342  14.879  0.2060 -0.5552  0.2993
  111CHL1   H7A14412   2.796   1.437  14.821  0.4444 -0.9627 -0.3347
  111CHL1   H7B14413   2.883   1.295  14.849  0.4121 -0.0316  0.1072
  111CHL1    C814414   2.678   1.254  14.822  0.9575 -0.4626  0.5209
  111CHL1    H814415   2.585   1.314  14.834  1.7177  0.5683  1.4984
  111CHL1   C1414416   2.703   1.229  14.674 -0.6566 -0.1375 -0.3134
  111CHL1   H1414417   2.796   1.168  14.675 -1.1732 -1.0352  2.5401
  111CHL1   C1514418   2.723   1.345  14.577 -0.9391  0.7637 -0.4798
  111CHL1  H15A14419   2.641   1.419  14.589 -0.0432  1.4862  1.6352
  111CHL1  H15B14420   2.823   1.389  14.593 -1.0980  0.9374  0.0599
  111CHL1   C1614421   2.725   1.278  14.435 -0.3789 -0.4005  0.2483
  111CHL1  H16A14422   2.666   1.345  14.369  1.4822 -0.3951 -1.5244
  111CHL1  H16B14423   2.830   1.264  14.401  0.2183 -0.8980  2.1808
  111CHL1   C1714424   2.662   1.133  14.456  0.3034 -0.5328  0.4134
  111CHL1   H1714425   2.750   1.066  14.462  1.3663  0.6440 -1.2222
  111CHL1   C1314426   2.607   1.135  14.602 -0.0180  0.6862 -0.3739
  111CHL1   C1814427   2.461   1.199  14.601 -0.3128  0.3193  0.6225
  111CHL1  H18A14428   2.424   1.232  14.701 -0.4030 -1.5932  1.2610
  111CHL1  H18B14429   2.465   1.292  14.540  0.2407 -0.4085 -0.4797
  111CHL1  H18C14430   2.380   1.134  14.563 -2.5521  2.6888  1.0624
  111CHL1   C1214431   2.613   1.005  14.680  0.4322 -0.1948  0.0603
  111CHL1  H12A14432   2.533   0.939  14.641 -1.2335  1.9007 -0.2767
  111CHL1  H12B14433   2.716   0.965  14.670  0.8625  1.2523 -1.8042
  111CHL1   C1114434   2.578   1.026  14.833  1.4083  0.0864  0.1128
  111CHL1  H11A14435   2.478   1.074  14.828  1.0313 -0.8204 -3.8024
  111CHL1  H11B14436   2.572   0.924  14.877  0.6568  0.4552  0.9056
  111CHL1    C914437   2.678   1.123  14.901  0.4989  0.8261 -0.1552
  111CHL1    H914438   2.785   1.093  14.893  0.6602  1.5176 -0.7100
  111CHL1   C1014439   2.652   1.139  15.051 -0.0852  0.3048 -0.4410
  111CHL1   C1914440   2.500   1.160  15.083  0.1603 -0.0601  0.0888
  111CHL1  H19A14441   2.491   1.172  15.193 -0.9701  0.9492 -0.0906
  111CHL1  H19B14442   2.465   1.261  15.054  1.3580  0.4675  0.4096
  111CHL1  H19C14443   2.440   1.072  15.051 -0.6584 -0.0243  1.4311
  111CHL1    C114444   2.699   1.010  15.124 -0.2886 -0.0566  0.2191
  111CHL1   H1A14445   2.629   0.924  15.119 -0.5317  0.0309  1.7222
  111CHL1   H1B14446   2.797   0.984  15.077  0.2324  1.2436  0.5502
  111CHL1    C214447   2.732   1.021  15.275  0.4418 -1.0033  0.2773
  111CHL1   H2A14448   2.795   0.936  15.309 -0.5112 -1.4190  1.0649
  111CHL1   H2B14449   2.632   1.026  15.323 -0.9111  1.6274 -2.4493
  111CHL1   C2014450   2.574   1.098  14.339 -0.5393 -0.4819 -0.4501
  111CHL1   H2014451   2.479   1.155  14.345  0.4441  1.1181  0.6336
  111CHL1   C2114452   2.544   0.945  14.349 -0.7568 -0.1933 -0.2582
  111CHL1  H21A14453   2.517   0.913  14.246  0.3492 -0.0491 -0.6098
  111CHL1  H21B14454   2.469   0.930  14.429  0.0731 -0.6891  0.4497
  111CHL1  H21C14455   2.639   0.899  14.384  0.3073 -0.0425 -2.7271
  111CHL1   C2214456   2.633   1.137  14.205 -0.2174 -0.0651  0.2354
  111CHL1  H22A14457   2.559   1.094  14.135  0.3064 -0.3820 -0.1313
  111CHL1  H22B14458   2.647   1.244  14.181  1.0276 -0.6295 -1.8296
  111CHL1   C2314459   2.771   1.068  14.169 -0.2468  0.1998 -0.2339
  111CHL1  H23A14460   2.848   1.102  14.242 -1.9669  3.4457  0.2932
  111CHL1  H23B14461   2.765   0.958  14.182  0.6977  0.1485 -0.1618
  111CHL1   C2414462   2.824   1.090  14.028 -0.1609 -0.6695 -0.4085
  111CHL1  H24A14463   2.756   1.030  13.963  0.6365 -0.7057 -1.2351
  111CHL1  H24B14464   2.816   1.198  14.006  2.8265 -0.2115  0.3228
  111CHL1   C2514465   2.964   1.039  13.990  0.1456 -0.5086 -0.4500
  111CHL1   H2514466   2.968   0.930  14.013  2.8565 -0.1398  1.3433
  111CHL1   C2614467   2.994   1.058  13.841  0.2171  0.8013 -0.0600
  111CHL1  H26A14468   3.098   1.024  13.824 -0.1697 -0.5904  0.2544
  111CHL1  H26B14469   2.922   1.003  13.778  0.5738  1.7731 -1.3640
  111CHL1  H26C14470   2.983   1.165  13.810  3.2771  1.1166 -0.4277
  111CHL1   C2714471   3.071   1.106  14.070  0.6034 -0.5394 -0.0662
  111CHL1  H27A14472   3.049   1.086  14.177 -1.0956  4.1358  0.7078
  111CHL1  H27B14473   3.175   1.072  14.049 -0.0177 -1.0768 -2.5411
  111CHL1  H27C14474   3.064   1.216  14.052  0.6454 -0.8542 -2.2617
  112CHL1    C314475   4.088   1.107  15.664  0.1239  0.1940 -0.7493
  112CHL1    H314476   3.996   1.045  15.670 -1.2311  2.1480 -0.0729
  112CHL1    O314477   4.114   1.160  15.795 -0.6875  0.2414 -0.5990
  112CHL1   H3'14478   4.152   1.244  15.771 -0.5425  0.2096 -0.4779
  112CHL1    C414479   4.209   1.019  15.622  0.1780  0.7942  0.3909
  112CHL1   H4A14480   4.300   1.083  15.621  1.8878 -1.4764 -1.0014
  112CHL1   H4B14481   4.221   0.936  15.695  3.2699 -1.6003 -2.5141
  112CHL1    C514482   4.174   0.954  15.487 -0.4972  0.0264 -0.4069
  112CHL1    C614483   4.167   0.816  15.479  0.5727  0.2963  0.9341
  112CHL1    H614484   4.188   0.752  15.566  0.6750  0.0485  0.7283
  112CHL1    C714485   4.143   0.740  15.351  0.3583 -0.2698 -0.6305
  112CHL1   H7A14486   4.197   0.643  15.346 -1.5976 -1.6603  2.0945
  112CHL1   H7B14487   4.036   0.716  15.334  0.9668 -2.2871 -1.9545
  112CHL1    C814488   4.176   0.837  15.230  0.4635  0.0706  0.2902
  112CHL1    H814489   4.287   0.839  15.232  0.4405  0.6298  1.6035
  112CHL1   C1414490   4.127   0.770  15.107  0.4277  0.3114 -0.4635
  112CHL1   H1414491   4.019   0.773  15.132  0.2912 -1.2253 -0.8055
  112CHL1   C1514492   4.174   0.625  15.077 -0.0080  0.6299  0.2994
  112CHL1  H15A14493   4.284   0.622  15.094 -0.2352 -0.7363  1.7617
  112CHL1  H15B14494   4.117   0.542  15.122 -0.5376  0.3996 -0.7726
  112CHL1   C1614495   4.168   0.619  14.920  0.9367 -0.4159  0.1847
  112CHL1  H16A14496   4.271   0.608  14.880  0.3361 -0.3370 -1.4578
  112CHL1  H16B14497   4.105   0.533  14.890 -0.0372  0.2721  0.2281
  112CHL1   C1714498   4.110   0.753  14.871  0.3947  1.1356 -0.0343
  112CHL1   H1714499   3.999   0.753  14.867  0.4327  0.6349 -2.7102
  112CHL1   C1314500   4.147   0.853  14.984  0.5157  0.5852 -0.1775
  112CHL1   C1814501   4.294   0.890  14.964  0.1083  0.3756  0.0040
  112CHL1  H18A14502   4.296   0.954  14.873 -2.7699 -0.4973 -0.7892
  112CHL1  H18B14503   4.339   0.941  15.052  3.2838 -1.4078 -0.4264
  112CHL1  H18C14504   4.356   0.800  14.946  0.3735  0.3716  0.9003
  112CHL1   C1214505   4.058   0.982  14.991  0.1059 -0.0152  0.7064
  112CHL1  H12A14506   4.097   1.038  14.903 -0.9708 -0.9534 -0.4116
  112CHL1  H12B14507   3.952   0.955  14.975  0.6311 -2.3424  0.7231
  112CHL1   C1114508   4.088   1.060  15.122  0.0462 -0.2940 -0.5433
  112CHL1  H11A14509   4.183   1.114  15.102  1.1684 -1.5785  1.0045
  112CHL1  H11B14510   4.004   1.130  15.138  1.3972  0.8696  1.9753
  112CHL1    C914511   4.107   0.969  15.251  0.6345  0.4399 -0.3093
  112CHL1    H914512   4.002   0.940  15.275  1.7740 -1.2255  3.4774
  112CHL1   C1014513   4.156   1.047  15.373 -0.6555 -0.1847 -0.0175
  112CHL1   C1914514   4.289   1.131  15.340 -0.5718  0.0069  0.1588
  112CHL1  H19A14515   4.371   1.063  15.307 -1.4412  0.2428 -2.8155
  112CHL1  H19B14516   4.256   1.201  15.260 -0.9650 -1.2219 -0.7797
  112CHL1  H19C14517   4.320   1.183  15.433  0.2481 -3.0290  1.7048
  112CHL1    C114518   4.042   1.145  15.426 -0.3358  0.0079 -0.4551
  112CHL1   H1A14519   4.034   1.222  15.346 -2.5597 -0.4559 -0.7345
  112CHL1   H1B14520   3.947   1.087  15.426 -1.0802  1.2060 -0.0898
  112CHL1    C214521   4.076   1.218  15.556 -0.6482  0.2195 -0.7423
  112CHL1   H2A14522   3.996   1.291  15.581 -0.7648  0.3164 -1.3887
  112CHL1   H2B14523   4.171   1.277  15.559 -0.4804 -0.0731  0.9751
  112CHL1   C2014524   4.156   0.775  14.725  0.3554  0.2271  0.2388
  112CHL1   H2014525   4.266   0.783  14.734  0.7404 -2.7500 -0.8718
  112CHL1   C2114526   4.104   0.905  14.662  0.1619 -0.0797  0.7618
  112CHL1  H21A14527   3.994   0.920  14.670 -0.2547 -0.7810 -2.3373
  112CHL1  H21B14528   4.112   0.912  14.552 -1.2625  0.4797  0.6781
  112CHL1  H21C14529   4.158   0.992  14.706  0.0875 -0.1204  0.9344
  112CHL1   C2214530   4.127   0.653  14.635  0.2170 -0.6507  0.0753
  112CHL1  H22A14531   4.144   0.684  14.529 -0.0920 -2.5199 -0.5622
  112CHL1  H22B14532   4.192   0.573  14.675  1.6855  0.3272 -0.2696
  112CHL1   C2314533   3.984   0.604  14.639 -0.0618 -0.2650  0.3356
  112CHL1  H23A14534   3.966   0.575  14.745  2.0563 -0.2729  0.7368
  112CHL1  H23B14535   3.912   0.686  14.621  0.4287  0.4338  1.4404
  112CHL1   C2414536   3.963   0.481  14.544  0.2484 -0.2479 -0.2941
  112CHL1  H24A14537   3.996   0.508  14.442 -2.2111  1.7220 -0.6724
  112CHL1  H24B14538   4.017   0.390  14.577 -0.7159 -0.6032  0.3449
  112CHL1   C2514539   3.815   0.442  14.528  0.7579 -0.1937  0.4370
  112CHL1   H2514540   3.754   0.518  14.474  1.5037 -0.3926 -0.7339
  112CHL1   C2614541   3.801   0.314  14.442  0.0309  0.2444 -0.5449
  112CHL1  H26A14542   3.845   0.218  14.478 -2.6466 -1.6175 -1.8318
  112CHL1  H26B14543   3.694   0.290  14.427 -0.0442  0.8163 -0.9416
  112CHL1  H26C14544   3.852   0.333  14.345  1.4174 -0.1079  0.0861
  112CHL1   C2714545   3.734   0.430  14.658 -0.0432 -0.2843 -0.2186
  112CHL1  H27A14546   3.771   0.353  14.729 -0.6656  0.9653  1.5252
  112CHL1  H27B14547   3.716   0.525  14.713  0.2934 -0.4132  0.1204
  112CHL1  H27C14548   3.634   0.395  14.624  0.4177 -0.3609 -1.5635
  113CHL1    C314549   1.218   5.046  15.748  0.4951  0.0456 -0.9443
  113CHL1    H314550   1.137   5.118  15.723  0.7231 -0.0167 -1.9108
  113CHL1    O314551   1.225   5.020  15.885  0.6487  0.1175 -0.1481
  113CHL1   H3'14552   1.276   4.940  15.899  0.3655  0.3232  2.5879
  113CHL1    C414553   1.192   4.906  15.688 -0.2867 -0.3027 -0.8633
  113CHL1   H4A14554   1.263   4.834  15.734 -0.2027  1.1183  1.3522
  113CHL1   H4B14555   1.092   4.870  15.723 -0.9943  4.3416  2.9024
  113CHL1    C514556   1.208   4.906  15.540 -0.0915 -0.3527  1.1118
  113CHL1    C614557   1.108   4.861  15.459 -0.0122 -0.1411 -1.1064
  113CHL1    H614558   1.013   4.823  15.497 -0.1503 -0.2601 -1.5610
  113CHL1    C714559   1.115   4.855  15.309 -0.3030  0.0792 -0.2837
  113CHL1   H7A14560   1.085   4.754  15.272  1.4579  0.1741 -2.1391
  113CHL1   H7B14561   1.056   4.934  15.260  0.9467  1.1108 -0.1767
  113CHL1    C814562   1.261   4.873  15.256 -0.6122 -0.1054 -0.2060
  113CHL1    H814563   1.313   4.776  15.273 -0.8203 -0.3725 -1.0355
  113CHL1   C1414564   1.246   4.899  15.106  0.4984  0.0520 -0.5824
  113CHL1   H1414565   1.190   4.995  15.103 -1.3223 -0.9283  0.0982
  113CHL1   C1514566   1.175   4.790  15.021 -0.9753 -0.5643  0.4193
  113CHL1  H15A14567   1.239   4.701  15.039 -0.8559 -0.4576  0.5234
  113CHL1  H15B14568   1.068   4.774  15.043 -1.0896 -0.5000 -0.0813
  113CHL1   C1614569   1.198   4.848  14.879  0.5332  0.0973  0.1375
  113CHL1  H16A14570   1.221   4.762  14.812 -1.5337  1.1055 -2.0304
  113CHL1  H16B14571   1.111   4.901  14.834  0.0231 -1.1475 -0.3966
  113CHL1   C1714572   1.311   4.954  14.890  0.0634 -0.8352 -1.0852
  113CHL1   H1714573   1.259   5.051  14.895  0.5136 -0.6260 -0.2209
  113CHL1   C1314574   1.378   4.935  15.031  0.1804 -0.5858 -0.4064
  113CHL1   C1814575   1.482   4.822  15.030  0.3342 -0.0673 -0.3799
  113CHL1  H18A14576   1.507   4.779  15.130 -1.9713 -2.9249 -0.8796
  113CHL1  H18B14577   1.448   4.729  14.979 -1.6742 -0.6945  1.9142
  113CHL1  H18C14578   1.577   4.861  14.988  0.1360  0.6808 -0.1347
  113CHL1   C1214579   1.428   5.061  15.104  0.6180  0.9823 -0.3247
  113CHL1  H12A14580   1.525   5.094  15.059  0.2845  0.5086 -1.4182
  113CHL1  H12B14581   1.351   5.141  15.104 -1.4784 -0.9304  0.5349
  113CHL1   C1114582   1.450   5.032  15.255 -0.0550 -0.0460 -0.5792
  113CHL1  H11A14583   1.536   4.962  15.261  0.8657  1.1435  1.1477
  113CHL1  H11B14584   1.491   5.125  15.300 -2.6211  0.4676  0.8529
  113CHL1    C914585   1.324   4.992  15.329 -1.0042  0.0636 -0.2773
  113CHL1    H914586   1.262   5.085  15.329  1.9227  2.2052  1.4649
  113CHL1   C1014587   1.331   4.968  15.482 -0.6063  0.0803 -0.0545
  113CHL1   C1914588   1.441   4.868  15.505 -0.2739  0.1441 -0.5649
  113CHL1  H19A14589   1.401   4.767  15.480 -1.4505 -0.1840  2.2532
  113CHL1  H19B14590   1.531   4.901  15.450 -0.9260  0.9502 -1.1612
  113CHL1  H19C14591   1.469   4.848  15.611 -3.1758 -0.0026  0.2773
  113CHL1    C114592   1.350   5.108  15.557  0.3809 -0.0975 -0.0674
  113CHL1   H1A14593   1.447   5.152  15.525  0.2942 -0.1261 -0.3714
  113CHL1   H1B14594   1.266   5.174  15.527 -0.0301 -0.7516 -0.3729
  113CHL1    C214595   1.355   5.100  15.710  0.4375  0.2900 -0.8929
  113CHL1   H2A14596   1.350   5.200  15.757 -3.3372 -0.0157 -0.4082
  113CHL1   H2B14597   1.429   5.034  15.761  0.3535 -1.7295 -3.1638
  113CHL1   C2014598   1.403   4.950  14.771 -0.1137 -0.7925 -0.3757
  113CHL1   H2014599   1.457   4.854  14.754  0.2345 -0.6883  0.1434
  113CHL1   C2114600   1.507   5.058  14.792  0.3399  0.4211  0.4745
  113CHL1  H21A14601   1.461   5.150  14.835 -2.5249 -1.6656  2.1555
  113CHL1  H21B14602   1.574   5.076  14.705  0.1265 -1.6845 -0.1789
  113CHL1  H21C14603   1.574   5.019  14.871  0.8242 -1.0245 -0.6155
  113CHL1   C2214604   1.320   4.974  14.644 -0.3674 -0.2781 -1.0078
  113CHL1  H22A14605   1.391   4.960  14.560 -0.1749 -0.7827 -0.7657
  113CHL1  H22B14606   1.254   4.887  14.630 -0.5019 -0.2784 -0.4132
  113CHL1   C2314607   1.266   5.119  14.645  0.6491 -0.6357  0.4312
  113CHL1  H23A14608   1.203   5.122  14.736  0.7839 -2.5612  0.6347
  113CHL1  H23B14609   1.332   5.208  14.649 -1.8968  1.3253  1.7314
  113CHL1   C2414610   1.150   5.152  14.537  0.1647  0.0167  0.1661
  113CHL1  H24A14611   1.067   5.080  14.554  0.1439  0.0767  0.3230
  113CHL1  H24B14612   1.109   5.252  14.562  0.2653  0.5186 -1.5649
  113CHL1   C2514613   1.184   5.156  14.388 -0.6453  0.5848 -0.3358
  113CHL1   H2514614   1.194   5.053  14.347 -2.3045  0.5102 -0.6159
  113CHL1   C2614615   1.062   5.217  14.314 -0.2278  0.1561  0.5788
  113CHL1  H26A14616   0.972   5.188  14.371 -0.6134 -1.6079 -0.8344
  113CHL1  H26B14617   1.074   5.327  14.323 -2.3965  0.5862 -1.0335
  113CHL1  H26C14618   1.057   5.185  14.207  0.0213  0.1609  0.5642
  113CHL1   C2714619   1.310   5.236  14.356  0.1097  0.6687 -0.1981
  113CHL1  H27A14620   1.403   5.198  14.405  1.1059  0.7024 -1.9600
  113CHL1  H27B14621   1.328   5.236  14.246  0.9330  2.3839 -0.1030
  113CHL1  H27C14622   1.297   5.342  14.384  1.0440  0.3639  1.5346
  114CHL1    C314623   4.832   0.242  15.778 -0.0280 -0.5366  0.3675
  114CHL1    H314624   4.752   0.196  15.716  0.1602 -0.4025  0.0268
  114CHL1    O314625   4.803   0.206  15.911  0.4691 -0.3397 -0.0696
  114CHL1   H3'14626   4.867   0.254  15.964 -0.4626  1.1339 -0.2271
  114CHL1    C414627   4.969   0.175  15.741  0.6844 -0.0017  0.8071
  114CHL1   H4A14628   5.043   0.207  15.818  0.3065 -2.6856  2.4090
  114CHL1   H4B14629   4.954   0.066  15.748 -0.7223  0.1489  0.3659
  114CHL1    C514630   5.007   0.224  15.605  0.1542  0.1776 -0.4153
  114CHL1    C614631   5.040   0.140  15.507 -0.0888  0.5199  0.5507
  114CHL1    H614632   5.040   0.031  15.526 -0.1435  0.1746 -1.2568
  114CHL1    C714633   5.091   0.183  15.376 -0.6790 -0.4858  0.5525
  114CHL1   H7A14634   5.186   0.138  15.342  0.4390  0.9863  1.5668
  114CHL1   H7B14635   5.015   0.155  15.300  1.4562 -0.6381 -1.6310
  114CHL1    C814636   5.113   0.339  15.355 -0.0581 -0.3960 -0.0858
  114CHL1    H814637   5.213   0.350  15.402 -0.3154  2.0753  0.0259
  114CHL1   C1414638   5.115   0.382  15.208 -1.0308 -0.3736  0.2454
  114CHL1   H1414639   5.013   0.366  15.167 -1.2476  1.0147  0.1691
  114CHL1   C1514640   5.212   0.307  15.116  0.3852 -0.1396  0.0956
  114CHL1  H15A14641   5.307   0.297  15.172 -0.0291 -0.2122  0.7989
  114CHL1  H15B14642   5.188   0.200  15.093  0.2619 -0.0505 -0.1985
  114CHL1   C1614643   5.219   0.388  14.991 -0.0877 -0.5161  0.3695
  114CHL1  H16A14644   5.324   0.409  14.961  0.3372  1.4791  2.8673
  114CHL1  H16B14645   5.158   0.352  14.905 -1.5121  3.7182 -0.6990
  114CHL1   C1714646   5.146   0.525  15.024  0.3135 -0.5650  0.1075
  114CHL1   H1714647   5.038   0.512  15.004  0.3099 -0.3632 -0.0149
  114CHL1   C1314648   5.146   0.532  15.182 -0.0553  0.0756  0.7727
  114CHL1   C1814649   5.290   0.567  15.227 -0.1224 -0.1493 -0.4074
  114CHL1  H18A14650   5.372   0.510  15.180  1.0153  0.0911  1.1993
  114CHL1  H18B14651   5.304   0.677  15.222  0.5352 -0.2052  0.0686
  114CHL1  H18C14652   5.297   0.537  15.334  1.7510 -0.2870 -0.5345
  114CHL1   C1214653   5.038   0.611  15.248  1.2734 -0.4793  0.4050
  114CHL1  H12A14654   5.051   0.721  15.234  3.1571 -0.4291  2.1068
  114CHL1  H12B14655   4.943   0.573  15.204  1.1606 -0.2327  0.4366
  114CHL1   C1114656   5.019   0.573  15.397 -0.2496 -0.3180 -0.2770
  114CHL1  H11A14657   5.113   0.613  15.441 -0.2259  0.5085 -1.0558
  114CHL1  H11B14658   4.943   0.638  15.445  2.4090  1.9827  1.1515
  114CHL1    C914659   5.013   0.422  15.431 -0.3126  0.0396  0.1089
  114CHL1    H914660   4.916   0.384  15.394 -0.5943  0.1827  0.6981
  114CHL1   C1014661   5.006   0.379  15.581  0.2306  0.1453 -0.0035
  114CHL1   C1914662   5.121   0.433  15.660  0.3322  0.0303  0.2322
  114CHL1  H19A14663   5.110   0.420  15.770  0.5397  0.1591  0.2690
  114CHL1  H19B14664   5.210   0.371  15.635 -0.0792 -0.8877  0.9738
  114CHL1  H19C14665   5.135   0.539  15.631  0.4080 -0.4003 -1.4055
  114CHL1    C114666   4.873   0.440  15.637 -0.2329 -0.3465 -0.5952
  114CHL1   H1A14667   4.873   0.551  15.631  2.7971 -0.3266 -1.4991
  114CHL1   H1B14668   4.796   0.399  15.568 -0.0391 -2.2689  0.2727
  114CHL1    C214669   4.830   0.395  15.779 -0.4500 -0.0340 -0.2383
  114CHL1   H2A14670   4.728   0.426  15.809  0.2379  0.6908  1.4960
  114CHL1   H2B14671   4.908   0.423  15.854 -1.5045 -0.5177  1.0814
  114CHL1   C2014672   5.201   0.643  14.941  0.5116  0.0068  0.0795
  114CHL1   H2014673   5.312   0.652  14.933  0.4359 -0.2724 -1.6746
  114CHL1   C2114674   5.160   0.776  14.994  0.4839 -0.0735  0.0726
  114CHL1  H21A14675   5.212   0.811  15.086 -1.3272  1.2999  0.6341
  114CHL1  H21B14676   5.052   0.758  15.014  0.9828 -1.9896  1.2697
  114CHL1  H21C14677   5.176   0.861  14.924 -0.7636 -0.8255 -1.1764
  114CHL1   C2214678   5.141   0.635  14.797 -0.0022 -0.2296  0.0605
  114CHL1  H22A14679   5.113   0.529  14.779  0.3188 -0.9705  3.2668
  114CHL1  H22B14680   5.047   0.692  14.783  0.3699  0.1666 -0.8953
  114CHL1   C2314681   5.231   0.688  14.690  0.3243 -1.0561 -0.2706
  114CHL1  H23A14682   5.248   0.795  14.712 -0.2684 -1.2759  1.3309
  114CHL1  H23B14683   5.330   0.636  14.691  1.6833  1.3774  0.1764
  114CHL1   C2414684   5.169   0.684  14.546  0.3693  0.2414 -0.6831
  114CHL1  H24A14685   5.141   0.581  14.514  1.2985  0.0704 -0.9875
  114CHL1  H24B14686   5.070   0.733  14.540 -0.4735 -0.9993  1.6803
  114CHL1   C2514687   5.261   0.755  14.444 -0.3639 -0.1343 -0.3534
  114CHL1   H2514688   5.358   0.702  14.434 -0.2643  0.3455 -2.2624
  114CHL1   C2614689   5.200   0.757  14.301 -0.5789  0.3442  0.0544
  114CHL1  H26A14690   5.105   0.813  14.289 -0.5904  0.1611 -0.7473
  114CHL1  H26B14691   5.270   0.793  14.223 -0.1491 -1.4931 -0.4596
  114CHL1  H26C14692   5.172   0.656  14.265  0.4399 -0.2699  0.9218
  114CHL1   C2714693   5.291   0.896  14.490  0.2898 -0.2455 -0.0348
  114CHL1  H27A14694   5.327   0.962  14.408 -1.1897  1.4213  0.5995
  114CHL1  H27B14695   5.193   0.934  14.525 -0.4250 -0.3215 -1.8222
  114CHL1  H27C14696   5.369   0.900  14.569  0.3293  1.5082 -0.1272
  115CHL1    C314697   1.996   1.291  15.642 -0.2092  0.4428 -0.5588
  115CHL1    H314698   2.069   1.286  15.558  0.2725 -0.6104 -0.1017
  115CHL1    O314699   2.069   1.332  15.758  0.1261  0.5150  0.2095
  115CHL1   H3'14700   2.018   1.306  15.834  0.3331  2.9822  1.2855
  115CHL1    C414701   1.876   1.382  15.629 -0.8044  0.0134  0.4208
  115CHL1   H4A14702   1.828   1.384  15.729 -1.1787  2.4166  0.2559
  115CHL1   H4B14703   1.919   1.485  15.622 -2.7809  1.0712  2.4597
  115CHL1    C514704   1.779   1.345  15.523 -0.4170 -0.3035  0.9909
  115CHL1    C614705   1.742   1.436  15.430 -0.2503 -0.6219 -0.4491
  115CHL1    H614706   1.786   1.537  15.421 -0.3363 -0.7684 -3.4355
  115CHL1    C714707   1.632   1.412  15.329 -0.5792 -0.0522  0.2701
  115CHL1   H7A14708   1.563   1.498  15.326  1.6107  1.7719 -0.6490
  115CHL1   H7B14709   1.683   1.417  15.230 -1.4036 -0.6085 -0.1929
  115CHL1    C814710   1.550   1.276  15.350  0.0795 -0.0873 -0.0951
  115CHL1    H814711   1.482   1.289  15.437  0.7983 -0.3877  0.5174
  115CHL1   C1414712   1.476   1.235  15.225 -0.1138 -0.6893  0.3949
  115CHL1   H1414713   1.553   1.227  15.146  0.3586 -1.1398  0.8884
  115CHL1   C1514714   1.369   1.330  15.166  0.1213  0.1618  0.4624
  115CHL1  H15A14715   1.318   1.386  15.248  1.4713  0.1814  1.3222
  115CHL1  H15B14716   1.421   1.394  15.091  1.8193  0.7788  2.0892
  115CHL1   C1614717   1.271   1.241  15.086 -0.2672 -0.4645  0.3490
  115CHL1  H16A14718   1.170   1.237  15.132 -0.5523  1.6116  0.0222
  115CHL1  H16B14719   1.257   1.284  14.984  2.3502  2.5129  1.0800
  115CHL1   C1714720   1.341   1.103  15.086  0.5607 -1.1517  0.3004
  115CHL1   H1714721   1.420   1.106  15.009 -1.1687 -1.9438 -1.6082
  115CHL1   C1314722   1.410   1.096  15.222  0.0214  0.4613  0.1189
  115CHL1   C1814723   1.310   1.083  15.343 -0.3165 -0.6266 -0.1237
  115CHL1  H18A14724   1.269   0.982  15.360 -0.3364 -0.3446  1.7454
  115CHL1  H18B14725   1.350   1.107  15.444  1.8773 -0.6134 -0.9420
  115CHL1  H18C14726   1.222   1.149  15.326  1.0909  0.8139 -2.3848
  115CHL1   C1214727   1.527   0.993  15.244 -0.0094 -0.4977  0.3396
  115CHL1  H12A14728   1.491   0.888  15.243  0.1145 -0.5389 -0.2055
  115CHL1  H12B14729   1.595   1.018  15.160 -0.7945 -0.4328 -0.2962
  115CHL1   C1114730   1.604   1.022  15.375 -0.8655  0.9434  0.6858
  115CHL1  H11A14731   1.550   0.985  15.465  0.7306  0.5668  1.5370
  115CHL1  H11B14732   1.698   0.962  15.375 -0.5575  1.4104 -0.6050
  115CHL1    C914733   1.653   1.166  15.396 -0.6222 -0.1600  0.0248
  115CHL1    H914734   1.733   1.173  15.319 -1.4842  0.8799 -0.7935
  115CHL1   C1014735   1.727   1.203  15.530 -0.2888  0.5509 -0.1718
  115CHL1   C1914736   1.630   1.181  15.642  0.4699 -0.6956  0.2755
  115CHL1  H19A14737   1.544   1.250  15.628  0.8027 -0.0991  1.1175
  115CHL1  H19B14738   1.595   1.076  15.642 -0.6137 -0.3594 -0.8366
  115CHL1  H19C14739   1.664   1.202  15.745  0.2225  2.3841 -0.1698
  115CHL1    C114740   1.839   1.105  15.567 -1.0645  0.3197  0.1240
  115CHL1   H1A14741   1.788   1.013  15.603 -0.0280 -0.5894 -0.6722
  115CHL1   H1B14742   1.884   1.087  15.467 -0.9340 -2.8222  0.6446
  115CHL1    C214743   1.953   1.147  15.669  0.2852  0.2135  0.3670
  115CHL1   H2A14744   2.042   1.080  15.670  0.9342  1.0600  0.8162
  115CHL1   H2B14745   1.901   1.151  15.767 -0.3927 -0.3022  0.0281
  115CHL1   C2014746   1.250   0.982  15.049  0.1017 -0.1402  0.1248
  115CHL1   H2014747   1.168   0.970  15.124 -0.1032 -1.0583 -0.2387
  115CHL1   C2114748   1.318   0.843  15.062 -0.3260 -0.3730  0.4174
  115CHL1  H21A14749   1.315   0.812  15.169  0.4120 -0.2318  0.4800
  115CHL1  H21B14750   1.424   0.845  15.029 -1.1491 -1.3073 -2.5960
  115CHL1  H21C14751   1.270   0.764  15.000  3.6079 -1.0472 -2.0926
  115CHL1   C2214752   1.179   0.992  14.914 -0.6251  0.4208  0.3271
  115CHL1  H22A14753   1.095   0.920  14.906  1.2159 -1.8702  0.4245
  115CHL1  H22B14754   1.148   1.098  14.903 -0.3232  0.8132  2.7185
  115CHL1   C2314755   1.283   0.961  14.800 -0.3279 -0.9324  0.8502
  115CHL1  H23A14756   1.384   1.000  14.827 -0.1431  0.4104 -1.5071
  115CHL1  H23B14757   1.306   0.853  14.793 -1.5087 -1.1288 -0.5811
  115CHL1   C2414758   1.223   1.010  14.662 -0.2384 -0.4602  0.3693
  115CHL1  H24A14759   1.135   0.942  14.652 -0.9134  0.2618  1.2785
  115CHL1  H24B14760   1.190   1.116  14.664 -3.4324 -1.3405 -0.0282
  115CHL1   C2514761   1.316   0.993  14.533  0.0119 -0.0826 -0.6121
  115CHL1   H2514762   1.419   0.981  14.571  1.5905 -2.6779 -4.9656
  115CHL1   C2614763   1.277   0.866  14.469 -0.2358  0.3607 -0.1918
  115CHL1  H26A14764   1.309   0.788  14.542 -2.0244  0.6785  0.9998
  115CHL1  H26B14765   1.168   0.855  14.449 -0.9386 -3.9050  4.0993
  115CHL1  H26C14766   1.342   0.843  14.382 -0.2765  0.3982 -0.2322
  115CHL1   C2714767   1.317   1.102  14.431  0.4428  0.4071  0.1047
  115CHL1  H27A14768   1.215   1.111  14.388 -0.0559  0.0448  1.1590
  115CHL1  H27B14769   1.339   1.196  14.487 -0.7223  1.2055 -0.7271
  115CHL1  H27C14770   1.399   1.087  14.359  0.7099  0.1431  0.4579
  116CHL1    C314771   2.538   0.630  15.274 -0.1603  0.3332 -0.3505
  116CHL1    H314772   2.595   0.718  15.240 -1.0358 -0.0578 -3.0195
  116CHL1    O314773   2.574   0.583  15.407 -0.0908 -0.1933  0.4458
  116CHL1   H3'14774   2.528   0.500  15.424 -0.9928  0.4164  1.0247
  116CHL1    C414775   2.394   0.672  15.276  0.2653 -0.1681  0.2249
  116CHL1   H4A14776   2.331   0.591  15.320 -1.8128  1.2021 -0.0859
  116CHL1   H4B14777   2.380   0.755  15.348 -2.7681  0.2826 -0.7376
  116CHL1    C514778   2.331   0.707  15.143 -0.5750 -0.0626  0.7302
  116CHL1    C614779   2.282   0.825  15.114  0.3991  0.3471  0.1393
  116CHL1    H614780   2.269   0.906  15.188 -1.4552 -0.9919  1.3476
  116CHL1    C714781   2.239   0.863  14.973 -0.0819 -0.6501 -0.2195
  116CHL1   H7A14782   2.139   0.908  14.993  0.2321 -1.0854  2.8600
  116CHL1   H7B14783   2.305   0.946  14.940 -0.8970 -0.3666 -1.1836
  116CHL1    C814784   2.225   0.747  14.868 -0.2360  0.5834  0.1425
  116CHL1    H814785   2.132   0.691  14.893 -0.4802  0.0638 -1.7887
  116CHL1   C1414786   2.217   0.800  14.729  0.0588 -0.2564  0.2170
  116CHL1   H1414787   2.319   0.839  14.707  0.0543 -0.5897 -0.4063
  116CHL1   C1514788   2.112   0.911  14.695 -0.3494 -0.2717  0.2317
  116CHL1  H15A14789   2.019   0.876  14.744 -0.7054  0.9561  0.4600
  116CHL1  H15B14790   2.141   1.011  14.735  0.3092 -1.0164  1.6786
  116CHL1   C1614791   2.110   0.909  14.539  0.2648 -0.0706 -0.0914
  116CHL1  H16A14792   2.006   0.879  14.516  0.1372 -0.7418  1.3065
  116CHL1  H16B14793   2.150   0.996  14.483  0.3983  0.0650  0.2105
  116CHL1   C1714794   2.201   0.783  14.496  0.5056  0.7900  0.0278
  116CHL1   H1714795   2.307   0.812  14.485  1.9551 -3.6161  0.4235
  116CHL1   C1314796   2.209   0.694  14.618  0.3699  0.3726 -0.1998
  116CHL1   C1814797   2.081   0.602  14.637  0.0216 -0.4170  0.4526
  116CHL1  H18A14798   2.072   0.524  14.558 -2.8930  0.3314 -0.0810
  116CHL1  H18B14799   2.066   0.551  14.735 -1.2914  0.7790  0.9033
  116CHL1  H18C14800   1.993   0.668  14.622 -0.7693 -1.6902 -0.7612
  116CHL1   C1214801   2.333   0.597  14.630  0.3064 -0.0540  0.1448
  116CHL1  H12A14802   2.340   0.520  14.550  0.4179  0.1748 -0.0654
  116CHL1  H12B14803   2.424   0.660  14.620  1.3170 -1.5488 -0.5210
  116CHL1   C1114804   2.346   0.539  14.769 -0.4894 -0.2976 -0.5288
  116CHL1  H11A14805   2.260   0.470  14.779 -0.3167 -0.6917 -1.5929
  116CHL1  H11B14806   2.442   0.486  14.785 -0.3265  0.5827  1.7381
  116CHL1    C914807   2.340   0.651  14.881  0.0267  0.5813 -0.2239
  116CHL1    H914808   2.429   0.714  14.859 -0.5524  0.5932 -2.9127
  116CHL1   C1014809   2.359   0.598  15.034  0.4557 -0.1133  0.0167
  116CHL1   C1914810   2.268   0.480  15.061 -0.0556  0.2386 -0.1022
  116CHL1  H19A14811   2.303   0.390  15.006  2.5626  1.6100 -0.8374
  116CHL1  H19B14812   2.251   0.454  15.168 -0.5029 -0.3911 -0.3157
  116CHL1  H19C14813   2.174   0.505  15.007 -0.0982 -1.0198 -0.6609
  116CHL1    C114814   2.508   0.543  15.037  0.4687 -0.1502 -0.7310
  116CHL1   H1A14815   2.532   0.453  14.976  2.0686  0.0810 -0.4865
  116CHL1   H1B14816   2.560   0.637  15.008  1.4143 -0.1355  0.8936
  116CHL1    C214817   2.560   0.513  15.174  0.5495  0.1376 -0.2627
  116CHL1   H2A14818   2.667   0.482  15.171 -0.1512 -2.5888  0.7457
  116CHL1   H2B14819   2.508   0.418  15.197  0.0015 -0.2498 -2.8160
  116CHL1   C2014820   2.157   0.733  14.355 -0.1752  0.4840 -0.2834
  116CHL1   H2014821   2.051   0.702  14.367 -0.1252  0.3075 -0.2936
  116CHL1   C2114822   2.245   0.620  14.307  0.9197 -0.4435  0.1105
  116CHL1  H21A14823   2.228   0.587  14.202  1.0854 -0.5108  0.1037
  116CHL1  H21B14824   2.237   0.523  14.361  2.5072 -0.7449 -0.1428
  116CHL1  H21C14825   2.350   0.655  14.319  0.7397  0.1760 -0.0925
  116CHL1   C2214826   2.165   0.851  14.255 -0.4128  0.5076  0.6512
  116CHL1  H22A14827   2.097   0.935  14.279 -0.7315  0.5089 -0.2539
  116CHL1  H22B14828   2.269   0.889  14.260 -0.5533  0.8342  1.3253
  116CHL1   C2314829   2.133   0.820  14.107  0.6843 -0.1013  0.7010
  116CHL1  H23A14830   2.189   0.738  14.058 -2.1824 -1.2918 -0.8661
  116CHL1  H23B14831   2.032   0.772  14.111 -0.2650  1.6502 -0.7095
  116CHL1   C2414832   2.147   0.940  14.021 -0.2912  0.0220 -0.7091
  116CHL1  H24A14833   2.110   1.031  14.073  3.1555 -0.0738  2.4189
  116CHL1  H24B14834   2.257   0.960  14.016  0.0519 -1.4188  0.3799
  116CHL1   C2514835   2.115   0.927  13.866 -0.7042  0.7420 -0.0759
  116CHL1   H2514836   2.171   0.835  13.838 -1.1184  0.9573 -1.6852
  116CHL1   C2614837   1.968   0.894  13.844 -0.1720 -0.3109 -0.0056
  116CHL1  H26A14838   1.897   0.958  13.900 -0.9408 -2.2742  1.3396
  116CHL1  H26B14839   1.939   0.898  13.736  0.9613  1.0211 -0.2948
  116CHL1  H26C14840   1.948   0.788  13.869  0.3175 -0.7758 -1.4615
  116CHL1   C2714841   2.159   1.037  13.770  0.2095  0.5894 -0.2142
  116CHL1  H27A14842   2.269   1.051  13.768  0.5058 -1.4365 -1.4915
  116CHL1  H27B14843   2.140   0.992  13.670  0.9429 -2.0669  0.7527
  116CHL1  H27C14844   2.106   1.134  13.782  1.7532  1.3461  0.8242
  117CHL1    C314845   5.332   1.174  15.757  0.5531 -0.5089 -0.3262
  117CHL1    H314846   5.343   1.280  15.727  2.7114 -0.9358 -1.1807
  117CHL1    O314847   5.395   1.157  15.883 -0.1590  0.3262  0.3302
  117CHL1   H3'14848   5.479   1.201  15.869  0.0940  0.4560  2.0724
  117CHL1    C414849   5.181   1.133  15.782 -0.0905  0.2815 -0.0196
  117CHL1   H4A14850   5.172   1.033  15.830  1.3042  0.0083 -0.2859
  117CHL1   H4B14851   5.141   1.201  15.859 -1.6676  1.6536 -1.9389
  117CHL1    C514852   5.112   1.150  15.653 -0.2506 -0.1988  0.0189
  117CHL1    C614853   4.997   1.227  15.652 -0.0437  0.8342 -0.0018
  117CHL1    H614854   4.965   1.271  15.747  1.0191  1.3598  0.1306
  117CHL1    C714855   4.915   1.244  15.525 -0.3959 -0.8032 -0.4752
  117CHL1   H7A14856   4.808   1.234  15.553 -0.0275 -0.5912  1.1127
  117CHL1   H7B14857   4.942   1.342  15.480 -2.5509  0.7362  1.3507
  117CHL1    C814858   4.946   1.134  15.416  0.0730 -0.1276 -0.5413
  117CHL1    H814859   4.904   1.039  15.455  0.5270 -0.8045 -1.6538
  117CHL1   C1414860   4.866   1.178  15.287  0.6315 -0.1916  0.4281
  117CHL1   H1414861   4.913   1.274  15.256  2.2029 -0.8103  0.8401
  117CHL1   C1514862   4.717   1.195  15.286  0.5305 -0.1157  0.3942
  117CHL1  H15A14863   4.669   1.114  15.345 -2.7580 -0.1005 -1.9848
  117CHL1  H15B14864   4.689   1.294  15.330 -1.2116  0.1923 -1.3133
  117CHL1   C1614865   4.675   1.176  15.137  0.0568 -0.7260  0.1364
  117CHL1  H16A14866   4.602   1.094  15.119 -1.2203  0.3010  0.4261
  117CHL1  H16B14867   4.619   1.266  15.103 -1.4329 -2.3888 -2.0922
  117CHL1   C1714868   4.811   1.155  15.064 -0.1322 -0.1770 -0.4773
  117CHL1   H1714869   4.859   1.255  15.056 -0.7747  0.1580 -0.2560
  117CHL1   C1314870   4.896   1.086  15.169  0.4892  0.0018 -0.3129
  117CHL1   C1814871   4.854   0.935  15.192 -0.1056 -0.4519 -0.0282
  117CHL1  H18A14872   4.875   0.878  15.099  2.4168  0.8435 -0.3276
  117CHL1  H18B14873   4.916   0.889  15.272  1.6679  1.9821  0.1002
  117CHL1  H18C14874   4.745   0.929  15.215 -0.9317  1.1011 -3.0206
  117CHL1   C1214875   5.050   1.092  15.147  0.5161  0.7242  0.1277
  117CHL1  H12A14876   5.079   1.030  15.059  0.7590  0.9001  0.0826
  117CHL1  H12B14877   5.072   1.199  15.125 -1.2786  1.3799  1.2859
  117CHL1   C1114878   5.127   1.042  15.269 -0.0676 -0.6710 -0.3447
  117CHL1  H11A14879   5.116   0.933  15.285  0.9631 -0.6687  0.5504
  117CHL1  H11B14880   5.237   1.052  15.252  0.1118 -1.2229  0.4595
  117CHL1    C914881   5.096   1.123  15.395  0.4054  0.3717 -0.0405
  117CHL1    H914882   5.132   1.227  15.381  0.2225  0.4454  0.0388
  117CHL1   C1014883   5.164   1.071  15.527  0.5237  0.1034  0.0966
  117CHL1   C1914884   5.137   0.921  15.552 -0.0334  0.2187 -0.0805
  117CHL1  H19A14885   5.184   0.896  15.650  0.6306 -0.5125 -0.5684
  117CHL1  H19B14886   5.031   0.891  15.535  0.4756 -1.1355 -1.0190
  117CHL1  H19C14887   5.194   0.856  15.482  0.9767  0.2953  0.6662
  117CHL1    C114888   5.317   1.101  15.518 -0.0710 -0.0899 -0.2205
  117CHL1   H1A14889   5.359   1.035  15.439 -0.4384 -1.1549  0.4516
  117CHL1   H1B14890   5.324   1.205  15.479  0.2019 -0.1143 -0.2397
  117CHL1    C214891   5.399   1.090  15.654  0.0688  0.1516 -0.1506
  117CHL1   H2A14892   5.497   1.141  15.646 -1.6082  3.8911  0.8818
  117CHL1   H2B14893   5.411   0.982  15.678 -2.1059 -0.4870 -1.6437
  117CHL1   C2014894   4.806   1.103  14.920  0.5652  0.4519  0.7190
  117CHL1   H2014895   4.903   1.059  14.889 -1.7693 -2.3499 -3.7652
  117CHL1   C2114896   4.766   1.218  14.827 -0.2943 -0.3774 -0.3226
  117CHL1  H21A14897   4.837   1.301  14.843 -0.1466 -0.6472  0.4480
  117CHL1  H21B14898   4.666   1.257  14.856  0.3994  0.2508  1.3363
  117CHL1  H21C14899   4.781   1.187  14.721  0.8711 -0.8645 -0.0289
  117CHL1   C2214900   4.700   0.991  14.904 -0.2354 -0.3634  0.5208
  117CHL1  H22A14901   4.699   0.920  14.989 -1.6862  1.1455  1.8465
  117CHL1  H22B14902   4.601   1.042  14.901  0.4529  1.1265 -3.7861
  117CHL1   C2314903   4.707   0.893  14.786 -0.4012 -0.0335 -0.0489
  117CHL1  H23A14904   4.721   0.943  14.688  3.5829  0.7731  0.7415
  117CHL1  H23B14905   4.798   0.833  14.805  0.5271  1.8783  2.1392
  117CHL1   C2414906   4.589   0.796  14.765  0.3958 -0.3524  0.2659
  117CHL1  H24A14907   4.573   0.727  14.850  1.7822  0.7624  1.4954
  117CHL1  H24B14908   4.505   0.865  14.743  0.7015 -0.4076 -1.1259
  117CHL1   C2514909   4.609   0.712  14.638 -0.1954  0.3421  0.0004
  117CHL1   H2514910   4.712   0.673  14.624  0.1165  0.9288  0.5727
  117CHL1   C2614911   4.504   0.600  14.623  0.1727 -0.0436  0.8004
  117CHL1  H26A14912   4.402   0.637  14.646  0.9133  1.4902  1.8089
  117CHL1  H26B14913   4.504   0.554  14.522 -1.2526  2.3151 -0.3618
  117CHL1  H26C14914   4.530   0.532  14.707 -0.3448 -0.5408  0.5689
  117CHL1   C2714915   4.590   0.795  14.512  0.4780  0.2618  0.4004
  117CHL1  H27A14916   4.669   0.869  14.489  0.4996 -0.0534 -0.5980
  117CHL1  H27B14917   4.582   0.723  14.427  0.4259 -1.0914  1.5160
  117CHL1  H27C14918   4.491   0.844  14.514  0.0877 -0.4577 -0.4690
  118CHL1    C314919   7.591   1.146  15.944  0.2010 -0.4011  0.7329
  118CHL1    H314920   7.550   1.248  15.929 -0.0340 -0.5243  0.5360
  118CHL1    O314921   7.624   1.126  16.076 -0.1107 -0.4747 -0.2993
  118CHL1   H3'14922   7.647   1.033  16.085 -1.9108 -0.8024  1.7725
  118CHL1    C414923   7.523   1.018  15.890  0.7964  0.8350 -0.4324
  118CHL1   H4A14924   7.591   0.930  15.892  1.5495  1.1957  5.2479
  118CHL1   H4B14925   7.436   0.987  15.952  1.4235 -2.2265 -0.9267
  118CHL1    C514926   7.480   1.040  15.749  0.1510  0.1372 -0.4037
  118CHL1    C614927   7.346   1.026  15.719 -0.4388 -0.0067  0.4961
  118CHL1    H614928   7.268   1.004  15.793  0.4860 -0.1493  1.4528
  118CHL1    C714929   7.298   1.033  15.578  0.6283  0.3741  0.1393
  118CHL1   H7A14930   7.241   0.940  15.556  0.1188  0.5553  0.6783
  118CHL1   H7B14931   7.236   1.125  15.568  1.9443  1.0820 -2.5689
  118CHL1    C814932   7.409   1.050  15.470  0.8063 -0.0456 -0.0451
  118CHL1    H814933   7.462   0.953  15.453  0.4491 -0.8325  2.7676
  118CHL1   C1414934   7.346   1.099  15.340 -0.3936  0.3599 -0.3263
  118CHL1   H1414935   7.309   1.200  15.365  1.1761  0.6383  1.0302
  118CHL1   C1514936   7.225   1.027  15.277  0.1117 -0.0316 -0.3288
  118CHL1  H15A14937   7.243   0.919  15.260  0.4527 -0.6774  3.3503
  118CHL1  H15B14938   7.145   1.026  15.354 -0.0550 -0.1005 -0.5054
  118CHL1   C1614939   7.211   1.105  15.147  0.3634  0.0956  0.6675
  118CHL1  H16A14940   7.190   1.039  15.061 -1.5534 -0.4029  1.4660
  118CHL1  H16B14941   7.128   1.179  15.155  1.3461  1.3122 -0.0426
  118CHL1   C1714942   7.336   1.195  15.123 -0.1947 -0.0793 -0.5567
  118CHL1   H1714943   7.315   1.299  15.157 -1.4364  0.3598 -2.4671
  118CHL1   C1314944   7.442   1.135  15.225  0.3754  0.0939 -0.0293
  118CHL1   C1814945   7.495   1.007  15.169 -0.7090  0.1920  0.7846
  118CHL1  H18A14946   7.587   1.014  15.107 -1.9448  0.3486 -1.1011
  118CHL1  H18B14947   7.525   0.939  15.252 -0.2615  1.2833  1.5399
  118CHL1  H18C14948   7.412   0.962  15.110  1.0639 -0.3003 -1.4801
  118CHL1   C1214949   7.550   1.236  15.283  0.1561  0.5802  0.1091
  118CHL1  H12A14950   7.631   1.240  15.207  0.5416 -1.2668  0.3748
  118CHL1  H12B14951   7.491   1.330  15.290 -1.8742 -0.3642 -2.4507
  118CHL1   C1114952   7.615   1.183  15.402 -0.1653  0.1091  0.3971
  118CHL1  H11A14953   7.683   1.101  15.372 -1.3973 -0.9064  0.2975
  118CHL1  H11B14954   7.675   1.269  15.440 -0.8467  0.1641  1.3791
  118CHL1    C914955   7.519   1.139  15.516 -0.7290 -0.0451  0.0467
  118CHL1    H914956   7.466   1.232  15.545 -1.5520  0.1007 -1.7713
  118CHL1   C1014957   7.590   1.083  15.646 -0.0220 -0.1795  0.1653
  118CHL1   C1914958   7.689   0.971  15.612  0.0337  0.5962  0.2842
  118CHL1  H19A14959   7.787   0.994  15.565  0.6155  1.1570  1.7103
  118CHL1  H19B14960   7.714   0.914  15.704  0.3045  0.0285 -0.1329
  118CHL1  H19C14961   7.639   0.894  15.550  0.1327  0.9490 -0.2374
  118CHL1    C114962   7.678   1.193  15.713  0.1336  0.3531  0.4219
  118CHL1   H1A14963   7.767   1.218  15.651 -0.0708  1.1297  0.4269
  118CHL1   H1B14964   7.614   1.284  15.718 -1.1979 -0.5126 -0.0810
  118CHL1    C214965   7.717   1.150  15.854 -0.3180 -0.2878  0.2263
  118CHL1   H2A14966   7.782   1.218  15.914 -0.5968 -0.9971  1.3618
  118CHL1   H2B14967   7.773   1.054  15.855 -0.3747 -0.3548 -1.4938
  118CHL1   C2014968   7.383   1.205  14.973  0.1710 -0.2243  0.0209
  118CHL1   H2014969   7.396   1.101  14.937  0.1298 -0.3021  0.2358
  118CHL1   C2114970   7.516   1.275  14.955 -0.3412  1.0970  0.4775
  118CHL1  H21A14971   7.599   1.217  15.001 -1.8197  1.5910  4.0646
  118CHL1  H21B14972   7.521   1.376  15.001  3.1847  2.3102 -2.1129
  118CHL1  H21C14973   7.529   1.283  14.845  1.4773  0.8914  0.6475
  118CHL1   C2214974   7.269   1.268  14.888 -0.2262 -0.5289  0.6844
  118CHL1  H22A14975   7.319   1.261  14.789 -0.2687 -3.5868  0.7915
  118CHL1  H22B14976   7.183   1.198  14.878  0.3032 -0.9425 -1.3564
  118CHL1   C2314977   7.222   1.411  14.925 -0.2718 -0.4363  0.4796
  118CHL1  H23A14978   7.137   1.402  14.996 -0.2780 -1.2842  0.3746
  118CHL1  H23B14979   7.303   1.470  14.972 -0.2479 -0.4798  0.4931
  118CHL1   C2414980   7.159   1.489  14.805  0.5227 -0.3232  0.1757
  118CHL1  H24A14981   7.123   1.590  14.833 -1.1774 -0.6652 -0.6498
  118CHL1  H24B14982   7.236   1.504  14.726 -1.0602 -0.8397 -1.5480
  118CHL1   C2514983   7.026   1.424  14.745  0.1362  0.5318 -0.0632
  118CHL1   H2514984   7.041   1.315  14.762 -1.4219  0.2521 -0.3648
  118CHL1   C2614985   6.899   1.465  14.810  0.5714  0.2203 -0.5344
  118CHL1  H26A14986   6.862   1.559  14.765 -0.9195  0.3274  0.8034
  118CHL1  H26B14987   6.820   1.386  14.804  1.6717 -1.4033  3.0805
  118CHL1  H26C14988   6.909   1.496  14.916 -0.6857  0.5516 -0.4908
  118CHL1   C2714989   7.019   1.443  14.593  0.0076 -0.2317 -0.1704
  118CHL1  H27A14990   7.048   1.548  14.569  1.3740 -0.3185  0.9397
  118CHL1  H27B14991   7.096   1.377  14.549  0.1315 -1.2694  1.5233
  118CHL1  H27C14992   6.920   1.420  14.549 -0.5088  1.5629 -0.0571
  119CHL1    C314993   1.500   7.464  16.175  0.3941  0.4167 -0.2910
  119CHL1    H314994   1.390   7.460  16.164  0.4551 -0.1805 -0.6896
  119CHL1    O314995   1.545   7.471  16.311  0.1538  0.0295 -0.5045
  119CHL1   H3'14996   1.638   7.455  16.297  0.4558 -0.9070  2.1693
  119CHL1    C414997   1.557   7.342  16.109 -0.0717 -0.6302  0.7327
  119CHL1   H4A14998   1.664   7.313  16.117 -0.1592 -1.9767 -1.8172
  119CHL1   H4B14999   1.508   7.257  16.162 -0.5546 -0.0516  1.2189
  119CHL1    C515000   1.523   7.338  15.962  0.1947  0.1129  0.0657
  119CHL1    C615001   1.453   7.233  15.910 -0.2184 -0.7306 -0.0330
  119CHL1    H615002   1.420   7.148  15.971  0.3279  0.3353  1.8747
  119CHL1    C715003   1.419   7.225  15.767  0.0152  0.0083 -0.0571
  119CHL1   H7A15004   1.449   7.125  15.729  0.7813  0.4926 -0.7608
  119CHL1   H7B15005   1.310   7.237  15.751 -0.1201  1.1972  1.4987
  119CHL1    C815006   1.494   7.314  15.677 -0.8247 -0.1449 -0.3035
  119CHL1    H815007   1.601   7.284  15.668 -0.2969  0.9041  1.9055
  119CHL1   C1415008   1.415   7.335  15.540  0.5694 -0.2942 -0.1036
  119CHL1   H1415009   1.316   7.372  15.572  0.5918  0.4297 -0.8408
  119CHL1   C1515010   1.367   7.214  15.464 -0.3846  0.8365 -0.2237
  119CHL1  H15A15011   1.451   7.144  15.441 -0.9375  1.0762 -3.5727
  119CHL1  H15B15012   1.293   7.148  15.514 -0.9259  0.3691 -1.5773
  119CHL1   C1615013   1.323   7.270  15.335  0.4873 -0.5818 -0.1584
  119CHL1  H16A15014   1.359   7.196  15.260 -1.7491 -3.5368  1.4775
  119CHL1  H16B15015   1.215   7.261  15.313  0.0016  0.3196  1.6613
  119CHL1   C1715016   1.363   7.423  15.322 -0.1693  0.0243  0.5364
  119CHL1   H1715017   1.282   7.493  15.352  1.1107  1.1323  1.4852
  119CHL1   C1315018   1.474   7.433  15.429 -0.3510  0.1831 -0.3228
  119CHL1   C1815019   1.611   7.376  15.386 -0.0484  0.0069 -0.4405
  119CHL1  H18A15020   1.612   7.272  15.346  1.1050 -1.5471  3.2691
  119CHL1  H18B15021   1.659   7.448  15.316 -0.0691  0.5002  0.0510
  119CHL1  H18C15022   1.681   7.369  15.471  1.3484  0.9030 -1.4850
  119CHL1   C1215023   1.490   7.567  15.497 -0.2270  0.4174  0.3493
  119CHL1  H12A15024   1.554   7.629  15.430 -0.8560  0.3256 -0.3544
  119CHL1  H12B15025   1.396   7.626  15.508 -1.0260 -0.3542 -1.8228
  119CHL1   C1115026   1.553   7.562  15.636  0.4021  0.2473  0.4572
  119CHL1  H11A15027   1.659   7.543  15.611  0.1178 -0.1550 -0.4930
  119CHL1  H11B15028   1.564   7.667  15.671  3.8955  0.4327 -0.8161
  119CHL1    C915029   1.495   7.455  15.737 -1.2085  0.4586 -0.2300
  119CHL1    H915030   1.393   7.492  15.763 -2.0180 -1.4586 -0.5568
  119CHL1   C1015031   1.566   7.457  15.880  0.0803  0.2274  0.4519
  119CHL1   C1915032   1.720   7.463  15.859 -0.1616 -0.5224 -0.3595
  119CHL1  H19A15033   1.773   7.476  15.956  1.7330 -1.7835 -1.1711
  119CHL1  H19B15034   1.761   7.364  15.828  0.1723 -0.1044 -1.2817
  119CHL1  H19C15035   1.754   7.549  15.797 -1.0387  0.0812 -0.0258
  119CHL1    C115036   1.514   7.587  15.959  0.5943 -0.1063  0.6413
  119CHL1   H1A15037   1.546   7.685  15.916  0.0426  0.2210  0.9731
  119CHL1   H1B15038   1.403   7.589  15.963  0.5522 -0.3902 -0.0843
  119CHL1    C215039   1.547   7.593  16.108  0.2985  1.1048  0.0141
  119CHL1   H2A15040   1.488   7.670  16.162 -0.2958 -1.2103  2.9166
  119CHL1   H2B15041   1.656   7.604  16.122  0.2382 -0.4633  2.2356
  119CHL1   C2015042   1.391   7.452  15.172 -0.2052 -0.6393 -0.1945
  119CHL1   H2015043   1.466   7.380  15.132  0.2411  0.2698 -1.0711
  119CHL1   C2115044   1.442   7.601  15.155  0.0205  0.6464  0.3442
  119CHL1  H21A15045   1.455   7.627  15.048  2.8599 -1.1076  0.1437
  119CHL1  H21B15046   1.547   7.606  15.192  1.1311  0.0582 -2.4888
  119CHL1  H21C15047   1.372   7.655  15.221 -0.3102  0.2447  0.3275
  119CHL1   C2215048   1.258   7.445  15.091  0.2068  0.2047 -0.0168
  119CHL1  H22A15049   1.193   7.364  15.130  0.8233 -0.1456  0.3144
  119CHL1  H22B15050   1.217   7.548  15.101  1.4232  0.6071  1.1491
  119CHL1   C2315051   1.282   7.410  14.945  0.7819  0.7142 -0.1933
  119CHL1  H23A15052   1.364   7.479  14.915  0.7516  0.3532 -1.1365
  119CHL1  H23B15053   1.330   7.313  14.923  0.7411  0.4625  0.7764
  119CHL1   C2415054   1.153   7.435  14.857 -0.0978  0.3169  0.0270
  119CHL1  H24A15055   1.070   7.366  14.882  0.6729 -1.3817 -1.8711
  119CHL1  H24B15056   1.123   7.539  14.884 -0.3433  0.6560 -1.4528
  119CHL1   C2515057   1.163   7.430  14.699 -0.2023  0.0305 -0.3067
  119CHL1   H2515058   1.062   7.455  14.659 -1.5547  0.6172  3.1002
  119CHL1   C2615059   1.277   7.517  14.647 -0.2476  0.0239  0.2181
  119CHL1  H26A15060   1.273   7.615  14.699 -1.7948  0.3861 -0.5311
  119CHL1  H26B15061   1.375   7.471  14.672 -0.7159 -1.6236 -0.8783
  119CHL1  H26C15062   1.264   7.524  14.537 -0.7807  0.2675  0.2945
  119CHL1   C2715063   1.197   7.283  14.660 -0.5043 -0.1223  0.5788
  119CHL1  H27A15064   1.127   7.208  14.703  1.7574 -2.9353 -0.3245
  119CHL1  H27B15065   1.192   7.271  14.550 -0.7657 -1.2700  0.7000
  119CHL1  H27C15066   1.300   7.264  14.698 -0.0840  0.5424 -0.1995
  120CHL1    C315067   7.432   7.368  16.031 -0.4117 -0.2009 -0.5563
  120CHL1    H315068   7.509   7.305  15.981  0.4532  2.2936 -2.5617
  120CHL1    O315069   7.494   7.439  16.140 -0.1833  0.3124 -0.3894
  120CHL1   H3'15070   7.581   7.399  16.129 -0.7840 -1.0387 -0.3992
  120CHL1    C415071   7.351   7.454  15.936 -0.0708  0.4065  0.0783
  120CHL1   H4A15072   7.285   7.514  16.002 -0.2851  0.3761 -0.1076
  120CHL1   H4B15073   7.421   7.531  15.895 -0.2723  0.0810 -0.8990
  120CHL1    C515074   7.276   7.372  15.831  0.1897 -0.5459 -0.0479
  120CHL1    C615075   7.306   7.391  15.700  0.1144  0.3013 -0.5844
  120CHL1    H615076   7.381   7.465  15.669 -0.1330  1.5580  1.5924
  120CHL1    C715077   7.246   7.311  15.587 -0.0777  0.3124  0.6363
  120CHL1   H7A15078   7.213   7.378  15.504  0.2646  1.5124  1.4417
  120CHL1   H7B15079   7.321   7.239  15.548 -1.0321  1.0639 -2.9269
  120CHL1    C815080   7.127   7.221  15.639 -0.4934 -0.1753  0.7089
  120CHL1    H815081   7.043   7.293  15.642 -0.5114 -0.1501 -0.1468
  120CHL1   C1415082   7.093   7.100  15.546  0.4880 -0.0467 -0.2187
  120CHL1   H1415083   7.183   7.036  15.556  1.1761  1.0664  0.9986
  120CHL1   C1515084   7.079   7.135  15.391 -0.5418  0.7939 -0.0637
  120CHL1  H15A15085   7.014   7.223  15.373  0.8383  1.6751 -0.9304
  120CHL1  H15B15086   7.183   7.142  15.354  0.3338 -1.4074  1.6933
  120CHL1   C1615087   6.994   7.018  15.334 -0.2344 -0.2408  0.2478
  120CHL1  H16A15088   6.901   7.066  15.299 -0.6515  1.4481  3.3200
  120CHL1  H16B15089   7.037   6.954  15.254 -0.5365  1.0996 -1.0351
  120CHL1   C1715090   6.959   6.925  15.459 -0.3706 -0.5126 -0.1841
  120CHL1   H1715091   7.052   6.866  15.473  1.6111  2.5261  0.4207
  120CHL1   C1315092   6.964   7.027  15.583 -0.6499  0.3497  0.4701
  120CHL1   C1815093   6.838   7.112  15.577  0.0292  0.1898  0.5330
  120CHL1  H18A15094   6.842   7.196  15.650  0.3442  0.9259 -0.3122
  120CHL1  H18B15095   6.817   7.158  15.478 -1.1436  1.8159  1.4766
  120CHL1  H18C15096   6.761   7.037  15.606  1.9995 -2.2824 -0.2791
  120CHL1   C1215097   6.987   6.969  15.716 -0.3415  0.2782  0.3177
  120CHL1  H12A15098   6.890   6.934  15.758  0.0462  1.0821  1.9850
  120CHL1  H12B15099   7.060   6.886  15.718 -1.2116 -0.4939  1.5114
  120CHL1   C1115100   7.029   7.074  15.824  0.6289  0.1480  0.2602
  120CHL1  H11A15101   6.941   7.139  15.841 -0.6451 -1.4574  0.0862
  120CHL1  H11B15102   7.043   7.019  15.920 -0.2906  0.0839  0.3647
  120CHL1    C915103   7.147   7.159  15.779  0.7753 -0.4551  0.0076
  120CHL1    H915104   7.219   7.074  15.777 -1.0669 -2.0959  0.5219
  120CHL1   C1015105   7.182   7.266  15.887  0.2520 -0.1360  0.0819
  120CHL1   C1915106   7.061   7.340  15.944 -0.2965 -0.1515  0.2061
  120CHL1  H19A15107   7.016   7.412  15.872  1.9600  1.1264 -0.0194
  120CHL1  H19B15108   6.987   7.270  15.988 -0.9306  0.4824  0.1726
  120CHL1  H19C15109   7.087   7.401  16.034 -0.7757 -0.5546  0.6271
  120CHL1    C115110   7.262   7.178  15.991 -0.0556 -0.4563  0.4936
  120CHL1   H1A15111   7.188   7.113  16.043  0.3153  0.1041  1.7689
  120CHL1   H1B15112   7.335   7.110  15.943  0.7701  1.8228 -1.7197
  120CHL1    C215113   7.338   7.260  16.096 -0.4469  0.0264  0.2764
  120CHL1   H2A15114   7.394   7.190  16.162 -0.6205 -0.6396 -0.2671
  120CHL1   H2B15115   7.269   7.314  16.165  0.5448  1.5959  0.0840
  120CHL1   C2015116   6.838   6.824  15.430 -0.4525 -0.1349  0.0322
  120CHL1   H2015117   6.753   6.889  15.402 -1.4300 -0.1811  2.5844
  120CHL1   C2115118   6.784   6.747  15.553  0.1296  0.0686 -0.6046
  120CHL1  H21A15119   6.687   6.697  15.532  0.9470 -1.2659 -1.3857
  120CHL1  H21B15120   6.777   6.811  15.643 -3.5435  0.3976 -0.9611
  120CHL1  H21C15121   6.855   6.665  15.579  2.1543  2.0346  0.4122
  120CHL1   C2215122   6.875   6.732  15.307 -0.7586 -0.4745  0.0501
  120CHL1  H22A15123   6.896   6.787  15.212  3.3122  0.7031  1.4392
  120CHL1  H22B15124   6.970   6.683  15.337  0.6549  0.0235 -3.0919
  120CHL1   C2315125   6.774   6.614  15.265 -0.3634 -0.3051 -0.4449
  120CHL1  H23A15126   6.756   6.559  15.360 -1.7380  0.6111 -0.1288
  120CHL1  H23B15127   6.670   6.653  15.253 -0.1331  0.1654 -0.9319
  120CHL1   C2415128   6.826   6.526  15.154 -0.1037 -0.2394  0.0653
  120CHL1  H24A15129   6.797   6.580  15.061 -0.4617  1.5645  1.1809
  120CHL1  H24B15130   6.934   6.501  15.165  0.6285  2.6075  0.1611
  120CHL1   C2515131   6.752   6.393  15.161  0.2287 -0.2849  0.1506
  120CHL1   H2515132   6.772   6.363  15.267  1.0167  1.3672  0.4972
  120CHL1   C2615133   6.603   6.397  15.142  0.4941 -0.0725 -0.2083
  120CHL1  H26A15134   6.576   6.386  15.035  0.7996  0.9088 -0.3909
  120CHL1  H26B15135   6.562   6.316  15.207  0.4972  2.4196  3.1436
  120CHL1  H26C15136   6.555   6.485  15.190 -1.6849 -1.0722 -0.4507
  120CHL1   C2715137   6.812   6.280  15.078  0.1034  0.1611  0.4882
  120CHL1  H27A15138   6.797   6.303  14.971 -1.0671  1.3456  0.8830
  120CHL1  H27B15139   6.917   6.252  15.105 -0.7208 -2.8019  1.0017
  120CHL1  H27C15140   6.751   6.188  15.095 -0.0721 -0.3517 -2.4854
  121CHL1    C315141   3.651   3.592  12.600  0.2460  0.3990 -0.2000
  121CHL1    H315142   3.544   3.567  12.617  0.3942  0.6610  1.3256
  121CHL1    O315143   3.661   3.640  12.470 -0.0183 -0.6757  0.4277
  121CHL1   H3'15144   3.756   3.644  12.456  0.1914 -1.9352  1.3483
  121CHL1    C415145   3.699   3.701  12.699  0.1658  0.1647  0.1780
  121CHL1   H4A15146   3.807   3.715  12.680  0.0031 -1.3659 -2.4522
  121CHL1   H4B15147   3.652   3.797  12.670 -0.1802  0.0020  0.1884
  121CHL1    C515148   3.690   3.651  12.844 -0.0281 -0.2011  0.1144
  121CHL1    C615149   3.613   3.716  12.931 -0.6544  0.4009 -0.0605
  121CHL1    H615150   3.557   3.803  12.897 -0.1015 -0.0641 -2.3023
  121CHL1    C715151   3.597   3.673  13.070 -0.2188  0.5009 -0.5077
  121CHL1   H7A15152   3.598   3.759  13.141  0.5090 -0.4712  0.6913
  121CHL1   H7B15153   3.495   3.629  13.078 -0.1673  0.6489  1.7028
  121CHL1    C815154   3.699   3.575  13.124 -0.4358 -0.8808  0.5370
  121CHL1    H815155   3.800   3.621  13.116 -1.1759  0.6715 -0.2689
  121CHL1   C1415156   3.659   3.504  13.255 -0.0853  0.3382 -0.0747
  121CHL1   H1415157   3.567   3.445  13.236  1.3489 -1.4751 -1.7510
  121CHL1   C1515158   3.626   3.595  13.374 -0.2245  0.4212  0.2219
  121CHL1  H15A15159   3.713   3.664  13.371  0.4659 -0.4481  0.0285
  121CHL1  H15B15160   3.532   3.654  13.363  0.0334  0.9229  0.6524
  121CHL1   C1615161   3.646   3.507  13.502 -0.2034  0.0457  0.7519
  121CHL1  H16A15162   3.715   3.563  13.569 -2.1494  0.3573  2.5887
  121CHL1  H16B15163   3.558   3.492  13.567  2.3971 -4.6038  3.7675
  121CHL1   C1715164   3.694   3.372  13.451 -0.1428 -0.1144  0.1570
  121CHL1   H1715165   3.596   3.323  13.434 -0.1815 -0.7274  1.9324
  121CHL1   C1315166   3.755   3.398  13.313  0.5274 -0.7153 -0.5510
  121CHL1   C1815167   3.891   3.459  13.334 -0.7490  0.2613  0.1962
  121CHL1  H18A15168   3.893   3.547  13.402  1.3285  0.7916 -0.4613
  121CHL1  H18B15169   3.971   3.387  13.362  0.0228  0.2869 -1.8245
  121CHL1  H18C15170   3.922   3.497  13.235 -1.3091  0.8777  0.2510
  121CHL1   C1215171   3.765   3.285  13.208  0.2558  0.4654  0.8227
  121CHL1  H12A15172   3.834   3.206  13.245  0.7420  0.3840 -0.2110
  121CHL1  H12B15173   3.665   3.239  13.202  0.6191 -0.3857  1.0462
  121CHL1   C1115174   3.796   3.338  13.068 -0.9598 -0.0432  0.3693
  121CHL1  H11A15175   3.903   3.369  13.068 -0.9063 -0.1361 -1.3955
  121CHL1  H11B15176   3.799   3.261  12.988  0.3269  0.8339 -0.4771
  121CHL1    C915177   3.710   3.466  13.019 -0.0214  0.5488  0.2832
  121CHL1    H915178   3.607   3.427  13.002  0.7526 -1.1650 -0.8008
  121CHL1   C1015179   3.757   3.514  12.879  0.1139  0.8130 -0.5424
  121CHL1   C1915180   3.912   3.530  12.880 -0.1243 -0.0227  1.0996
  121CHL1  H19A15181   3.959   3.431  12.863  1.6904  1.0055 -0.2740
  121CHL1  H19B15182   3.949   3.586  12.791  3.1885 -3.1036  0.3223
  121CHL1  H19C15183   3.940   3.582  12.974  1.6830  0.0715  0.5351
  121CHL1    C115184   3.721   3.416  12.769  0.4894  0.0298  0.0037
  121CHL1   H1A15185   3.781   3.323  12.779 -0.8027 -0.6614  1.7828
  121CHL1   H1B15186   3.620   3.378  12.792  1.2573 -0.2396  3.4264
  121CHL1    C215187   3.733   3.465  12.621  0.2404 -0.2893 -0.1685
  121CHL1   H2A15188   3.680   3.380  12.573 -2.6912 -0.3404  2.8103
  121CHL1   H2B15189   3.841   3.473  12.596  0.0157 -0.5816 -1.2964
  121CHL1   C2015190   3.765   3.290  13.554  0.0340  0.3878 -0.1995
  121CHL1   H2015191   3.867   3.333  13.561  0.5556 -0.9693  1.7794
  121CHL1   C2115192   3.782   3.140  13.526  0.1368  0.2459 -0.3975
  121CHL1  H21A15193   3.845   3.122  13.437 -1.3688 -1.4301 -1.1889
  121CHL1  H21B15194   3.681   3.104  13.496 -0.8289  0.9038  1.8525
  121CHL1  H21C15195   3.828   3.078  13.607 -2.4970 -0.9690  0.2856
  121CHL1   C2215196   3.710   3.300  13.696 -0.0861  0.7923  0.0055
  121CHL1  H22A15197   3.781   3.247  13.762 -0.8646  0.3517  0.4997
  121CHL1  H22B15198   3.717   3.400  13.744  2.1659  0.0077  1.4741
  121CHL1   C2315199   3.566   3.243  13.718 -0.0813  0.1784 -0.3652
  121CHL1  H23A15200   3.500   3.286  13.639  0.6611  1.7467 -0.1801
  121CHL1  H23B15201   3.562   3.134  13.698 -0.6374  0.4880 -2.1106
  121CHL1   C2415202   3.499   3.285  13.844  0.1314  0.6937  0.2214
  121CHL1  H24A15203   3.549   3.236  13.931 -1.2560 -2.0182 -0.3706
  121CHL1  H24B15204   3.509   3.395  13.854  0.2979  0.7708 -0.7031
  121CHL1   C2515205   3.351   3.241  13.859  0.1680 -0.2420  0.2017
  121CHL1   H2515206   3.343   3.137  13.820  0.9287  0.0096 -0.6578
  121CHL1   C2615207   3.315   3.231  14.009 -0.7828  0.4985  0.3852
  121CHL1  H26A15208   3.207   3.210  14.025 -0.8838  0.2983 -0.5471
  121CHL1  H26B15209   3.385   3.159  14.055 -0.5803  0.9597  0.8176
  121CHL1  H26C15210   3.325   3.332  14.055 -2.1112 -0.3598  2.7685
  121CHL1   C2715211   3.242   3.326  13.784  0.7641 -0.2058 -0.1177
  121CHL1  H27A15212   3.150   3.266  13.799 -0.8303  1.3420 -2.8211
  121CHL1  H27B15213   3.245   3.424  13.836  2.6811 -0.4900  0.3936
  121CHL1  H27C15214   3.266   3.352  13.679  0.6665 -0.1421 -0.1246
  122CHL1    C315215   2.733   3.878  12.650  0.4947  0.1594 -0.5436
  122CHL1    H315216   2.731   3.767  12.650 -1.3451  0.1679 -0.4126
  122CHL1    O315217   2.785   3.912  12.519 -0.0998  0.1042  0.2439
  122CHL1   H3'15218   2.788   4.007  12.530 -1.1843  0.2881 -0.8305
  122CHL1    C415219   2.591   3.929  12.683  0.2874 -0.4679 -0.3234
  122CHL1   H4A15220   2.582   4.040  12.684 -1.0595 -0.4624 -3.0018
  122CHL1   H4B15221   2.526   3.887  12.603  1.4868 -1.1263 -0.9738
  122CHL1    C515222   2.547   3.881  12.823  0.6533  0.5586  0.4118
  122CHL1    C615223   2.436   3.811  12.847 -0.3243 -0.9761  0.2262
  122CHL1    H615224   2.366   3.795  12.764 -0.9014  2.1418 -0.0372
  122CHL1    C715225   2.388   3.781  12.989 -0.0242 -0.5556  0.2670
  122CHL1   H7A15226   2.279   3.799  12.999 -0.2815 -1.5499 -0.5695
  122CHL1   H7B15227   2.401   3.670  12.995 -3.9385 -1.3423 -2.1623
  122CHL1    C815228   2.461   3.863  13.099 -0.6557 -0.1966 -0.3204
  122CHL1    H815229   2.415   3.964  13.097 -0.2064  0.0310  0.4350
  122CHL1   C1415230   2.447   3.797  13.237  0.7703  0.5877  0.0998
  122CHL1   H1415231   2.502   3.701  13.240  1.9337  1.2383  0.2511
  122CHL1   C1515232   2.307   3.765  13.282 -0.7418 -0.3273  0.0837
  122CHL1  H15A15233   2.231   3.846  13.279 -0.8635 -0.3765  1.1877
  122CHL1  H15B15234   2.266   3.679  13.226  1.6120 -0.5980 -1.3608
  122CHL1   C1615235   2.332   3.734  13.436 -0.1826  0.8181  0.6267
  122CHL1  H16A15236   2.264   3.802  13.492 -1.9129  0.8117 -1.3565
  122CHL1  H16B15237   2.301   3.630  13.461 -0.2130  0.7955  0.4904
  122CHL1   C1715238   2.481   3.764  13.473  0.2354  0.4326 -0.9824
  122CHL1   H1715239   2.537   3.669  13.459 -0.1999  0.2543 -1.6195
  122CHL1   C1315240   2.521   3.864  13.361  0.4273  0.7508 -0.0475
  122CHL1   C1815241   2.460   4.005  13.389  0.2370  0.6287  0.1800
  122CHL1  H18A15242   2.452   4.066  13.296 -0.9359 -1.1720 -0.9724
  122CHL1  H18B15243   2.355   3.991  13.420  0.9260 -2.6114  1.4057
  122CHL1  H18C15244   2.516   4.056  13.470 -1.8114 -1.3669  3.0060
  122CHL1   C1215245   2.671   3.870  13.329 -0.0984  0.1609 -0.1597
  122CHL1  H12A15246   2.721   3.918  13.416 -1.2779  1.5180 -0.1801
  122CHL1  H12B15247   2.715   3.768  13.329  1.5858  0.8422  1.2044
  122CHL1   C1115248   2.683   3.941  13.193 -0.0892 -0.7621  0.3406
  122CHL1  H11A15249   2.643   4.045  13.202 -4.0101 -1.9967 -0.7475
  122CHL1  H11B15250   2.793   3.948  13.179 -0.0916  3.2818  1.0152
  122CHL1    C915251   2.613   3.871  13.071  0.1543  0.4756 -0.0111
  122CHL1    H915252   2.650   3.766  13.070 -0.6153  0.1923  0.5062
  122CHL1   C1015253   2.643   3.924  12.932 -0.2582  0.3071  0.0408
  122CHL1   C1915254   2.644   4.081  12.935  0.0291  0.0581  0.3419
  122CHL1  H19A15255   2.736   4.123  12.982  0.5689  0.6073 -1.1152
  122CHL1  H19B15256   2.618   4.131  12.839 -2.0256  0.6500  1.1738
  122CHL1  H19C15257   2.555   4.106  12.995  0.6233  1.5297  0.6572
  122CHL1    C115258   2.789   3.871  12.901  0.3811  0.1651  0.7244
  122CHL1   H1A15259   2.853   3.904  12.985  1.0947  1.4199 -0.2618
  122CHL1   H1B15260   2.782   3.760  12.899 -1.1681  0.2337 -1.1839
  122CHL1    C215261   2.832   3.927  12.758  0.1594  0.5932 -0.4516
  122CHL1   H2A15262   2.931   3.889  12.726 -0.3788  0.7158 -2.3697
  122CHL1   H2B15263   2.831   4.037  12.774 -4.5362  0.6755  0.1493
  122CHL1   C2015264   2.504   3.799  13.620 -0.2366  0.1246  0.0286
  122CHL1   H2015265   2.436   3.884  13.641 -1.2240 -0.1626 -1.7659
  122CHL1   C2115266   2.646   3.845  13.642  0.4178  0.7747  0.5161
  122CHL1  H21A15267   2.659   3.947  13.601  1.1037  0.0224 -1.2519
  122CHL1  H21B15268   2.715   3.780  13.583 -1.1357  1.6765 -2.4903
  122CHL1  H21C15269   2.667   3.838  13.750 -0.5893  1.0109  0.7345
  122CHL1   C2215270   2.449   3.693  13.719 -0.1272  0.8478  0.0236
  122CHL1  H22A15271   2.349   3.660  13.684  0.3733  0.8012 -1.4408
  122CHL1  H22B15272   2.513   3.603  13.715  0.0042  0.9875 -1.5011
  122CHL1   C2315273   2.438   3.749  13.865 -0.3263  0.6097  0.1720
  122CHL1  H23A15274   2.514   3.829  13.883  0.0917  0.3937 -0.5892
  122CHL1  H23B15275   2.337   3.792  13.874 -0.8696 -0.3242 -1.1248
  122CHL1   C2415276   2.466   3.634  13.962 -0.1852  0.3271 -0.8267
  122CHL1  H24A15277   2.391   3.553  13.947  0.9787 -0.4784 -2.5392
  122CHL1  H24B15278   2.563   3.588  13.933  0.7636  2.5116 -1.3125
  122CHL1   C2515279   2.442   3.659  14.113 -0.1074  0.0162  0.1928
  122CHL1   H2515280   2.336   3.688  14.131 -1.2278 -2.7858 -1.3508
  122CHL1   C2615281   2.464   3.532  14.197 -0.3704 -0.1058 -0.0397
  122CHL1  H26A15282   2.448   3.558  14.304  1.0484  2.1177 -0.2939
  122CHL1  H26B15283   2.395   3.447  14.184 -0.7972  0.1417  0.5546
  122CHL1  H26C15284   2.568   3.497  14.180 -0.3666 -2.0871  3.1955
  122CHL1   C2715285   2.529   3.772  14.165  0.3051  0.2017  0.0416
  122CHL1  H27A15286   2.636   3.744  14.159  1.1790  3.1630  0.1769
  122CHL1  H27B15287   2.524   3.864  14.103  0.2629  0.6155  0.6481
  122CHL1  H27C15288   2.508   3.788  14.273  0.8853  1.2373  0.0105
  123CHL1    C315289   4.963   3.878  12.532  0.7407 -0.0957  0.3897
  123CHL1    H315290   4.895   3.966  12.530 -2.5652 -2.4384  0.2714
  123CHL1    O315291   4.983   3.826  12.406  0.0453 -0.1624  0.3437
  123CHL1   H3'15292   5.058   3.766  12.407  1.4342  1.5036  0.9688
  123CHL1    C415293   5.096   3.917  12.587 -0.5534  0.1371  0.8193
  123CHL1   H4A15294   5.167   3.832  12.592  1.8795  1.9674 -0.7903
  123CHL1   H4B15295   5.141   3.988  12.515 -1.0867  0.0242  0.3622
  123CHL1    C515296   5.084   3.966  12.725  0.4968  0.1421  0.4588
  123CHL1    C615297   5.122   4.087  12.763 -0.2392  0.2311  0.2190
  123CHL1    H615298   5.165   4.152  12.685 -0.3515 -0.6445 -0.5942
  123CHL1    C715299   5.109   4.134  12.905 -0.0572 -0.2687 -0.1415
  123CHL1   H7A15300   5.204   4.185  12.933 -1.2368  0.0767  3.7798
  123CHL1   H7B15301   5.024   4.205  12.917  2.1556  2.5811 -0.2170
  123CHL1    C815302   5.100   4.022  13.007  0.1257 -0.3525  0.2460
  123CHL1    H815303   5.200   3.975  12.997 -0.0555 -0.8752  0.8509
  123CHL1   C1415304   5.063   4.072  13.149  0.0141  0.1790  0.8668
  123CHL1   H1415305   4.967   4.125  13.132  1.0767  1.6982 -0.7553
  123CHL1   C1515306   5.157   4.171  13.208  0.3492 -0.4332 -0.4917
  123CHL1  H15A15307   5.262   4.137  13.195  0.0099 -0.8817 -2.3203
  123CHL1  H15B15308   5.139   4.272  13.166 -3.0201 -1.0711 -0.8826
  123CHL1   C1615309   5.121   4.171  13.357 -0.5297 -0.1443  0.0234
  123CHL1  H16A15310   5.221   4.167  13.405 -0.1464 -0.6289 -0.7780
  123CHL1  H16B15311   5.076   4.268  13.387  1.2910  0.6232  0.4536
  123CHL1   C1715312   5.022   4.054  13.381 -0.2660  0.2886 -0.4096
  123CHL1   H1715313   4.916   4.088  13.378  0.1888  2.0434  1.2160
  123CHL1   C1315314   5.038   3.966  13.255 -0.9764 -0.2253  0.4356
  123CHL1   C1815315   5.169   3.879  13.267  0.4453  0.1557 -0.5599
  123CHL1  H18A15316   5.197   3.838  13.168 -0.4398 -0.8359 -0.4291
  123CHL1  H18B15317   5.253   3.946  13.294 -0.7279  1.5598 -0.2580
  123CHL1  H18C15318   5.160   3.803  13.348  1.1582  0.0326 -0.5902
  123CHL1   C1215319   4.914   3.893  13.207  0.8261 -0.5442 -0.0075
  123CHL1  H12A15320   4.888   3.822  13.289 -0.4377  2.7293  2.6290
  123CHL1  H12B15321   4.831   3.964  13.192  1.1922 -0.3488 -1.2121
  123CHL1   C1115322   4.944   3.822  13.067  0.2410  0.1318  0.5141
  123CHL1  H11A15323   5.030   3.754  13.083  0.4952  0.1906 -0.4892
  123CHL1  H11B15324   4.857   3.766  13.029  1.6190 -1.4617 -0.4305
  123CHL1    C915325   4.987   3.931  12.957  0.1059  0.1664 -0.4086
  123CHL1    H915326   4.900   4.000  12.954 -0.0573 -0.0545 -0.7854
  123CHL1   C1015327   5.018   3.864  12.819  0.6140  0.0631 -0.1009
  123CHL1   C1915328   5.116   3.747  12.847 -0.0709  0.4912  0.0118
  123CHL1  H19A15329   5.158   3.697  12.757 -1.4339  0.0892 -0.4244
  123CHL1  H19B15330   5.204   3.790  12.900  1.2828  0.4716 -2.1096
  123CHL1  H19C15331   5.065   3.662  12.897  1.4526  0.4268  1.5614
  123CHL1    C115332   4.891   3.809  12.758  0.4289  0.2783 -0.2942
  123CHL1   H1A15333   4.861   3.725  12.825 -2.3481  1.6025  0.2798
  123CHL1   H1B15334   4.811   3.878  12.792 -2.6307 -3.9849  2.1253
  123CHL1    C215335   4.890   3.773  12.611  0.0199 -0.2028 -0.8649
  123CHL1   H2A15336   4.789   3.747  12.570  0.0132 -0.6795 -0.5590
  123CHL1   H2B15337   4.960   3.687  12.606 -0.6207 -1.0441  2.4139
  123CHL1   C2015338   5.062   3.990  13.508  0.0388  0.7792 -0.1061
  123CHL1   H2015339   5.167   3.953  13.506 -0.4639 -0.7361  0.6705
  123CHL1   C2115340   4.965   3.873  13.551  0.3237  0.1039  0.4306
  123CHL1  H21A15341   4.863   3.916  13.558  0.1703 -0.0562 -0.6892
  123CHL1  H21B15342   4.989   3.826  13.650  1.0898  1.5302  0.9553
  123CHL1  H21C15343   4.957   3.795  13.472 -0.5365 -0.5604  1.1502
  123CHL1   C2215344   5.063   4.102  13.623  0.1435  0.0236  0.4899
  123CHL1  H22A15345   5.151   4.168  13.609 -0.6821  1.1463  0.5007
  123CHL1  H22B15346   4.972   4.163  13.605 -0.8930 -1.6437 -0.2102
  123CHL1   C2315347   5.073   4.061  13.772 -0.4580  0.1043  0.2232
  123CHL1  H23A15348   5.072   4.146  13.843  0.8238  0.2213  0.1246
  123CHL1  H23B15349   4.980   4.002  13.790 -0.7341  0.8598  1.3319
  123CHL1   C2415350   5.187   3.962  13.804  0.4191  0.2452  0.1723
  123CHL1  H24A15351   5.161   3.866  13.755 -0.2320 -0.5194  1.9257
  123CHL1  H24B15352   5.287   4.003  13.781  0.1181  0.7152 -0.3167
  123CHL1   C2515353   5.200   3.936  13.957 -0.0507  0.1354 -0.3960
  123CHL1   H2515354   5.197   4.038  14.002 -0.0588  0.5532 -1.3287
  123CHL1   C2615355   5.075   3.868  14.015  0.2474 -0.6382  0.2421
  123CHL1  H26A15356   5.092   3.889  14.122  1.3652  0.6207 -0.1439
  123CHL1  H26B15357   4.972   3.905  13.995  0.5499 -0.2952 -0.7795
  123CHL1  H26C15358   5.080   3.758  13.997  1.3885 -0.8233  1.5935
  123CHL1   C2715359   5.330   3.856  13.995  0.9951 -0.1457  0.3184
  123CHL1  H27A15360   5.341   3.767  13.929  0.1934  1.2782 -1.8657
  123CHL1  H27B15361   5.428   3.905  13.976  0.7288  0.1807 -0.2500
  123CHL1  H27C15362   5.334   3.827  14.102 -0.4346 -0.5740  0.2757
  124CHL1    C315363   3.780   4.636  12.842  0.0611 -0.0916  0.8449
  124CHL1    H315364   3.887   4.663  12.827 -0.0250 -0.7421 -1.3711
  124CHL1    O315365   3.720   4.661  12.717 -0.0757  0.5633 -0.2851
  124CHL1   H3'15366   3.630   4.629  12.725  0.1822  0.0551  0.8505
  124CHL1    C415367   3.770   4.482  12.864 -0.9380 -0.8956 -0.2810
  124CHL1   H4A15368   3.663   4.450  12.859 -1.3320  0.5420 -2.5028
  124CHL1   H4B15369   3.822   4.433  12.779 -0.6979 -0.3743 -0.4348
  124CHL1    C515370   3.823   4.451  13.000  0.7067 -0.0301 -0.2133
  124CHL1    C615371   3.920   4.365  13.019 -0.1710 -0.4393 -0.5167
  124CHL1    H615372   3.958   4.307  12.934  0.6620 -0.0974 -0.3909
  124CHL1    C715373   3.975   4.328  13.157 -0.2041  0.0066  0.6761
  124CHL1   H7A15374   3.997   4.220  13.173  2.4843  0.5269  0.8887
  124CHL1   H7B15375   4.074   4.370  13.185 -0.6197  0.2232  1.8888
  124CHL1    C815376   3.885   4.374  13.275  0.3084 -0.4767 -1.1875
  124CHL1    H815377   3.800   4.303  13.275  1.2109 -1.6723 -3.6936
  124CHL1   C1415378   3.956   4.347  13.408  0.8271  0.3229 -0.2023
  124CHL1   H1415379   4.053   4.402  13.404  2.7193 -2.8260 -1.1697
  124CHL1   C1515380   3.992   4.202  13.452 -0.3469 -0.0059 -0.8113
  124CHL1  H15A15381   3.905   4.134  13.461 -0.9731  0.9450  0.6411
  124CHL1  H15B15382   4.071   4.161  13.385 -0.1691  0.8197 -1.1136
  124CHL1   C1615383   4.051   4.238  13.592 -0.2138  0.8040  0.4872
  124CHL1  H16A15384   4.024   4.156  13.661 -1.7354 -0.5683 -1.6118
  124CHL1  H16B15385   4.161   4.247  13.577  0.1830 -2.2674  0.9636
  124CHL1   C1715386   3.989   4.369  13.643 -0.3828  0.6774 -0.1207
  124CHL1   H1715387   4.063   4.452  13.640 -0.3005  0.6122  0.0739
  124CHL1   C1315388   3.883   4.402  13.526 -0.4327 -0.3336 -0.0029
  124CHL1   C1815389   3.751   4.337  13.554  0.1693 -0.4023 -0.4813
  124CHL1  H18A15390   3.687   4.328  13.463  0.8452 -0.3128 -0.9763
  124CHL1  H18B15391   3.775   4.232  13.581  0.8574  0.2528  1.6003
  124CHL1  H18C15392   3.694   4.387  13.635  3.1103 -0.3698  1.6879
  124CHL1   C1215393   3.863   4.552  13.507  0.4360  0.0369 -1.0408
  124CHL1  H12A15394   3.816   4.604  13.594 -0.5185  0.3604 -1.7382
  124CHL1  H12B15395   3.960   4.606  13.502  0.0073  1.2307  1.6294
  124CHL1   C1115396   3.790   4.583  13.379  0.6899 -0.4107  0.9937
  124CHL1  H11A15397   3.681   4.560  13.386 -0.0553  1.8462 -1.5355
  124CHL1  H11B15398   3.796   4.693  13.366 -0.9941 -0.3226  0.7365
  124CHL1    C915399   3.848   4.516  13.254  0.0686  0.2768 -0.2185
  124CHL1    H915400   3.947   4.566  13.245 -0.8458  2.9012  2.4288
  124CHL1   C1015401   3.767   4.530  13.117 -0.2236 -0.1752  0.0171
  124CHL1   C1915402   3.614   4.475  13.133 -1.1126 -0.4663 -0.0463
  124CHL1  H19A15403   3.552   4.504  13.046 -0.9499  0.6516  0.1933
  124CHL1  H19B15404   3.609   4.364  13.131 -2.8409 -0.4317 -2.8964
  124CHL1  H19C15405   3.557   4.506  13.223  0.6362 -1.8547  1.6387
  124CHL1    C115406   3.751   4.681  13.087  0.5629  0.3269  0.8908
  124CHL1   H1A15407   3.673   4.724  13.152 -1.3033 -0.8756 -0.4580
  124CHL1   H1B15408   3.843   4.738  13.112  0.1267  1.8175 -0.7158
  124CHL1    C215409   3.704   4.719  12.945  0.2225  0.2618  0.0009
  124CHL1   H2A15410   3.717   4.829  12.935  1.4615  0.0660 -0.8637
  124CHL1   H2B15411   3.596   4.693  12.944  0.2347 -0.5633  3.9656
  124CHL1   C2015412   3.923   4.366  13.783 -0.7815  0.6621 -0.3860
  124CHL1   H2015413   3.840   4.293  13.785  1.1809 -1.7122  0.3623
  124CHL1   C2115414   3.879   4.506  13.824  0.0210 -0.0869 -0.4689
  124CHL1  H21A15415   3.873   4.505  13.935 -2.1169  2.1363 -0.4749
  124CHL1  H21B15416   3.781   4.535  13.781  1.2573  0.4810 -3.0731
  124CHL1  H21C15417   3.959   4.574  13.786  0.0040 -0.5088 -1.2641
  124CHL1   C2215418   4.019   4.301  13.892 -0.2859 -0.3188  0.0543
  124CHL1  H22A15419   3.991   4.324  13.998  1.9395 -2.2680  1.1622
  124CHL1  H22B15420   4.025   4.192  13.871  2.3111  0.1542 -2.1495
  124CHL1   C2315421   4.165   4.369  13.897 -0.0128 -0.1617 -0.3124
  124CHL1  H23A15422   4.216   4.341  13.803 -0.0826 -0.4758 -0.2598
  124CHL1  H23B15423   4.156   4.477  13.921 -0.1609 -0.2953  0.2601
  124CHL1   C2415424   4.248   4.298  14.004  0.6317  0.5069 -0.1555
  124CHL1  H24A15425   4.211   4.321  14.106 -1.7745 -2.7656 -0.1175
  124CHL1  H24B15426   4.253   4.188  13.988  0.6808  0.5529 -0.4574
  124CHL1   C2515427   4.397   4.339  14.008 -0.5404 -0.2523 -0.2252
  124CHL1   H2515428   4.453   4.285  13.929  1.0878  0.4218  0.4094
  124CHL1   C2615429   4.426   4.488  14.016 -0.4284  0.1128 -0.1550
  124CHL1  H26A15430   4.536   4.504  14.017 -0.1555 -1.6261  0.3034
  124CHL1  H26B15431   4.376   4.539  13.931  2.4517 -0.7507 -2.5172
  124CHL1  H26C15432   4.383   4.523  14.112 -1.2746 -1.8783  0.2359
  124CHL1   C2715433   4.455   4.280  14.137  0.4242  0.5155 -0.2788
  124CHL1  H27A15434   4.460   4.169  14.127  2.1960  0.5963 -0.5554
  124CHL1  H27B15435   4.561   4.313  14.144  1.6759 -2.8902 -0.8819
  124CHL1  H27C15436   4.398   4.309  14.228 -0.7876 -0.3721 -0.7266
  125CHL1    C315437   4.207   4.518  12.643 -0.0408  0.5251  0.5488
  125CHL1    H315438   4.097   4.518  12.657 -0.0450 -0.8547  0.6148
  125CHL1    O315439   4.241   4.474  12.512 -0.2696 -0.0863  0.3357
  125CHL1   H3'15440   4.336   4.482  12.505 -0.4531  2.1878 -0.8266
  125CHL1    C415441   4.266   4.653  12.670  0.3183 -0.3086 -0.7366
  125CHL1   H4A15442   4.373   4.652  12.640  0.1715 -1.3148 -1.2625
  125CHL1   H4B15443   4.219   4.732  12.608 -1.3501 -2.3379 -2.1866
  125CHL1    C515444   4.254   4.703  12.821  0.3824 -0.4542 -0.7530
  125CHL1    C615445   4.187   4.820  12.847  0.5894 -0.1691 -0.0069
  125CHL1    H615446   4.141   4.878  12.767  1.1416  1.2578  0.6814
  125CHL1    C715447   4.178   4.880  12.989  0.3323  0.7593 -0.4473
  125CHL1   H7A15448   4.197   4.990  12.994 -0.0176  0.7867  0.4260
  125CHL1   H7B15449   4.074   4.863  13.025  0.2482 -0.1802 -1.1097
  125CHL1    C815450   4.265   4.797  13.092  0.3559  0.2106 -0.9070
  125CHL1    H815451   4.365   4.835  13.063  0.6349  1.0885  1.0750
  125CHL1   C1415452   4.220   4.831  13.236 -0.5429  0.0558  0.0263
  125CHL1   H1415453   4.115   4.794  13.242  0.0764 -1.6484  1.2448
  125CHL1   C1515454   4.217   4.986  13.278  0.0702 -0.0030 -0.4347
  125CHL1  H15A15455   4.307   5.039  13.239  0.1613 -0.2853 -0.6168
  125CHL1  H15B15456   4.132   5.033  13.225 -0.4592  0.6169  0.9138
  125CHL1   C1615457   4.202   4.975  13.433 -0.0380  0.6264  0.7303
  125CHL1  H16A15458   4.284   5.041  13.468 -0.1360  0.0937  2.0140
  125CHL1  H16B15459   4.103   5.007  13.470 -0.1027  1.1688  0.1082
  125CHL1   C1715460   4.233   4.831  13.474 -0.7353  1.2001 -0.2951
  125CHL1   H1715461   4.140   4.774  13.494 -0.4044  0.9134  0.4512
  125CHL1   C1315462   4.297   4.770  13.347 -0.4561  0.4426 -0.0240
  125CHL1   C1815463   4.440   4.815  13.344  0.7511 -0.1825 -0.4193
  125CHL1  H18A15464   4.460   4.924  13.354  1.1989 -0.2857 -0.1511
  125CHL1  H18B15465   4.498   4.768  13.426 -2.6472  0.0347  2.3686
  125CHL1  H18C15466   4.493   4.779  13.253  0.9707 -0.4866 -0.1695
  125CHL1   C1215467   4.277   4.617  13.323  1.4212 -0.7983  0.3361
  125CHL1  H12A15468   4.317   4.555  13.406  0.3591 -2.1804 -0.1451
  125CHL1  H12B15469   4.167   4.597  13.318  1.5050 -1.0678 -0.5418
  125CHL1   C1115470   4.335   4.574  13.188 -0.1413 -0.0805 -0.1768
  125CHL1  H11A15471   4.445   4.579  13.197 -0.2649 -0.1106  1.7384
  125CHL1  H11B15472   4.318   4.465  13.179  1.0403 -0.2954  0.0911
  125CHL1    C915473   4.262   4.642  13.072 -0.0140 -0.0392  0.0050
  125CHL1    H915474   4.153   4.619  13.073 -0.4235  1.7599  0.7365
  125CHL1   C1015475   4.305   4.597  12.923  0.2270 -0.2135 -0.6019
  125CHL1   C1915476   4.459   4.589  12.918  0.4151 -0.2024 -0.4658
  125CHL1  H19A15477   4.511   4.680  12.956 -0.9423 -0.0650  1.1458
  125CHL1  H19B15478   4.496   4.507  12.983  1.0003  0.3352 -0.1069
  125CHL1  H19C15479   4.488   4.582  12.811  0.3287 -0.6922 -0.4567
  125CHL1    C115480   4.248   4.464  12.886 -0.4645  0.2784  0.2609
  125CHL1   H1A15481   4.279   4.379  12.950  0.1474  0.6808  0.5055
  125CHL1   H1B15482   4.137   4.456  12.885 -0.4858  0.1998 -1.5860
  125CHL1    C215483   4.275   4.421  12.739 -0.4176 -0.3755 -0.0191
  125CHL1   H2A15484   4.229   4.320  12.730 -2.0159  0.2975  0.2451
  125CHL1   H2B15485   4.384   4.415  12.718 -0.1544 -0.4552  1.2816
  125CHL1   C2015486   4.308   4.835  13.611  0.2455 -0.2771 -0.0825
  125CHL1   H2015487   4.401   4.894  13.598  0.3480 -0.3511  0.2980
  125CHL1   C2115488   4.345   4.693  13.661  0.2164 -0.3933 -0.1310
  125CHL1  H21A15489   4.421   4.639  13.602  1.7435  1.2034  0.2990
  125CHL1  H21B15490   4.251   4.633  13.656 -1.1785  1.7592 -1.3769
  125CHL1  H21C15491   4.386   4.703  13.764  0.6470  2.9941 -0.5135
  125CHL1   C2215492   4.235   4.916  13.728 -1.1421  0.2920 -0.4143
  125CHL1  H22A15493   4.297   4.910  13.820  0.9779  0.2484 -1.7913
  125CHL1  H22B15494   4.250   5.025  13.714  5.4436 -0.3221 -1.0921
  125CHL1   C2315495   4.089   4.870  13.754  0.0238  0.3723 -0.8812
  125CHL1  H23A15496   4.030   4.866  13.660 -0.7865  2.4272 -0.4968
  125CHL1  H23B15497   4.105   4.773  13.806  0.7635  0.1046 -1.5771
  125CHL1   C2415498   4.014   4.964  13.853 -0.0597  0.1561  0.5851
  125CHL1  H24A15499   4.076   4.983  13.944  0.1764  0.1974  0.4158
  125CHL1  H24B15500   3.989   5.061  13.805  0.3342 -0.6204 -1.2704
  125CHL1   C2515501   3.879   4.907  13.900  0.0405  0.0086 -0.6957
  125CHL1   H2515502   3.888   4.802  13.933  0.8160  0.1475 -0.4291
  125CHL1   C2615503   3.832   5.002  14.014 -0.2320 -0.1331 -0.5343
  125CHL1  H26A15504   3.833   5.109  13.984 -1.2200  0.7982  2.3799
  125CHL1  H26B15505   3.733   4.977  14.057 -0.1790 -0.7567 -0.7639
  125CHL1  H26C15506   3.904   4.997  14.099  1.1063 -1.6028 -1.7038
  125CHL1   C2715507   3.770   4.908  13.788 -0.3092  0.0748 -0.2153
  125CHL1  H27A15508   3.675   4.872  13.834  0.3079 -0.0350  1.0243
  125CHL1  H27B15509   3.768   5.014  13.757  0.2975  0.7287  1.7810
  125CHL1  H27C15510   3.795   4.845  13.700  2.3008 -0.6881  0.9714
  126CHL1    C315511   3.138   5.382  12.839 -0.5058  0.5875 -0.6237
  126CHL1    H315512   3.029   5.399  12.848 -0.3565  1.0780  0.4639
  126CHL1    O315513   3.194   5.458  12.736 -0.2289  0.9762  0.1878
  126CHL1   H3'15514   3.285   5.434  12.750 -0.8007 -3.3493 -2.0753
  126CHL1    C415515   3.214   5.413  12.970  0.7673 -0.2817  0.0582
  126CHL1   H4A15516   3.322   5.390  12.961  0.8165  0.1573 -0.5511
  126CHL1   H4B15517   3.201   5.524  12.977 -4.4644 -0.4466 -2.4272
  126CHL1    C515518   3.147   5.342  13.086  0.0381  0.3819 -0.8132
  126CHL1    C615519   3.084   5.406  13.182  0.7102 -0.4112 -0.3426
  126CHL1    H615520   3.074   5.515  13.171  2.3201 -0.3468 -1.6460
  126CHL1    C715521   2.999   5.343  13.283 -0.1980  0.3571  0.1853
  126CHL1   H7A15522   3.020   5.388  13.382  1.9017 -2.0597  0.9423
  126CHL1   H7B15523   2.892   5.351  13.253 -0.6303 -1.1614  1.1937
  126CHL1    C815524   3.036   5.188  13.305  1.2719 -0.7541 -0.3284
  126CHL1    H815525   3.128   5.185  13.366  0.3553  0.0866  1.1395
  126CHL1   C1415526   2.919   5.122  13.383 -0.1389  0.3395  0.0134
  126CHL1   H1415527   2.828   5.128  13.319 -0.4703 -0.8852  0.3283
  126CHL1   C1515528   2.884   5.183  13.518  0.1434  0.2387  0.1320
  126CHL1  H15A15529   2.979   5.194  13.574 -1.4105 -2.9489  3.8537
  126CHL1  H15B15530   2.845   5.286  13.504  1.3340  0.4942 -1.6413
  126CHL1   C1615531   2.795   5.078  13.584 -0.4430 -0.1114  0.3914
  126CHL1  H16A15532   2.852   5.066  13.678  0.3996  0.4502 -0.0318
  126CHL1  H16B15533   2.694   5.114  13.612 -0.2337  1.5719 -0.8597
  126CHL1   C1715534   2.802   4.950  13.497  0.2869  0.5099  0.2967
  126CHL1   H1715535   2.726   4.956  13.416  0.3838  1.2528  0.2591
  126CHL1   C1315536   2.937   4.970  13.408 -0.7233  0.6302  0.1834
  126CHL1   C1815537   3.064   4.944  13.489  0.0217 -0.1280  0.3625
  126CHL1  H18A15538   3.052   4.984  13.592  0.3063 -1.8333  1.0847
  126CHL1  H18B15539   3.069   4.834  13.499  0.8196 -0.1952 -0.5774
  126CHL1  H18C15540   3.150   4.995  13.439  0.6601 -0.3936  1.1602
  126CHL1   C1215541   2.949   4.905  13.275 -0.3900  0.0189  0.8869
  126CHL1  H12A15542   2.976   4.799  13.296 -0.2938 -0.5897 -1.8692
  126CHL1  H12B15543   2.854   4.905  13.218  0.7985  1.0057 -1.2430
  126CHL1   C1115544   3.061   4.965  13.185 -0.5542 -0.6547  0.6594
  126CHL1  H11A15545   3.164   4.934  13.213 -0.1427 -0.5110 -0.6065
  126CHL1  H11B15546   3.041   4.929  13.082 -0.1525  1.7678 -0.3544
  126CHL1    C915547   3.047   5.122  13.170  0.8276 -0.8954  1.0984
  126CHL1    H915548   2.949   5.132  13.119  0.2044 -1.5646  2.1370
  126CHL1   C1015549   3.154   5.184  13.067  0.0137 -0.3285  0.2266
  126CHL1   C1915550   3.300   5.147  13.107 -0.5545  0.6360  0.7344
  126CHL1  H19A15551   3.316   5.189  13.208 -1.4244  1.5146  0.5239
  126CHL1  H19B15552   3.305   5.036  13.102 -1.0336  0.6462 -0.8743
  126CHL1  H19C15553   3.376   5.173  13.030 -0.0747 -0.4997  0.8026
  126CHL1    C115554   3.127   5.130  12.917 -0.0042 -0.5336  0.0730
  126CHL1   H1A15555   3.190   5.041  12.894  1.1267  0.1269  0.5371
  126CHL1   H1B15556   3.019   5.104  12.911 -0.4956  1.4186 -0.2552
  126CHL1    C215557   3.173   5.235  12.806 -0.0677  0.1401 -0.0846
  126CHL1   H2A15558   3.128   5.214  12.706  0.5338 -0.0336 -0.3223
  126CHL1   H2B15559   3.283   5.228  12.812 -0.0314 -0.2725 -1.0549
  126CHL1   C2015560   2.784   4.834  13.589 -0.4157  0.1097  0.1359
  126CHL1   H2015561   2.864   4.822  13.665 -1.3044  3.1480  1.6864
  126CHL1   C2115562   2.801   4.709  13.492 -0.2559  0.3390 -0.0973
  126CHL1  H21A15563   2.906   4.677  13.479 -0.9420 -2.4105  0.3666
  126CHL1  H21B15564   2.755   4.725  13.392  0.3194  1.0755 -0.2514
  126CHL1  H21C15565   2.748   4.623  13.540  1.8471 -1.8503 -1.4577
  126CHL1   C2215566   2.653   4.823  13.677 -0.2344 -0.3141 -0.1567
  126CHL1  H22A15567   2.623   4.929  13.692  0.6418  0.1094 -1.2018
  126CHL1  H22B15568   2.568   4.773  13.627 -0.7644  1.0415 -0.6715
  126CHL1   C2315569   2.685   4.755  13.809  0.2846 -0.3543 -0.0099
  126CHL1  H23A15570   2.733   4.658  13.783  1.0462  0.6787 -2.7749
  126CHL1  H23B15571   2.758   4.818  13.864  0.4323 -0.4338 -0.1120
  126CHL1   C2415572   2.552   4.739  13.891 -0.3167 -0.5955  0.1399
  126CHL1  H24A15573   2.502   4.835  13.914 -0.8342 -0.9935  0.7376
  126CHL1  H24B15574   2.477   4.690  13.825 -1.5376  0.0231  1.0276
  126CHL1   C2515575   2.557   4.663  14.028 -0.5044 -0.2820  0.3297
  126CHL1   H2515576   2.573   4.555  14.008 -0.2751 -0.1003 -0.5331
  126CHL1   C2615577   2.671   4.706  14.118 -0.2854  0.2113  0.5294
  126CHL1  H26A15578   2.770   4.693  14.068 -0.0468  2.8727  0.1381
  126CHL1  H26B15579   2.658   4.812  14.150  1.0199  0.6319 -0.2335
  126CHL1  H26C15580   2.676   4.646  14.212 -0.0326  0.5122  0.7120
  126CHL1   C2715581   2.419   4.679  14.098 -0.2358  0.3081 -0.0880
  126CHL1  H27A15582   2.412   4.610  14.185  1.7211 -0.0604 -0.1771
  126CHL1  H27B15583   2.393   4.783  14.130 -1.1460  0.0701 -0.0159
  126CHL1  H27C15584   2.347   4.648  14.019  0.3714  0.4127 -0.6849
  127CHL1    C315585   3.802   6.394  12.856  0.3268 -0.4182  0.3790
  127CHL1    H315586   3.714   6.328  12.841 -0.2937  0.5306 -0.2713
  127CHL1    O315587   3.890   6.384  12.741  0.2794  0.0994 -0.4727
  127CHL1   H3'15588   3.965   6.438  12.765  0.1454  0.6780 -1.2832
  127CHL1    C415589   3.739   6.540  12.869 -0.5742  0.1747 -0.2288
  127CHL1   H4A15590   3.825   6.611  12.871 -1.1083  0.8187  0.6326
  127CHL1   H4B15591   3.687   6.558  12.773 -1.4129  2.0336  0.5197
  127CHL1    C515592   3.647   6.554  12.988 -1.1096  0.1693 -0.7710
  127CHL1    C615593   3.520   6.585  12.974  0.2656 -0.0908 -1.2353
  127CHL1    H615594   3.480   6.606  12.874  0.2620 -0.4944 -1.3202
  127CHL1    C715595   3.424   6.595  13.090  0.7235  0.0876  0.5265
  127CHL1   H7A15596   3.338   6.664  13.075 -1.0101 -1.6001  2.1834
  127CHL1   H7B15597   3.371   6.498  13.082  0.0490  0.5523 -1.3296
  127CHL1    C815598   3.493   6.611  13.230  0.1702  0.1256  0.2373
  127CHL1    H815599   3.528   6.715  13.241  0.8949 -0.2328  1.6022
  127CHL1   C1415600   3.402   6.579  13.345 -0.0474 -0.4141  0.0285
  127CHL1   H1415601   3.378   6.470  13.340  0.6685 -0.6002  0.4961
  127CHL1   C1515602   3.266   6.644  13.360  0.8300 -0.3523 -0.5403
  127CHL1  H15A15603   3.273   6.753  13.343  0.7216 -0.3038 -0.2807
  127CHL1  H15B15604   3.195   6.599  13.287 -0.0497  0.3731 -0.1601
  127CHL1   C1615605   3.217   6.597  13.502 -0.3747 -0.1938  0.0566
  127CHL1  H16A15606   3.195   6.691  13.557  0.8308 -0.0137  0.2622
  127CHL1  H16B15607   3.134   6.526  13.518 -1.1807  0.9614  1.2858
  127CHL1   C1715608   3.340   6.539  13.576  0.4956 -0.3469  0.3857
  127CHL1   H1715609   3.339   6.428  13.575 -1.8055 -0.3810  0.9120
  127CHL1   C1315610   3.457   6.580  13.489 -0.7113 -0.1567  0.2733
  127CHL1   C1815611   3.495   6.724  13.522  0.1563  0.0727 -0.0605
  127CHL1  H18A15612   3.550   6.762  13.434  1.1593  0.7710  0.8346
  127CHL1  H18B15613   3.403   6.783  13.545 -0.8682 -1.6694  0.5126
  127CHL1  H18C15614   3.553   6.721  13.617  1.9699 -1.9773 -1.1540
  127CHL1   C1215615   3.577   6.479  13.488 -0.3644 -0.7051  0.1564
  127CHL1  H12A15616   3.622   6.473  13.590  0.3771 -0.8662 -0.1714
  127CHL1  H12B15617   3.538   6.378  13.464  0.7095 -1.3001  0.8439
  127CHL1   C1115618   3.676   6.506  13.377  0.0889 -0.8329  0.0796
  127CHL1  H11A15619   3.710   6.609  13.399 -4.2324  0.8670 -0.3270
  127CHL1  H11B15620   3.766   6.440  13.383  0.6305 -0.4263 -2.2312
  127CHL1    C915621   3.609   6.509  13.238 -0.0477 -0.6290  0.1736
  127CHL1    H915622   3.548   6.417  13.225 -3.0440  1.2109  0.1469
  127CHL1   C1015623   3.710   6.519  13.125  0.1238 -0.0945 -0.0150
  127CHL1   C1915624   3.802   6.642  13.157 -0.6656  0.2658 -0.2637
  127CHL1  H19A15625   3.737   6.729  13.182 -1.6744 -0.5337 -0.0327
  127CHL1  H19B15626   3.875   6.622  13.238  0.2273 -0.1759 -1.1534
  127CHL1  H19C15627   3.872   6.674  13.077 -1.5998 -1.5746 -1.9000
  127CHL1    C115628   3.780   6.382  13.098  0.9899 -0.0613 -0.4014
  127CHL1   H1A15629   3.830   6.346  13.191  0.9340  2.0219  0.4844
  127CHL1   H1B15630   3.701   6.304  13.088  0.4700  0.2985  0.7441
  127CHL1    C215631   3.874   6.364  12.982  0.3819 -0.1073  0.7365
  127CHL1   H2A15632   3.915   6.261  12.983 -0.9331 -0.7100 -1.6811
  127CHL1   H2B15633   3.967   6.426  12.981 -0.0885  0.6672  1.9386
  127CHL1   C2015634   3.346   6.572  13.723  0.5141  0.3422 -0.4899
  127CHL1   H2015635   3.353   6.682  13.728 -1.7635  0.4762  1.4919
  127CHL1   C2115636   3.462   6.493  13.797  0.4428 -0.6156 -0.3608
  127CHL1  H21A15637   3.485   6.397  13.745  4.1155  0.1121 -0.3478
  127CHL1  H21B15638   3.462   6.484  13.908 -0.7701  0.3826 -0.2535
  127CHL1  H21C15639   3.554   6.553  13.783 -1.0053  1.5173 -1.2054
  127CHL1   C2215640   3.212   6.542  13.790 -1.2480 -0.1254  0.1744
  127CHL1  H22A15641   3.119   6.554  13.730 -1.4461 -1.9600  0.0625
  127CHL1  H22B15642   3.223   6.433  13.805 -0.7444 -0.2543 -0.9931
  127CHL1   C2315643   3.180   6.601  13.928 -0.1416  0.3251  0.2089
  127CHL1  H23A15644   3.104   6.541  13.981 -0.4352  0.4292 -0.0886
  127CHL1  H23B15645   3.266   6.587  13.996 -0.3057 -3.7428 -0.1503
  127CHL1   C2415646   3.117   6.744  13.931  0.2086 -0.0463 -0.2466
  127CHL1  H24A15647   3.168   6.805  13.854  0.1303  0.6499  0.2381
  127CHL1  H24B15648   3.009   6.734  13.906 -0.0716 -0.8200  1.1961
  127CHL1   C2515649   3.137   6.825  14.060  0.2437  0.0279 -0.1558
  127CHL1   H2515650   3.123   6.749  14.141  3.3464  1.0617  1.5258
  127CHL1   C2615651   3.281   6.877  14.062  0.1792 -0.3217 -0.1391
  127CHL1  H26A15652   3.296   6.906  14.169  0.2622  1.6517 -0.6496
  127CHL1  H26B15653   3.357   6.807  14.023  0.4955 -0.0145 -0.0833
  127CHL1  H26C15654   3.284   6.968  13.999 -3.1590 -0.2775 -0.4343
  127CHL1   C2715655   3.037   6.946  14.077  0.1749 -0.2607  0.6866
  127CHL1  H27A15656   2.930   6.918  14.064 -0.8294  2.9745  1.0789
  127CHL1  H27B15657   3.039   6.993  14.177  0.6526  0.2954  0.4224
  127CHL1  H27C15658   3.061   7.021  13.999  1.0364 -2.0971 -0.9013
  128CHL1    C315659   2.143   2.114  12.680  0.4823  0.2138 -0.6702
  128CHL1    H315660   2.174   2.218  12.706 -0.0799 -0.0652  1.2867
  128CHL1    O315661   2.095   2.111  12.545  0.1311  0.2974  0.3284
  128CHL1   H3'15662   2.091   2.019  12.521  0.4519 -0.2968  2.3817
  128CHL1    C415663   2.280   2.034  12.684  0.4236  0.3870 -0.0844
  128CHL1   H4A15664   2.266   1.931  12.646  0.4430  0.0521  0.7991
  128CHL1   H4B15665   2.353   2.089  12.621 -0.9711  1.4267 -0.8522
  128CHL1    C515666   2.327   2.019  12.826 -0.2942 -0.2760  0.0813
  128CHL1    C615667   2.455   2.050  12.860 -0.3991  0.3371  0.7513
  128CHL1    H615668   2.526   2.092  12.788 -0.1222 -3.0779 -1.1751
  128CHL1    C715669   2.525   2.021  12.990 -0.2309 -0.1739 -0.4430
  128CHL1   H7A15670   2.634   1.996  12.986  0.2327  1.5953  0.0832
  128CHL1   H7B15671   2.528   2.112  13.053 -3.0967  0.6044 -1.2951
  128CHL1    C815672   2.440   1.921  13.073  0.8547  0.0365  0.3746
  128CHL1    H815673   2.456   1.827  13.016 -0.0359 -0.3875  0.8058
  128CHL1   C1415674   2.500   1.899  13.214  0.1879  0.3742  0.0848
  128CHL1   H1415675   2.486   1.998  13.263  0.4853 -0.1405  1.2419
  128CHL1   C1515676   2.652   1.873  13.227  0.0414  0.0455 -0.2879
  128CHL1  H15A15677   2.680   1.799  13.150  0.5674  0.9115 -0.9431
  128CHL1  H15B15678   2.709   1.963  13.195  2.1673 -0.5510  1.5420
  128CHL1   C1615679   2.669   1.812  13.368 -0.1948  0.0048  0.0707
  128CHL1  H16A15680   2.710   1.709  13.361 -0.9266 -0.8304  4.5823
  128CHL1  H16B15681   2.725   1.874  13.442 -1.8160 -0.7696  2.0358
  128CHL1   C1715682   2.521   1.795  13.425  0.0977 -0.0975  0.3262
  128CHL1   H1715683   2.504   1.884  13.488  0.1819  0.8807 -0.9971
  128CHL1   C1315684   2.420   1.798  13.304  0.0096  0.1736  0.6299
  128CHL1   C1815685   2.419   1.659  13.233  0.1837 -0.8039  0.4582
  128CHL1  H18A15686   2.404   1.671  13.123  3.2439  0.1970  0.0434
  128CHL1  H18B15687   2.523   1.622  13.244  2.1276  3.7352 -0.3669
  128CHL1  H18C15688   2.346   1.590  13.280  0.4321 -1.5963 -0.3000
  128CHL1   C1215689   2.279   1.849  13.327  0.3434  0.1187 -0.1591
  128CHL1  H12A15690   2.211   1.781  13.382 -1.2763  1.9608  0.2544
  128CHL1  H12B15691   2.275   1.951  13.372  1.0702  0.0741  0.0186
  128CHL1   C1115692   2.213   1.866  13.178 -0.6106  0.2891 -0.6271
  128CHL1  H11A15693   2.210   1.763  13.136  1.8485 -0.2839  0.4581
  128CHL1  H11B15694   2.108   1.900  13.189 -0.2792  0.5368  3.3020
  128CHL1    C915695   2.289   1.952  13.076  0.0184  0.1571 -0.2103
  128CHL1    H915696   2.288   2.058  13.108 -2.7979  0.6865 -1.7180
  128CHL1   C1015697   2.225   1.958  12.930 -0.0359 -0.2702 -0.5096
  128CHL1   C1915698   2.191   1.815  12.878 -0.0441  0.3902 -0.3507
  128CHL1  H19A15699   2.154   1.805  12.774 -2.1071 -1.0007  0.4693
  128CHL1  H19B15700   2.278   1.746  12.888  1.0249  1.9291  2.1609
  128CHL1  H19C15701   2.104   1.780  12.938  1.4176 -1.1816  0.9651
  128CHL1    C115702   2.090   2.036  12.921 -0.4544 -0.3516  0.0844
  128CHL1   H1A15703   2.007   1.985  12.974 -0.8849  1.3421  1.1246
  128CHL1   H1B15704   2.105   2.131  12.976  1.4407  0.0421 -1.0245
  128CHL1    C215705   2.032   2.067  12.781 -0.2270 -0.3468  0.0971
  128CHL1   H2A15706   1.959   2.150  12.793 -0.9877 -0.5096 -2.6361
  128CHL1   H2B15707   1.982   1.975  12.744 -1.2598 -0.1039  0.8566
  128CHL1   C2015708   2.506   1.672  13.513  0.0069  0.0471  0.5563
  128CHL1   H2015709   2.514   1.584  13.447 -0.6134  0.1061  0.4009
  128CHL1   C2115710   2.362   1.665  13.568 -0.4021  0.1281 -0.1840
  128CHL1  H21A15711   2.287   1.632  13.493 -0.9800  0.2276  0.3453
  128CHL1  H21B15712   2.333   1.762  13.613  2.1755  0.8103  0.1832
  128CHL1  H21C15713   2.347   1.592  13.650 -1.3203 -0.9967 -1.3086
  128CHL1   C2215714   2.614   1.678  13.616 -0.1253 -0.3461  0.0362
  128CHL1  H22A15715   2.715   1.685  13.570 -0.1686  1.1575  0.0944
  128CHL1  H22B15716   2.600   1.770  13.677  0.5309 -0.4465  0.3439
  128CHL1   C2315717   2.615   1.560  13.710  0.5214 -0.2631  0.1385
  128CHL1  H23A15718   2.707   1.570  13.770  1.7455 -0.9574 -1.5246
  128CHL1  H23B15719   2.523   1.558  13.772  0.5504 -1.1289  0.1660
  128CHL1   C2415720   2.638   1.433  13.636 -0.5953  0.1452  0.1545
  128CHL1  H24A15721   2.556   1.413  13.563 -0.5076  3.3893 -1.0001
  128CHL1  H24B15722   2.734   1.433  13.580 -1.2249  0.5307 -0.9475
  128CHL1   C2515723   2.657   1.311  13.730 -0.0588  0.6935  0.8881
  128CHL1   H2515724   2.762   1.321  13.765 -0.1751  0.9385  1.1730
  128CHL1   C2615725   2.561   1.297  13.841  0.0739 -0.7240  0.5227
  128CHL1  H26A15726   2.456   1.315  13.808 -0.4663 -1.5881  1.7046
  128CHL1  H26B15727   2.570   1.197  13.888  0.3754 -0.3649  1.2439
  128CHL1  H26C15728   2.567   1.380  13.914 -0.5495 -1.3116  1.2614
  128CHL1   C2715729   2.660   1.180  13.651  0.1003  0.0154 -0.6343
  128CHL1  H27A15730   2.694   1.101  13.722 -0.6023  1.6607  1.6449
  128CHL1  H27B15731   2.558   1.154  13.617 -0.4671  0.7997  0.4425
  128CHL1  H27C15732   2.721   1.187  13.558  0.2280  1.0258 -0.4874
  129CHL1    C315733   6.481   5.889  12.822  0.7531 -0.9195  0.5887
  129CHL1    H315734   6.584   5.930  12.824  0.6703 -0.5439 -0.9194
  129CHL1    O315735   6.459   5.847  12.693  0.3492 -0.0122 -0.3214
  129CHL1   H3'15736   6.389   5.783  12.702  0.1994 -0.0083 -1.3241
  129CHL1    C415737   6.442   5.787  12.927 -0.6830  0.4018  0.6952
  129CHL1   H4A15738   6.344   5.740  12.904  0.8140 -2.0295 -1.3752
  129CHL1   H4B15739   6.517   5.705  12.920 -0.2489  0.7469  1.2658
  129CHL1    C515740   6.446   5.835  13.069 -0.2657 -0.8438 -0.3908
  129CHL1    C615741   6.523   5.777  13.166 -0.1319  0.0775  0.1690
  129CHL1    H615742   6.577   5.683  13.146  1.6216  1.1467 -0.3376
  129CHL1    C715743   6.526   5.823  13.303  0.1656 -0.8963 -0.3304
  129CHL1   H7A15744   6.498   5.749  13.381 -1.6999 -0.1936 -0.2934
  129CHL1   H7B15745   6.628   5.861  13.325  0.0821 -1.2353  0.7187
  129CHL1    C815746   6.415   5.932  13.341 -0.1004 -0.4404  0.8416
  129CHL1    H815747   6.320   5.876  13.346 -0.9196  0.5316 -2.0035
  129CHL1   C1415748   6.443   6.000  13.474  0.6113  0.8171  0.2632
  129CHL1   H1415749   6.535   6.061  13.469  0.5602  0.8705 -0.0918
  129CHL1   C1515750   6.481   5.908  13.594 -0.5321  0.6649  0.2719
  129CHL1  H15A15751   6.417   5.818  13.608  1.4858 -0.6414  1.6543
  129CHL1  H15B15752   6.585   5.874  13.575 -0.6279  0.5610 -0.0541
  129CHL1   C1615753   6.472   6.000  13.708  0.5695 -0.1506 -0.4483
  129CHL1  H16A15754   6.401   5.955  13.780 -0.0248 -0.7066 -1.3727
  129CHL1  H16B15755   6.568   6.021  13.761  0.1822  0.8395 -0.1202
  129CHL1   C1715756   6.404   6.137  13.653 -0.0732 -0.3429  0.6533
  129CHL1   H1715757   6.480   6.212  13.624 -0.4571 -0.4389 -0.7053
  129CHL1   C1315758   6.338   6.101  13.519  0.2855  1.4891  0.0035
  129CHL1   C1815759   6.205   6.024  13.558  0.3874 -0.5664  0.3549
  129CHL1  H18A15760   6.168   5.965  13.472  0.7510 -2.7679  1.6431
  129CHL1  H18B15761   6.214   5.962  13.650  1.5342 -2.8586 -1.2183
  129CHL1  H18C15762   6.126   6.098  13.584  0.1294 -0.1631 -1.4632
  129CHL1   C1215763   6.326   6.212  13.409  0.2509  1.0509 -0.0953
  129CHL1  H12A15764   6.252   6.292  13.431 -0.9122  0.3837 -1.3819
  129CHL1  H12B15765   6.426   6.258  13.395  1.0755 -0.9531 -1.3938
  129CHL1   C1115766   6.285   6.146  13.277 -0.3223  0.2392 -0.0588
  129CHL1  H11A15767   6.184   6.098  13.278  0.8224 -2.3950 -0.6062
  129CHL1  H11B15768   6.280   6.221  13.195  1.9306  0.0827 -0.3999
  129CHL1    C915769   6.400   6.038  13.230  0.8178  0.6588  0.3167
  129CHL1    H915770   6.489   6.101  13.208  0.3033  1.4278  0.4011
  129CHL1   C1015771   6.362   5.966  13.099  0.0462  0.1441  0.0932
  129CHL1   C1915772   6.217   5.909  13.098  0.6338  0.1534 -0.1232
  129CHL1  H19A15773   6.139   5.985  13.077  0.1763 -0.7279 -1.7245
  129CHL1  H19B15774   6.204   5.828  13.024  0.5989 -0.9520  1.0496
  129CHL1  H19C15775   6.197   5.849  13.190 -0.7395 -1.5222 -1.4408
  129CHL1    C115776   6.383   6.067  12.980 -0.0386 -0.9616  0.1884
  129CHL1   H1A15777   6.303   6.143  12.986 -0.1558 -0.8130 -2.3180
  129CHL1   H1B15778   6.478   6.124  12.990 -0.9502  0.2401  2.7532
  129CHL1    C215779   6.385   6.013  12.841  0.2723 -0.2645 -0.5576
  129CHL1   H2A15780   6.417   6.091  12.769  2.3777 -1.9112 -1.5043
  129CHL1   H2B15781   6.284   5.977  12.808  0.8232 -0.4670 -2.1317
  129CHL1   C2015782   6.312   6.205  13.756  0.0647 -0.4592 -0.4003
  129CHL1   H2015783   6.220   6.143  13.763 -2.1279  2.2676 -2.2765
  129CHL1   C2115784   6.278   6.343  13.686  0.5472  0.6726  0.2236
  129CHL1  H21A15785   6.223   6.391  13.770 -1.2798 -0.2196 -0.4138
  129CHL1  H21B15786   6.194   6.321  13.616 -0.4995  0.6934  1.4399
  129CHL1  H21C15787   6.369   6.392  13.645  1.6541  0.6324  2.4867
  129CHL1   C2215788   6.377   6.223  13.892  0.8319  0.1297 -0.2917
  129CHL1  H22A15789   6.390   6.120  13.931  2.0610  0.7095  0.9488
  129CHL1  H22B15790   6.475   6.276  13.887  1.5221 -0.8864  1.5454
  129CHL1   C2315791   6.296   6.294  13.999 -0.7878  0.5301  0.0719
  129CHL1  H23A15792   6.287   6.400  13.967 -2.2400  0.3573 -0.1701
  129CHL1  H23B15793   6.196   6.246  14.003 -0.0460 -1.4326 -2.4937
  129CHL1   C2415794   6.360   6.283  14.138  0.1619  0.2099 -0.3997
  129CHL1  H24A15795   6.346   6.177  14.168 -0.4176  0.9963  2.3454
  129CHL1  H24B15796   6.460   6.331  14.138  0.1966  0.1331 -0.0848
  129CHL1   C2515797   6.277   6.360  14.245 -0.1528 -0.4969  0.4279
  129CHL1   H2515798   6.171   6.329  14.239 -0.4800  0.7576 -0.6078
  129CHL1   C2615799   6.329   6.319  14.388 -0.3335 -0.3071  0.0664
  129CHL1  H26A15800   6.438   6.336  14.377 -0.6542  3.2344  1.4211
  129CHL1  H26B15801   6.296   6.379  14.475  2.4313  0.9539  0.3588
  129CHL1  H26C15802   6.300   6.213  14.409 -0.5815 -0.4035 -0.7045
  129CHL1   C2715803   6.299   6.514  14.245 -1.1751  0.0713 -0.0229
  129CHL1  H27A15804   6.287   6.551  14.140 -1.4598 -1.2097 -0.4565
  129CHL1  H27B15805   6.225   6.557  14.316 -0.9177  1.1545 -0.3838
  129CHL1  H27C15806   6.403   6.532  14.279 -0.7334 -0.8661 -0.8322
  130CHL1    C315807   2.973   6.990  12.788  0.0810 -0.1298  0.3570
  130CHL1    H315808   2.870   7.000  12.745 -0.5076 -1.3486  1.4312
  130CHL1    O315809   3.061   7.015  12.677 -0.1732  0.4241 -0.5006
  130CHL1   H3'15810   3.148   7.002  12.715 -0.9160  1.0817  1.5337
  130CHL1    C415811   2.988   7.112  12.894  0.2643  0.1255 -0.3766
  130CHL1   H4A15812   3.098   7.126  12.894  0.2031  1.7316 -3.9499
  130CHL1   H4B15813   2.944   7.208  12.859  1.0349  0.7472  0.3306
  130CHL1    C515814   2.928   7.078  13.033 -0.1908 -0.3288  0.8297
  130CHL1    C615815   2.849   7.168  13.091 -0.0254  0.5743 -0.1881
  130CHL1    H615816   2.832   7.261  13.034 -4.0415 -0.7543 -1.5198
  130CHL1    C715817   2.785   7.147  13.225  0.8895  0.1370 -0.8500
  130CHL1   H7A15818   2.794   7.235  13.293 -3.3448  0.1193  0.0081
  130CHL1   H7B15819   2.674   7.150  13.219  0.9100 -1.4255 -2.8625
  130CHL1    C815820   2.846   7.022  13.300  0.6904  0.1268 -1.0009
  130CHL1    H815821   2.937   7.069  13.344 -0.0475 -1.2933  2.4043
  130CHL1   C1415822   2.756   6.976  13.416  0.4019 -0.2939  0.1225
  130CHL1   H1415823   2.663   6.936  13.370 -0.0568  0.8136  0.0548
  130CHL1   C1515824   2.702   7.078  13.513 -0.2965 -0.2619 -0.5627
  130CHL1  H15A15825   2.788   7.146  13.526  0.8363 -1.3941 -1.8285
  130CHL1  H15B15826   2.622   7.146  13.476  0.1673  0.0184 -1.0692
  130CHL1   C1615827   2.662   7.003  13.641  0.6910 -0.0991  0.2938
  130CHL1  H16A15828   2.709   7.058  13.725 -1.6271  1.6055  0.5660
  130CHL1  H16B15829   2.557   7.004  13.676  2.2675  2.3548  6.3783
  130CHL1   C1715830   2.708   6.856  13.618  0.5115 -0.2340  0.6564
  130CHL1   H1715831   2.622   6.804  13.570  0.8676  0.8964 -1.3326
  130CHL1   C1315832   2.818   6.867  13.505  0.3080 -0.4690 -0.1758
  130CHL1   C1815833   2.951   6.906  13.572  0.5492 -0.2476 -0.3496
  130CHL1  H18A15834   3.025   6.929  13.492 -0.1325 -1.0687 -1.2357
  130CHL1  H18B15835   2.928   6.995  13.635  1.0960 -0.3564  0.0128
  130CHL1  H18C15836   2.996   6.833  13.643  0.4778  0.8071  0.8319
  130CHL1   C1215837   2.845   6.740  13.410  0.3496 -0.3758 -0.5359
  130CHL1  H12A15838   2.888   6.659  13.472 -0.1692 -0.3730 -0.1602
  130CHL1  H12B15839   2.742   6.713  13.379 -0.4386  1.7634 -0.0282
  130CHL1   C1115840   2.929   6.784  13.292 -0.4010 -0.3954 -0.1445
  130CHL1  H11A15841   3.028   6.820  13.327 -0.9092 -0.4679  1.4544
  130CHL1  H11B15842   2.950   6.700  13.221  0.9073 -1.1867  1.1154
  130CHL1    C915843   2.869   6.909  13.216  0.3225  0.4165 -0.0374
  130CHL1    H915844   2.771   6.877  13.174 -0.2193 -0.5827  1.8828
  130CHL1   C1015845   2.960   6.940  13.088  0.2624 -0.1324  0.4743
  130CHL1   C1915846   3.105   6.936  13.115 -0.6290  0.1388 -0.7272
  130CHL1  H19A15847   3.161   6.969  13.026 -0.6614 -0.7448 -1.0856
  130CHL1  H19B15848   3.131   7.006  13.197 -2.2611 -1.5872  1.3962
  130CHL1  H19C15849   3.141   6.837  13.151 -0.9121  0.0005 -0.8179
  130CHL1    C115850   2.927   6.833  12.983 -0.5096  0.1760 -0.0381
  130CHL1   H1A15851   2.956   6.729  13.011  0.7921  0.5123 -0.0629
  130CHL1   H1B15852   2.818   6.823  12.966 -0.3269 -0.0266 -1.1732
  130CHL1    C215853   3.008   6.859  12.850 -0.1722 -0.0058 -0.1044
  130CHL1   H2A15854   2.976   6.780  12.779 -0.4628 -0.4147  0.4784
  130CHL1   H2B15855   3.116   6.842  12.874 -0.4753 -1.0070  0.6391
  130CHL1   C2015856   2.739   6.787  13.749  0.0505 -1.0008 -0.2196
  130CHL1   H2015857   2.829   6.839  13.790 -0.2457  0.2578 -1.0919
  130CHL1   C2115858   2.771   6.639  13.736 -0.1995  0.1047  0.1712
  130CHL1  H21A15859   2.797   6.586  13.830  2.2187 -0.1147 -0.5405
  130CHL1  H21B15860   2.864   6.626  13.676 -0.0632  0.5340  0.2846
  130CHL1  H21C15861   2.688   6.579  13.694 -0.8831  1.6437 -0.7296
  130CHL1   C2215862   2.637   6.800  13.864 -0.2821 -0.3681 -0.1299
  130CHL1  H22A15863   2.687   6.751  13.950  0.5415  1.4282  0.4534
  130CHL1  H22B15864   2.624   6.905  13.897 -1.5752 -0.2966 -0.7795
  130CHL1   C2315865   2.499   6.736  13.836  0.0920  0.0741 -0.4870
  130CHL1  H23A15866   2.491   6.764  13.729  2.1445  0.4558 -0.5695
  130CHL1  H23B15867   2.501   6.626  13.831  0.6359 -0.0945  2.0868
  130CHL1   C2415868   2.383   6.787  13.925 -0.6016  0.2046  0.4145
  130CHL1  H24A15869   2.381   6.898  13.929  1.9919  0.3042  0.7344
  130CHL1  H24B15870   2.292   6.748  13.876  0.6702  0.7658 -2.6528
  130CHL1   C2515871   2.393   6.732  14.071  0.4568 -0.3248 -0.3533
  130CHL1   H2515872   2.491   6.766  14.110 -0.4683  0.8495  1.0336
  130CHL1   C2615873   2.286   6.807  14.162 -0.7447  0.1907 -0.2045
  130CHL1  H26A15874   2.187   6.778  14.119 -1.2910  1.5358  0.0802
  130CHL1  H26B15875   2.313   6.780  14.266  4.2917 -1.3039 -1.6104
  130CHL1  H26C15876   2.298   6.917  14.147 -0.2298 -0.0776 -2.0196
  130CHL1   C2715877   2.379   6.577  14.080 -0.2458 -0.4471 -0.1341
  130CHL1  H27A15878   2.472   6.540  14.032 -0.1008  1.1291 -1.1403
  130CHL1  H27B15879   2.374   6.541  14.185  0.3642 -0.6587 -0.1748
  130CHL1  H27C15880   2.298   6.537  14.016 -0.9864 -0.0754  0.5532
  131CHL1    C315881   0.788   4.660  12.678 -0.0002  0.3216 -0.2880
  131CHL1    H315882   0.869   4.607  12.732  0.5600 -0.2323 -1.6211
  131CHL1    O315883   0.835   4.676  12.543 -0.0814  0.2224  0.2304
  131CHL1   H3'15884   0.775   4.737  12.499  1.9127  1.2426 -1.2436
  131CHL1    C415885   0.658   4.586  12.685  0.4354  0.1773 -0.2601
  131CHL1   H4A15886   0.594   4.648  12.619 -0.8749 -0.8282  0.0276
  131CHL1   H4B15887   0.676   4.481  12.650 -1.1667 -0.4017  0.5757
  131CHL1    C515888   0.602   4.577  12.830 -0.1064  0.3822  0.0043
  131CHL1    C615889   0.577   4.464  12.889 -0.1281  0.3427 -0.2064
  131CHL1    H615890   0.588   4.379  12.820 -0.3506  1.0325 -1.1128
  131CHL1    C715891   0.507   4.450  13.020 -0.4398  0.6402  0.2105
  131CHL1   H7A15892   0.427   4.374  13.006  0.0458  0.2981 -0.7411
  131CHL1   H7B15893   0.575   4.415  13.101 -3.5062 -0.4279  2.5491
  131CHL1    C815894   0.431   4.578  13.069  0.5760  0.6046  0.0137
  131CHL1    H815895   0.336   4.598  13.015 -0.4283 -0.3547  1.3475
  131CHL1   C1415896   0.407   4.575  13.215 -0.3612  0.4145 -0.5741
  131CHL1   H1415897   0.510   4.577  13.258  0.5112 -1.6765 -2.4027
  131CHL1   C1515898   0.346   4.446  13.273  0.2033  0.0987 -0.0113
  131CHL1  H15A15899   0.272   4.406  13.200 -0.0034  1.6719 -0.6907
  131CHL1  H15B15900   0.421   4.364  13.285 -1.4736 -1.5749 -0.4064
  131CHL1   C1615901   0.281   4.491  13.408  0.3718 -0.1906 -0.0140
  131CHL1  H16A15902   0.173   4.471  13.396 -0.3136  2.3093  1.1539
  131CHL1  H16B15903   0.324   4.435  13.494  1.1754  0.3636 -0.0401
  131CHL1   C1715904   0.319   4.644  13.415  0.4308 -0.6401 -0.2707
  131CHL1   H1715905   0.426   4.647  13.445  0.1396  3.0854  0.8863
  131CHL1   C1315906   0.332   4.695  13.270 -1.0576  0.3606  0.2305
  131CHL1   C1815907   0.192   4.712  13.214  0.4416  0.3671  0.1164
  131CHL1  H18A15908   0.138   4.798  13.259 -1.9619 -0.6694 -0.6385
  131CHL1  H18B15909   0.192   4.732  13.105  2.8871  0.7864  0.1319
  131CHL1  H18C15910   0.124   4.627  13.235  0.0935 -0.4929 -3.7163
  131CHL1   C1215911   0.428   4.816  13.252  0.3650  0.0626  0.5991
  131CHL1  H12A15912   0.394   4.912  13.295  0.6506 -0.5420  2.2596
  131CHL1  H12B15913   0.524   4.791  13.302  1.0067  0.0099 -0.6370
  131CHL1   C1115914   0.464   4.835  13.102  0.2003  0.4234  0.5016
  131CHL1  H11A15915   0.370   4.865  13.052  1.3028  0.8323 -1.4159
  131CHL1  H11B15916   0.535   4.920  13.088  0.1332  0.4335  0.2348
  131CHL1    C915917   0.522   4.700  13.035  0.3525 -0.2834  0.1008
  131CHL1    H915918   0.616   4.673  13.089  1.6407 -2.2854 -2.8714
  131CHL1   C1015919   0.572   4.707  12.891 -0.0535 -0.2722 -1.0872
  131CHL1   C1915920   0.458   4.772  12.808  0.8264  0.3727  0.0007
  131CHL1  H19A15921   0.456   4.752  12.699  1.5722  2.0056 -0.3524
  131CHL1  H19B15922   0.368   4.720  12.847  0.2720  1.6866  0.5387
  131CHL1  H19C15923   0.441   4.882  12.818 -0.2332  0.2547 -0.4243
  131CHL1    C115924   0.700   4.795  12.884  0.5204  0.5658 -0.4286
  131CHL1   H1A15925   0.686   4.901  12.913  1.6675  1.4133 -2.6743
  131CHL1   H1B15926   0.783   4.755  12.946  0.4546  1.4061  0.2112
  131CHL1    C215927   0.759   4.799  12.741 -0.5262  0.7738 -0.4637
  131CHL1   H2A15928   0.848   4.865  12.742  0.8730 -1.0298 -0.3734
  131CHL1   H2B15929   0.689   4.855  12.676 -0.7423  0.1842 -0.7413
  131CHL1   C2015930   0.242   4.726  13.523  0.2513  0.3610 -0.1450
  131CHL1   H2015931   0.161   4.781  13.470 -0.4185 -0.9382 -0.5168
  131CHL1   C2115932   0.342   4.837  13.579  0.2288  0.1745  0.4341
  131CHL1  H21A15933   0.398   4.890  13.499 -0.8624  2.0957  0.8804
  131CHL1  H21B15934   0.411   4.787  13.651 -0.6077  2.1675  2.7847
  131CHL1  H21C15935   0.284   4.915  13.633  0.9299 -0.4654  2.1949
  131CHL1   C2215936   0.188   4.638  13.639 -0.3669 -0.2054 -0.1547
  131CHL1  H22A15937   0.142   4.545  13.600 -0.2358 -0.5694  0.5453
  131CHL1  H22B15938   0.274   4.608  13.702 -2.0885 -0.8129  2.0337
  131CHL1   C2315939   0.103   4.712  13.742  0.4383 -0.3500  0.2012
  131CHL1  H23A15940   0.148   4.806  13.780 -0.5779  0.4621 -0.5262
  131CHL1  H23B15941   0.011   4.738  13.685  0.1841  1.5358  1.3967
  131CHL1   C2415942   0.060   4.611  13.855  1.1973 -0.2786 -0.4190
  131CHL1  H24A15943   0.041   4.517  13.799 -0.8774  0.0834 -0.4137
  131CHL1  H24B15944   0.147   4.604  13.923 -0.5918  1.7351  2.2937
  131CHL1   C2515945  -0.062   4.649  13.935 -0.6356 -0.5618  0.9056
  131CHL1   H2515946  -0.067   4.570  14.013  1.4214 -2.4406 -0.7447
  131CHL1   C2615947  -0.043   4.787  14.008  0.5950 -0.3129  0.6791
  131CHL1  H26A15948  -0.140   4.801  14.061  1.3050 -0.7347  2.1139
  131CHL1  H26B15949   0.041   4.780  14.080  1.8927  2.7033 -0.3417
  131CHL1  H26C15950  -0.029   4.863  13.928  0.5035 -0.3468  0.6311
  131CHL1   C2715951  -0.183   4.661  13.846  0.0389  0.4228 -0.3395
  131CHL1  H27A15952  -0.177   4.756  13.789 -1.1277  0.4795 -0.3926
  131CHL1  H27B15953  -0.189   4.576  13.775 -0.5011  1.0776 -1.0904
  131CHL1  H27C15954  -0.271   4.656  13.915 -0.9516  1.6482 -1.4561
  132CHL1    C315955   4.754   7.060  12.925 -0.6132 -0.0720  0.0446
  132CHL1    H315956   4.709   6.961  12.899  1.8189 -1.0393 -0.8294
  132CHL1    O315957   4.741   7.152  12.818 -0.5025  0.0781 -0.4028
  132CHL1   H3'15958   4.804   7.127  12.750 -1.3163  3.3913 -2.5688
  132CHL1    C415959   4.687   7.119  13.051 -0.0708 -0.1114 -0.2516
  132CHL1   H4A15960   4.706   7.229  13.051 -0.2871 -0.0724 -0.1937
  132CHL1   H4B15961   4.577   7.133  13.038  0.2901  1.8782 -1.6834
  132CHL1    C515962   4.720   7.069  13.184  0.0042  0.6036 -0.0415
  132CHL1    C615963   4.623   7.047  13.269  0.0641 -0.4285 -0.6528
  132CHL1    H615964   4.519   7.069  13.242 -0.5599 -0.7252  1.3633
  132CHL1    C715965   4.639   6.993  13.407 -0.1959  0.0171  0.1112
  132CHL1   H7A15966   4.567   7.047  13.473  1.9769  1.3299  1.5233
  132CHL1   H7B15967   4.612   6.885  13.400 -0.9610  0.1551  0.7243
  132CHL1    C815968   4.784   7.000  13.453 -0.4062  0.5261 -0.1675
  132CHL1    H815969   4.793   7.106  13.485 -2.6926  1.1457 -1.3121
  132CHL1   C1415970   4.797   6.917  13.581  0.3656 -0.1196 -0.1508
  132CHL1   H1415971   4.774   6.813  13.548  0.0573 -0.1307  0.1014
  132CHL1   C1515972   4.704   6.947  13.698 -0.0606 -0.0055 -0.4920
  132CHL1  H15A15973   4.705   7.056  13.721  0.6200  0.1012 -0.9904
  132CHL1  H15B15974   4.601   6.922  13.664 -1.4462  4.7232 -0.5523
  132CHL1   C1615975   4.773   6.871  13.815  0.6634  0.6221 -0.1660
  132CHL1  H16A15976   4.773   6.938  13.903  1.3672 -0.1268  0.4169
  132CHL1  H16B15977   4.716   6.784  13.855 -0.9636  1.3666 -0.7906
  132CHL1   C1715978   4.916   6.832  13.761 -0.0394  0.0690  0.0711
  132CHL1   H1715979   4.917   6.726  13.727  1.2564  0.4732 -1.2869
  132CHL1   C1315980   4.940   6.911  13.635 -0.0986  0.5981  0.0650
  132CHL1   C1815981   4.979   7.063  13.668 -0.6340  0.5340  0.1069
  132CHL1  H18A15982   4.912   7.114  13.740 -0.2414  3.1337 -1.2563
  132CHL1  H18B15983   5.073   7.066  13.726 -1.4715  1.7487  1.4525
  132CHL1  H18C15984   4.987   7.125  13.576 -0.0066  1.9626  1.0968
  132CHL1   C1215985   5.024   6.851  13.523 -0.2557  0.5690  0.4417
  132CHL1  H12A15986   5.129   6.869  13.557 -0.0608  0.2218  0.0409
  132CHL1  H12B15987   5.004   6.743  13.509 -2.2930  0.9512  0.1115
  132CHL1   C1115988   5.019   6.927  13.387  0.1241 -0.7106  0.5352
  132CHL1  H11A15989   5.069   7.025  13.400  2.7378 -1.9476  0.6261
  132CHL1  H11B15990   5.082   6.876  13.311 -1.4177 -0.4414 -0.9819
  132CHL1    C915991   4.875   6.950  13.341  0.1541 -0.2770  0.0217
  132CHL1    H915992   4.831   6.850  13.321  2.5010 -1.6519  1.2503
  132CHL1   C1015993   4.867   7.043  13.212 -0.3959  0.3155  0.0715
  132CHL1   C1915994   4.942   7.178  13.240  1.0513  0.7697  0.3201
  132CHL1  H19A15995   4.906   7.254  13.167  1.8913 -1.1035 -2.1691
  132CHL1  H19B15996   4.920   7.210  13.344 -0.2961  2.8326 -0.5405
  132CHL1  H19C15997   5.052   7.174  13.222  0.8597 -1.0840 -0.6407
  132CHL1    C115998   4.926   6.967  13.091  0.3506  0.1520  0.1461
  132CHL1   H1A15999   5.036   6.953  13.099  0.6997  1.5129 -1.5195
  132CHL1   H1B16000   4.866   6.875  13.078  0.6767  0.1242 -1.4670
  132CHL1    C216001   4.908   7.039  12.956  0.0143 -0.7706 -0.5723
  132CHL1   H2A16002   4.955   6.993  12.867 -1.5275  0.1157 -1.9029
  132CHL1   H2B16003   4.944   7.144  12.963  0.9275 -1.0471 -1.1235
  132CHL1   C2016004   5.023   6.833  13.871  0.7593  0.0289  0.4930
  132CHL1   H2016005   5.051   6.938  13.895  0.9488  0.3947 -1.2140
  132CHL1   C2116006   5.167   6.776  13.831 -0.6863  0.6174  0.3038
  132CHL1  H21A16007   5.143   6.681  13.778 -0.5733  0.5385  0.3941
  132CHL1  H21B16008   5.218   6.743  13.923 -2.2827 -0.1467  0.9565
  132CHL1  H21C16009   5.228   6.847  13.771 -1.6901  0.3054 -1.1655
  132CHL1   C2216010   4.972   6.766  14.005 -0.6938  0.3242 -0.5943
  132CHL1  H22A16011   5.055   6.761  14.078 -1.0313 -1.7865 -0.3145
  132CHL1  H22B16012   4.880   6.818  14.041 -0.9679 -0.2090 -0.5228
  132CHL1   C2316013   4.927   6.620  13.985  0.2189  0.3895  0.2985
  132CHL1  H23A16014   4.836   6.621  13.922  0.4238  2.2839 -0.0497
  132CHL1  H23B16015   4.991   6.546  13.932 -0.4996  0.5567 -0.8399
  132CHL1   C2416016   4.867   6.566  14.121  0.0572 -0.3363 -0.1223
  132CHL1  H24A16017   4.952   6.544  14.189  0.1656  0.4940  0.0231
  132CHL1  H24B16018   4.795   6.639  14.163  0.2571  1.0512 -2.0314
  132CHL1   C2516019   4.809   6.425  14.097 -0.5214  0.4210  0.8233
  132CHL1   H2516020   4.880   6.373  14.028 -0.3792  2.8152 -0.9623
  132CHL1   C2616021   4.800   6.335  14.220 -0.0336  0.7560 -0.2264
  132CHL1  H26A16022   4.758   6.238  14.186 -0.2035  0.0633  1.8068
  132CHL1  H26B16023   4.900   6.323  14.267  0.4240  0.1871 -1.3155
  132CHL1  H26C16024   4.731   6.383  14.293  1.3191  2.6544 -0.1302
  132CHL1   C2716025   4.669   6.439  14.036 -0.7740  0.3255  0.3382
  132CHL1  H27A16026   4.662   6.492  13.938 -0.5203  0.0518  0.1676
  132CHL1  H27B16027   4.643   6.333  14.015  0.7716 -0.5926  2.6548
  132CHL1  H27C16028   4.595   6.480  14.107 -1.1001  0.6211 -0.1692
  133CHL1    C316029   0.686   1.635  12.937  0.8034 -0.4089 -0.6516
  133CHL1    H316030   0.708   1.527  12.941 -4.2727 -1.6907  0.4859
  133CHL1    O316031   0.618   1.664  12.812 -0.4009  0.2190  0.1086
  133CHL1   H3'16032   0.627   1.758  12.795  0.4303 -0.0502 -1.0306
  133CHL1    C416033   0.579   1.674  13.047  0.4130 -0.0017 -0.4481
  133CHL1   H4A16034   0.543   1.775  13.018 -0.4821  0.3848  1.8472
  133CHL1   H4B16035   0.491   1.608  13.039 -0.4607  1.0349  0.3950
  133CHL1    C516036   0.646   1.671  13.188 -0.0955  0.3118  0.8342
  133CHL1    C616037   0.591   1.607  13.289 -0.6221  1.2264 -0.4630
  133CHL1    H616038   0.490   1.566  13.271 -0.1035  0.6836 -2.3529
  133CHL1    C716039   0.643   1.618  13.435  0.0619 -0.5414  0.2684
  133CHL1   H7A16040   0.564   1.611  13.513 -0.3876 -2.1353 -0.2813
  133CHL1   H7B16041   0.714   1.533  13.447  0.7152 -0.7452 -3.6688
  133CHL1    C816042   0.741   1.731  13.452 -0.2092 -0.7411 -0.0640
  133CHL1    H816043   0.683   1.825  13.454  0.5124 -0.2542 -1.1455
  133CHL1   C1416044   0.827   1.719  13.580  0.3985 -0.0629  0.6275
  133CHL1   H1416045   0.898   1.635  13.563  2.0835  1.6811 -1.6972
  133CHL1   C1516046   0.744   1.684  13.710  0.1056 -0.0687 -1.3077
  133CHL1  H15A16047   0.639   1.721  13.710 -0.5019 -1.1077  3.3031
  133CHL1  H15B16048   0.751   1.577  13.739  0.4756  0.1046 -0.7371
  133CHL1   C1616049   0.830   1.745  13.819 -0.2683 -0.3165  0.1665
  133CHL1  H16A16050   0.781   1.820  13.884 -0.3170 -0.0654 -0.1577
  133CHL1  H16B16051   0.880   1.671  13.885  0.5482  0.1692  0.1000
  133CHL1   C1716052   0.957   1.808  13.744 -0.3342 -0.7379 -0.3463
  133CHL1   H1716053   1.027   1.723  13.729  0.4056 -0.2369  0.1874
  133CHL1   C1316054   0.913   1.843  13.605  0.3300  0.0824 -0.2200
  133CHL1   C1816055   0.831   1.979  13.603  0.2521 -0.2650 -0.3397
  133CHL1  H18A16056   0.792   2.009  13.503  2.1989 -1.0685 -1.4151
  133CHL1  H18B16057   0.752   1.980  13.680  1.3629  0.1811  0.8228
  133CHL1  H18C16058   0.898   2.061  13.634  1.0697 -1.3952  1.0060
  133CHL1   C1216059   1.029   1.824  13.501  0.4255 -0.8102  0.2544
  133CHL1  H12A16060   1.113   1.896  13.509  0.7278 -1.0302 -0.7880
  133CHL1  H12B16061   1.082   1.726  13.501  1.7136 -0.1506 -1.3395
  133CHL1   C1116062   0.957   1.842  13.364 -0.2511 -0.6973 -1.0583
  133CHL1  H11A16063   0.922   1.945  13.344 -0.8373 -0.6432  0.1871
  133CHL1  H11B16064   1.033   1.817  13.287  0.6487 -3.3259  0.5573
  133CHL1    C916065   0.840   1.736  13.335 -0.1566  0.1769  0.2369
  133CHL1    H916066   0.901   1.644  13.343  0.5438  0.6719  0.7730
  133CHL1   C1016067   0.779   1.758  13.194  0.0486 -0.0343 -0.4594
  133CHL1   C1916068   0.731   1.905  13.177  0.0323  0.4338  0.2975
  133CHL1  H19A16069   0.821   1.970  13.180 -1.9317  3.4037 -0.5362
  133CHL1  H19B16070   0.673   1.918  13.083 -1.8470 -1.5962  1.0962
  133CHL1  H19C16071   0.663   1.938  13.258 -0.1745  0.4693  0.1080
  133CHL1    C116072   0.877   1.709  13.084 -0.3213 -0.2794 -0.3029
  133CHL1   H1A16073   0.965   1.777  13.078 -0.1146 -0.6556 -2.0175
  133CHL1   H1B16074   0.903   1.601  13.091 -0.9468 -0.5553 -1.8003
  133CHL1    C216075   0.817   1.719  12.948 -0.4874 -0.0745  0.0116
  133CHL1   H2A16076   0.893   1.673  12.882  0.0952 -0.9536  1.2662
  133CHL1   H2B16077   0.800   1.825  12.919 -1.3163 -0.1894  0.0321
  133CHL1   C2016078   1.023   1.913  13.831 -0.5847 -0.2153 -0.1711
  133CHL1   H2016079   0.955   2.001  13.836 -2.2079 -1.4391  0.2051
  133CHL1   C2116080   1.151   1.954  13.765  0.3329 -1.0738  0.6000
  133CHL1  H21A16081   1.120   2.026  13.686  2.0786 -0.0741  0.7823
  133CHL1  H21B16082   1.194   1.860  13.726  1.6555 -0.0142 -0.6190
  133CHL1  H21C16083   1.224   2.006  13.831  1.0496  1.3523 -1.9259
  133CHL1   C2216084   1.054   1.855  13.979 -0.0050 -0.2419 -0.0810
  133CHL1  H22A16085   0.959   1.816  14.021  0.2171  0.5756  1.2431
  133CHL1  H22B16086   1.135   1.780  13.977  0.3708  0.1266  0.5886
  133CHL1   C2316087   1.109   1.953  14.084  0.2371 -0.1624  0.0997
  133CHL1  H23A16088   1.189   1.905  14.145 -0.2406 -0.7184  0.2911
  133CHL1  H23B16089   1.159   2.032  14.023 -0.7536  0.3314 -0.0926
  133CHL1   C2416090   1.003   2.009  14.172  0.5068 -0.1186 -0.1445
  133CHL1  H24A16091   0.925   2.054  14.107  1.4024  1.9544  0.1330
  133CHL1  H24B16092   0.954   1.936  14.239  2.0517  0.2043  1.4278
  133CHL1   C2516093   1.065   2.118  14.261  0.4479 -0.7283  0.0555
  133CHL1   H2516094   1.126   2.179  14.191  1.3374  0.3985  1.7380
  133CHL1   C2616095   0.955   2.209  14.308  0.5740  0.0553  0.2559
  133CHL1  H26A16096   0.997   2.291  14.370  0.5586  0.4677 -0.2742
  133CHL1  H26B16097   0.903   2.267  14.229  0.2807  0.2982  0.6225
  133CHL1  H26C16098   0.882   2.157  14.374  0.9823  1.6144  2.0471
  133CHL1   C2716099   1.156   2.076  14.376  0.4540  0.1601 -1.2869
  133CHL1  H27A16100   1.122   1.994  14.443  1.6902 -0.0589 -0.8896
  133CHL1  H27B16101   1.251   2.045  14.326  0.0456  0.7404 -2.4609
  133CHL1  H27C16102   1.187   2.165  14.436 -0.5354 -0.8373  0.8029
  134CHL1    C316103   7.032   2.941  12.971  0.0402  0.6770 -0.0468
  134CHL1    H316104   6.927   2.908  12.965  0.3718 -0.3080 -0.6468
  134CHL1    O316105   7.086   2.939  12.840 -0.3740  0.3704  0.1575
  134CHL1   H3'16106   7.181   2.940  12.853 -0.3128  1.7153 -0.1809
  134CHL1    C416107   7.040   3.084  13.023  0.0719 -0.2682 -0.0164
  134CHL1   H4A16108   7.142   3.125  13.012 -0.4223  0.4028 -2.6262
  134CHL1   H4B16109   6.973   3.144  12.957 -0.9427 -2.4969 -1.1341
  134CHL1    C516110   6.985   3.104  13.166  0.0462 -0.1826  0.3621
  134CHL1    C616111   6.888   3.194  13.197 -0.1119  0.4684 -0.3965
  134CHL1    H616112   6.837   3.253  13.119  0.9995 -0.6193 -2.0227
  134CHL1    C716113   6.834   3.200  13.338  0.0251  0.1755 -0.0493
  134CHL1   H7A16114   6.816   3.306  13.366  0.4563  0.2383 -0.0025
  134CHL1   H7B16115   6.736   3.150  13.354 -1.2676  2.4659 -0.2151
  134CHL1    C816116   6.926   3.143  13.445 -0.7221  0.6029 -0.4628
  134CHL1    H816117   7.015   3.210  13.454  1.1474 -1.8804  0.8019
  134CHL1   C1416118   6.854   3.119  13.572 -0.0588  0.0162 -0.6815
  134CHL1   H1416119   6.782   3.037  13.553  0.0430 -0.0728 -0.6835
  134CHL1   C1516120   6.773   3.243  13.624 -0.8444 -0.2135 -0.2898
  134CHL1  H15A16121   6.850   3.323  13.619  0.0134 -0.9832  0.1130
  134CHL1  H15B16122   6.681   3.264  13.566 -1.3436 -0.4572  0.4014
  134CHL1   C1616123   6.757   3.213  13.773  0.2847 -0.3530 -0.1945
  134CHL1  H16A16124   6.807   3.299  13.822  1.8749 -1.1213 -0.4241
  134CHL1  H16B16125   6.650   3.193  13.797  0.7190 -2.1494  0.4712
  134CHL1   C1716126   6.838   3.078  13.810  0.1558  0.3723  0.1952
  134CHL1   H1716127   6.763   2.996  13.810 -1.0657  1.4059 -2.3021
  134CHL1   C1316128   6.935   3.070  13.695 -0.1671 -0.3092 -0.6392
  134CHL1   C1816129   7.059   3.157  13.721 -0.0449 -0.1241 -1.0908
  134CHL1  H18A16130   7.129   3.167  13.634 -2.0507 -0.6362 -2.8485
  134CHL1  H18B16131   7.021   3.257  13.751  0.2280 -0.4900  0.5501
  134CHL1  H18C16132   7.121   3.122  13.806  0.7530  2.5508 -0.4594
  134CHL1   C1216133   6.978   2.927  13.657 -0.5883  0.7619 -0.1534
  134CHL1  H12A16134   7.046   2.881  13.732 -0.9705 -0.5252 -0.5733
  134CHL1  H12B16135   6.895   2.854  13.649  0.5229 -0.5659  0.0691
  134CHL1   C1116136   7.052   2.924  13.519  0.1398  0.0223 -0.7555
  134CHL1  H11A16137   7.152   2.964  13.544  0.8094 -1.5635 -0.7522
  134CHL1  H11B16138   7.046   2.817  13.487  1.9376 -0.7535  1.2745
  134CHL1    C916139   6.974   3.004  13.405 -0.4477 -0.4333  0.3368
  134CHL1    H916140   6.882   2.948  13.381 -1.0539  0.5942  0.2234
  134CHL1   C1016141   7.047   3.007  13.272 -0.5388 -0.2988 -0.7781
  134CHL1   C1916142   7.192   3.048  13.296 -0.4803  0.4898 -0.0739
  134CHL1  H19A16143   7.245   3.034  13.199  0.2635 -1.8549  0.6155
  134CHL1  H19B16144   7.202   3.152  13.335 -0.7955  0.1439  0.9679
  134CHL1  H19C16145   7.234   2.978  13.371 -0.4196  0.5337 -0.0673
  134CHL1    C116146   7.032   2.860  13.203  0.3227  0.2070 -0.7386
  134CHL1   H1A16147   7.091   2.790  13.265  0.1987  0.9062  0.2124
  134CHL1   H1B16148   6.927   2.823  13.199  0.7435 -1.0327 -0.5541
  134CHL1    C216149   7.102   2.846  13.071  0.1028  0.4358  0.2458
  134CHL1   H2A16150   7.084   2.742  13.037  0.4168  0.7073 -0.7891
  134CHL1   H2B16151   7.213   2.855  13.079  0.4343 -0.6060 -2.3164
  134CHL1   C2016152   6.881   3.083  13.956 -0.2692 -0.2032 -1.1285
  134CHL1   H2016153   6.944   3.171  13.979  0.6300 -0.9865 -0.5005
  134CHL1   C2116154   6.955   2.946  14.001  0.1972 -0.3992 -0.1636
  134CHL1  H21A16155   7.039   2.916  13.936  0.6285 -1.1713  0.7317
  134CHL1  H21B16156   6.889   2.857  13.998  0.8515 -1.0293  2.0923
  134CHL1  H21C16157   6.993   2.953  14.105  1.0008  1.0114 -0.5271
  134CHL1   C2216158   6.766   3.100  14.061  0.0323  0.1667  0.3631
  134CHL1  H22A16159   6.678   3.150  14.015 -0.9857 -1.4979  0.4370
  134CHL1  H22B16160   6.744   3.000  14.105 -0.6780  0.0494 -0.2323
  134CHL1   C2316161   6.822   3.199  14.170 -0.0618  0.4551 -0.2862
  134CHL1  H23A16162   6.926   3.163  14.184 -0.7787 -2.5891 -1.8662
  134CHL1  H23B16163   6.813   3.303  14.131 -1.3633  1.3513  2.1529
  134CHL1   C2416164   6.742   3.200  14.302  0.6115  0.3474  0.3773
  134CHL1  H24A16165   6.633   3.219  14.289  0.2723 -1.2624  0.6230
  134CHL1  H24B16166   6.748   3.094  14.337  2.2898  0.7383  1.3930
  134CHL1   C2516167   6.794   3.289  14.412 -0.2711 -0.4637 -0.1381
  134CHL1   H2516168   6.758   3.389  14.381 -0.1441 -0.4547 -0.2584
  134CHL1   C2616169   6.736   3.260  14.550  0.3278 -0.3117  0.6895
  134CHL1  H26A16170   6.626   3.252  14.556  0.1999  1.0489  0.4786
  134CHL1  H26B16171   6.769   3.161  14.588  0.0750 -0.9088 -0.6057
  134CHL1  H26C16172   6.772   3.327  14.631 -1.9948  0.0548  1.4745
  134CHL1   C2716173   6.949   3.308  14.410 -0.0912 -0.3424 -0.2442
  134CHL1  H27A16174   6.983   3.369  14.496 -2.7184 -0.3063  0.8636
  134CHL1  H27B16175   6.994   3.206  14.418 -1.1626 -0.7104  1.4746
  134CHL1  H27C16176   6.997   3.346  14.317 -0.1174 -0.3049 -0.2423
  135CHL1    C316177   6.617   3.040  12.847 -0.3327 -0.2842 -0.1811
  135CHL1    H316178   6.708   3.076  12.901  1.3186 -2.8283 -1.0614
  135CHL1    O316179   6.647   3.028  12.710  0.0881  0.1071 -0.0309
  135CHL1   H3'16180   6.725   2.972  12.713 -0.5384 -0.8369 -0.7555
  135CHL1    C416181   6.590   2.905  12.915 -0.3659  0.0793 -0.5354
  135CHL1   H4A16182   6.503   2.850  12.873  2.4714 -4.8242 -0.7915
  135CHL1   H4B16183   6.682   2.844  12.905 -0.4365 -0.9163  3.3382
  135CHL1    C516184   6.562   2.924  13.062  0.2583  0.1739 -0.9069
  135CHL1    C616185   6.629   2.851  13.159  0.1196  0.3061 -0.3045
  135CHL1    H616186   6.705   2.779  13.124  0.2710  0.7367 -0.8868
  135CHL1    C716187   6.598   2.858  13.307  0.2852  0.1661 -0.2901
  135CHL1   H7A16188   6.586   2.758  13.353  0.8685  1.3128  2.5521
  135CHL1   H7B16189   6.683   2.908  13.359 -0.6697  1.3216  0.2103
  135CHL1    C816190   6.474   2.936  13.348 -0.5592 -0.3119  0.1038
  135CHL1    H816191   6.389   2.868  13.324 -1.7994  1.9295 -2.3462
  135CHL1   C1416192   6.474   2.980  13.487 -0.4995 -0.3040  0.2799
  135CHL1   H1416193   6.551   3.060  13.492 -3.5337  2.7523  1.2573
  135CHL1   C1516194   6.506   2.867  13.596  0.6360 -0.8448 -0.0940
  135CHL1  H15A16195   6.442   2.778  13.581 -0.9776  0.2008  0.2900
  135CHL1  H15B16196   6.612   2.836  13.606  0.9238  0.4089  1.1933
  135CHL1   C1616197   6.461   2.939  13.725 -0.1705 -0.7903 -0.8245
  135CHL1  H16A16198   6.408   2.872  13.796  0.7372 -0.7961 -0.1291
  135CHL1  H16B16199   6.547   2.981  13.782 -1.4438  0.5778  0.1537
  135CHL1   C1716200   6.384   3.066  13.694  0.4032  0.5925 -0.5149
  135CHL1   H1716201   6.457   3.150  13.697  1.2255 -0.1074 -0.2518
  135CHL1   C1316202   6.350   3.045  13.539 -0.1586  0.3766  0.2881
  135CHL1   C1816203   6.233   2.942  13.530  0.8610 -0.2576 -0.0612
  135CHL1  H18A16204   6.248   2.853  13.596  2.0697  0.0360  0.0900
  135CHL1  H18B16205   6.140   2.996  13.556  0.8466 -0.0486 -0.5400
  135CHL1  H18C16206   6.219   2.902  13.428  0.3380 -0.0628 -0.0664
  135CHL1   C1216207   6.329   3.171  13.455 -0.6452 -0.3692 -0.7542
  135CHL1  H12A16208   6.237   3.222  13.489  1.7408  2.1056  2.7545
  135CHL1  H12B16209   6.411   3.247  13.460  1.3645 -2.4854  0.7635
  135CHL1   C1116210   6.330   3.146  13.308  0.4017  0.2324  0.3665
  135CHL1  H11A16211   6.234   3.099  13.279  0.7383 -0.2468 -0.0084
  135CHL1  H11B16212   6.325   3.241  13.251 -2.1773 -0.1271 -0.1182
  135CHL1    C916213   6.453   3.061  13.258 -0.6720  0.5165 -0.9327
  135CHL1    H916214   6.541   3.126  13.275 -1.3000  0.8770  1.2384
  135CHL1   C1016215   6.455   3.027  13.101  0.6723 -0.6603 -0.6622
  135CHL1   C1916216   6.316   2.973  13.059  0.1438  0.0605 -0.3787
  135CHL1  H19A16217   6.315   2.871  13.102 -0.4418 -0.8014 -2.3285
  135CHL1  H19B16218   6.235   3.044  13.085  0.6819  0.0307  1.5007
  135CHL1  H19C16219   6.313   2.956  12.949  2.1451 -0.6390 -0.3699
  135CHL1    C116220   6.480   3.160  13.019 -0.1764  0.6474 -0.2031
  135CHL1   H1A16221   6.385   3.217  13.024 -1.6745 -1.5991 -1.2136
  135CHL1   H1B16222   6.561   3.221  13.065 -0.8754  0.9943  0.6045
  135CHL1    C216223   6.508   3.140  12.868  0.1096  0.2627  0.5949
  135CHL1   H2A16224   6.542   3.239  12.830  1.3389 -0.3336  0.0667
  135CHL1   H2B16225   6.418   3.103  12.815 -0.3489  2.2519 -0.0892
  135CHL1   C2016226   6.265   3.093  13.782  0.1113  0.0850  0.6908
  135CHL1   H2016227   6.192   3.009  13.782  0.1883 -0.0519 -1.5107
  135CHL1   C2116228   6.193   3.229  13.740  0.6036  0.3714  0.1334
  135CHL1  H21A16229   6.125   3.194  13.659 -1.1833 -0.5247  1.9283
  135CHL1  H21B16230   6.261   3.307  13.701 -0.6719  1.6791  0.4306
  135CHL1  H21C16231   6.124   3.269  13.818 -0.2173 -1.1440  0.2237
  135CHL1   C2216232   6.311   3.103  13.928 -0.8161 -1.0886 -0.5172
  135CHL1  H22A16233   6.346   2.999  13.946  1.0093 -0.5808 -0.8988
  135CHL1  H22B16234   6.397   3.172  13.924 -2.2897  0.7893 -3.1237
  135CHL1   C2316235   6.217   3.159  14.035 -0.5391 -0.6563  0.4074
  135CHL1  H23A16236   6.260   3.142  14.136 -1.7014  2.3458  1.5211
  135CHL1  H23B16237   6.205   3.268  14.020 -0.3053 -0.5831  0.7327
  135CHL1   C2416238   6.073   3.097  14.036 -0.1603 -0.6694 -0.3899
  135CHL1  H24A16239   6.005   3.150  14.106  0.0192 -0.6592 -0.2244
  135CHL1  H24B16240   6.026   3.106  13.935 -1.3950  1.6483  0.3265
  135CHL1   C2516241   6.069   2.948  14.076  0.5369 -0.7075 -0.0187
  135CHL1   H2516242   6.143   2.899  14.008  1.1815  0.6825 -0.3610
  135CHL1   C2616243   6.116   2.925  14.222 -0.2173 -0.0647  0.2205
  135CHL1  H26A16244   6.227   2.932  14.220 -0.1940 -0.3750  0.3426
  135CHL1  H26B16245   6.080   2.999  14.297  0.2574  1.2353 -0.7933
  135CHL1  H26C16246   6.086   2.820  14.243  1.2735 -0.5832 -0.1180
  135CHL1   C2716247   5.933   2.892  14.033  0.0889 -0.6714 -0.5366
  135CHL1  H27A16248   5.859   2.916  14.112  1.3726 -0.8355  0.7382
  135CHL1  H27B16249   5.893   2.933  13.937  0.6847 -0.3051 -0.6353
  135CHL1  H27C16250   5.936   2.781  14.027 -0.0592 -0.6207 -2.0399
  136CHL1    C316251   6.004   0.650  13.036  0.3842 -0.4068 -0.0350
  136CHL1    H316252   6.109   0.628  13.065  0.9804  2.7368  0.5232
  136CHL1    O316253   5.974   0.592  12.908 -0.0050 -0.2907  0.1930
  136CHL1   H3'16254   5.878   0.600  12.912 -0.3771 -3.5770  0.7403
  136CHL1    C416255   5.900   0.599  13.139  0.3243 -0.5649 -0.0514
  136CHL1   H4A16256   5.802   0.616  13.091  1.8916 -0.5703 -3.4958
  136CHL1   H4B16257   5.911   0.488  13.142 -1.4561 -0.8837 -2.5359
  136CHL1    C516258   5.922   0.669  13.274 -0.2037  0.1922  0.4111
  136CHL1    C616259   5.950   0.589  13.381 -0.5621  0.6251  0.5881
  136CHL1    H616260   5.970   0.481  13.378  2.7117  1.0849 -2.6500
  136CHL1    C716261   5.960   0.645  13.520 -0.0177  0.1236  0.5991
  136CHL1   H7A16262   5.921   0.571  13.593 -0.3529  0.8895  1.2220
  136CHL1   H7B16263   6.070   0.660  13.530 -0.0631  3.8501 -2.4079
  136CHL1    C816264   5.899   0.782  13.529  0.6170 -0.9354  0.6405
  136CHL1    H816265   5.789   0.767  13.524  0.2412  1.2024  1.4579
  136CHL1   C1416266   5.937   0.842  13.664 -0.1389  0.6097 -0.6975
  136CHL1   H1416267   6.046   0.861  13.657  0.0333  0.0704  0.2614
  136CHL1   C1516268   5.928   0.754  13.799 -0.3343 -0.2655  0.2725
  136CHL1  H15A16269   5.831   0.700  13.809 -0.0797 -1.4667 -2.7544
  136CHL1  H15B16270   6.010   0.679  13.808 -0.4850 -0.6959 -1.5294
  136CHL1   C1616271   5.923   0.853  13.920  0.8718  0.9044  0.4284
  136CHL1  H16A16272   5.822   0.845  13.965  1.7315 -0.0637  2.2605
  136CHL1  H16B16273   5.999   0.831  13.998  3.2138 -1.2561 -2.2440
  136CHL1   C1716274   5.943   0.991  13.848  0.0402  0.3903 -0.3159
  136CHL1   H1716275   6.052   0.997  13.830 -0.0727  0.5128 -0.9838
  136CHL1   C1316276   5.884   0.978  13.704  1.0277 -0.1339  0.9642
  136CHL1   C1816277   5.729   0.971  13.722 -0.3076  0.0415 -0.0347
  136CHL1  H18A16278   5.698   1.078  13.730  0.4891  0.2096  1.0741
  136CHL1  H18B16279   5.683   0.929  13.631 -0.7492  0.7057 -0.1315
  136CHL1  H18C16280   5.698   0.908  13.809  2.4458 -1.7010 -0.2110
  136CHL1   C1216281   5.929   1.083  13.599  0.2478  0.3920  0.4106
  136CHL1  H12A16282   5.864   1.172  13.617 -1.1867 -0.2242 -1.4176
  136CHL1  H12B16283   6.038   1.103  13.606  0.5716 -1.4720  1.3726
  136CHL1   C1116284   5.889   1.026  13.459 -0.4071  0.1121  0.6737
  136CHL1  H11A16285   5.778   1.017  13.453 -0.2326 -2.0375 -0.3558
  136CHL1  H11B16286   5.924   1.096  13.380  1.6333 -1.6496 -0.0719
  136CHL1    C916287   5.940   0.881  13.420  0.4001  1.0107 -0.4562
  136CHL1    H916288   6.050   0.899  13.422  0.2270  2.1712  2.3136
  136CHL1   C1016289   5.910   0.821  13.281 -0.4491  0.1662  0.5130
  136CHL1   C1916290   5.763   0.855  13.255  0.5008  0.3538 -0.2621
  136CHL1  H19A16291   5.743   0.964  13.252  0.2700  0.4719  2.7028
  136CHL1  H19B16292   5.734   0.816  13.155  0.2425  0.7170 -0.3262
  136CHL1  H19C16293   5.690   0.811  13.326  0.9462  0.7998  0.4808
  136CHL1    C116294   5.995   0.880  13.165 -0.0740  0.7706  0.4398
  136CHL1   H1A16295   5.971   0.986  13.143  1.2221  0.6753 -1.7249
  136CHL1   H1B16296   6.100   0.869  13.200 -0.0320  1.1411  0.4293
  136CHL1    C216297   5.989   0.803  13.027  0.3547  0.0014  0.3473
  136CHL1   H2A16298   6.065   0.839  12.955  0.3332 -1.4475 -0.4388
  136CHL1   H2B16299   5.889   0.824  12.982  0.4056 -0.4733  0.0061
  136CHL1   C2016300   5.909   1.119  13.932 -0.1224 -0.7030  0.7113
  136CHL1   H2016301   5.806   1.150  13.906 -0.2754 -1.6637  0.1326
  136CHL1   C2116302   6.007   1.230  13.899 -0.1025  0.9315 -0.5515
  136CHL1  H21A16303   5.973   1.330  13.932 -0.6304 -0.0529  2.1634
  136CHL1  H21B16304   6.022   1.242  13.790  0.1839  1.1077 -0.4941
  136CHL1  H21C16305   6.105   1.199  13.942 -0.6206 -1.9541 -1.2132
  136CHL1   C2216306   5.904   1.087  14.083  0.6450  0.2774 -0.7344
  136CHL1  H22A16307   5.826   1.010  14.098  1.0085  0.0064 -0.2060
  136CHL1  H22B16308   6.006   1.056  14.116  1.7827  1.4662 -2.9209
  136CHL1   C2316309   5.847   1.201  14.178 -0.4053  0.3708 -0.4010
  136CHL1  H23A16310   5.912   1.291  14.182 -1.9735  1.5842 -1.1841
  136CHL1  H23B16311   5.748   1.232  14.140 -0.9813  0.2914  0.9539
  136CHL1   C2416312   5.805   1.138  14.315 -0.3444 -0.6187 -0.7731
  136CHL1  H24A16313   5.732   1.059  14.285 -1.9260  0.6872 -0.5314
  136CHL1  H24B16314   5.894   1.094  14.363 -1.4183 -2.1853 -0.1268
  136CHL1   C2516315   5.715   1.220  14.420  0.2472  0.1642  0.3663
  136CHL1   H2516316   5.650   1.278  14.351  0.3369 -1.7277 -1.4236
  136CHL1   C2616317   5.639   1.120  14.519 -0.0848 -0.6887 -0.2136
  136CHL1  H26A16318   5.709   1.054  14.574 -0.4306 -0.1259  0.9467
  136CHL1  H26B16319   5.589   1.183  14.596 -2.7389 -0.1570 -2.2364
  136CHL1  H26C16320   5.569   1.055  14.462 -0.2305  0.6117 -1.5864
  136CHL1   C2716321   5.800   1.322  14.500  0.5239  0.1670  0.2633
  136CHL1  H27A16322   5.858   1.384  14.428 -2.3329  0.3527 -2.0766
  136CHL1  H27B16323   5.733   1.389  14.558 -0.1229 -2.1737  2.4319
  136CHL1  H27C16324   5.869   1.275  14.574  0.6307  0.8949  0.6287
  137CHL1    C316325   0.877   1.170  12.725  0.5208 -0.1020 -0.7166
  137CHL1    H316326   0.942   1.250  12.685  0.1124 -0.3428 -1.9147
  137CHL1    O316327   0.801   1.123  12.622 -0.0090  0.6904  0.2528
  137CHL1   H3'16328   0.858   1.073  12.564 -1.7624 -1.3300  0.1360
  137CHL1    C416329   0.962   1.055  12.780 -0.7029  0.0868  0.2075
  137CHL1   H4A16330   0.886   0.976  12.799  0.5435 -1.2811 -0.3393
  137CHL1   H4B16331   1.022   1.002  12.703 -3.3032 -2.1672 -0.4381
  137CHL1    C516332   1.046   1.084  12.895  0.0680  0.0509 -0.3323
  137CHL1    C616333   1.165   1.044  12.901  0.0177 -0.3709 -0.0319
  137CHL1    H616334   1.211   0.994  12.814 -0.4956 -1.1484  0.1332
  137CHL1    C716335   1.255   1.074  13.017  0.2396 -0.5973 -0.6498
  137CHL1   H7A16336   1.306   0.981  13.051  1.6377  1.3583  3.2519
  137CHL1   H7B16337   1.335   1.144  12.983  0.7550 -0.4369  0.7932
  137CHL1    C816338   1.194   1.131  13.144  0.0093 -0.4417  0.9695
  137CHL1    H816339   1.142   1.058  13.210 -0.3535  1.5826  3.0538
  137CHL1   C1416340   1.298   1.203  13.238  0.1964 -0.2316  0.1393
  137CHL1   H1416341   1.332   1.292  13.179 -1.7365  2.4218  2.7354
  137CHL1   C1516342   1.420   1.126  13.277  0.5851 -0.4225 -0.4944
  137CHL1  H15A16343   1.383   1.023  13.298 -0.6527  0.4357  2.0234
  137CHL1  H15B16344   1.504   1.115  13.206  1.4882  1.0148  0.3152
  137CHL1   C1616345   1.465   1.204  13.398  0.0324  0.1401 -0.8716
  137CHL1  H16A16346   1.475   1.136  13.485 -0.2932  2.2524  0.8752
  137CHL1  H16B16347   1.569   1.241  13.383  0.4882 -0.4775  0.5984
  137CHL1   C1716348   1.362   1.318  13.433 -0.3559  0.2510  0.6103
  137CHL1   H1716349   1.392   1.403  13.369  0.3807 -0.4671 -0.0172
  137CHL1   C1316350   1.232   1.268  13.360  0.7429 -0.4876  0.4332
  137CHL1   C1816351   1.170   1.164  13.454  0.6818  0.0753  0.2449
  137CHL1  H18A16352   1.118   1.216  13.538 -1.2473 -0.7962 -0.3531
  137CHL1  H18B16353   1.079   1.121  13.406  1.9348 -1.6053 -0.7182
  137CHL1  H18C16354   1.241   1.087  13.490 -0.1689 -0.9043 -0.1079
  137CHL1   C1216355   1.130   1.377  13.311 -0.3360  0.2624 -0.4738
  137CHL1  H12A16356   1.083   1.425  13.399  1.2415 -0.4569  0.7980
  137CHL1  H12B16357   1.172   1.462  13.254 -1.2828  1.6615  0.8402
  137CHL1   C1116358   1.022   1.315  13.225 -0.2484  0.4612  0.3839
  137CHL1  H11A16359   0.957   1.248  13.285 -0.1945  1.8499  2.0711
  137CHL1  H11B16360   0.959   1.393  13.177 -0.4282 -1.7147 -3.3703
  137CHL1    C916361   1.086   1.234  13.105  0.1934  0.2085 -0.1909
  137CHL1    H916362   1.140   1.313  13.049 -0.5312  2.4579  2.1243
  137CHL1   C1016363   0.977   1.165  13.011  0.2708 -0.0516  0.2333
  137CHL1   C1916364   0.885   1.069  13.090 -0.5389  0.0270 -0.4500
  137CHL1  H19A16365   0.947   0.993  13.142 -0.9012  0.1177  0.1246
  137CHL1  H19B16366   0.834   1.129  13.169  0.4856 -0.2550  0.4522
  137CHL1  H19C16367   0.810   1.006  13.037 -0.0294 -0.0847 -1.0411
  137CHL1    C116368   0.884   1.277  12.947 -0.0037 -0.1651  1.4095
  137CHL1   H1A16369   0.824   1.325  13.027  0.9173  1.8768  0.9397
  137CHL1   H1B16370   0.945   1.357  12.900 -2.4621 -1.1361 -4.3605
  137CHL1    C216371   0.796   1.229  12.835  0.4713  0.5896 -0.4902
  137CHL1   H2A16372   0.733   1.309  12.789  0.3125 -0.2976 -1.8690
  137CHL1   H2B16373   0.724   1.153  12.873  0.7426  0.8151  0.5064
  137CHL1   C2016374   1.372   1.357  13.579  0.3694 -0.4909 -0.6506
  137CHL1   H2016375   1.347   1.272  13.645 -0.8648 -0.5152 -1.1185
  137CHL1   C2116376   1.272   1.476  13.595 -0.4779  0.2466 -0.0830
  137CHL1  H21A16377   1.172   1.434  13.572 -0.3192  0.6572 -1.6083
  137CHL1  H21B16378   1.292   1.560  13.525 -1.0883  0.4613 -0.0056
  137CHL1  H21C16379   1.261   1.517  13.698 -0.4016  2.5239 -0.9325
  137CHL1   C2216380   1.519   1.393  13.628 -0.0405 -0.6457 -0.6005
  137CHL1  H22A16381   1.578   1.300  13.617 -0.2355 -0.7095 -1.1411
  137CHL1  H22B16382   1.564   1.470  13.562  0.0978  0.6848  0.9756
  137CHL1   C2316383   1.529   1.436  13.778  0.4081  0.1705 -0.4474
  137CHL1  H23A16384   1.633   1.447  13.815 -0.1636  1.5035  0.8511
  137CHL1  H23B16385   1.475   1.532  13.794  0.2471 -0.2287  1.7211
  137CHL1   C2416386   1.460   1.334  13.872 -0.6136 -0.7076  0.7686
  137CHL1  H24A16387   1.350   1.335  13.857 -0.6122  2.4063  0.4421
  137CHL1  H24B16388   1.511   1.238  13.846 -0.3158  0.3056 -2.9068
  137CHL1   C2516389   1.478   1.366  14.020 -0.5301  0.3746  0.2945
  137CHL1   H2516390   1.425   1.463  14.029 -2.2967 -0.4854 -0.3170
  137CHL1   C2616391   1.419   1.255  14.108  0.1481 -0.0585 -0.3703
  137CHL1  H26A16392   1.310   1.241  14.094 -0.0036  0.3317  0.3849
  137CHL1  H26B16393   1.460   1.152  14.093 -1.1276 -0.7842  0.9048
  137CHL1  H26C16394   1.420   1.281  14.216  1.2801  0.3853 -0.4729
  137CHL1   C2716395   1.628   1.383  14.061  0.0961 -0.0777  0.1943
  137CHL1  H27A16396   1.677   1.468  14.009  0.7405 -0.6731 -0.2051
  137CHL1  H27B16397   1.627   1.402  14.171 -1.4407  3.4736 -0.3143
  137CHL1  H27C16398   1.681   1.292  14.025 -0.7480 -1.1948  1.6662
  138CHL1    C316399   6.722   0.237  13.032  0.4817  0.4282 -0.7148
  138CHL1    H316400   6.620   0.266  13.064  1.2067  0.8517  1.3396
  138CHL1    O316401   6.713   0.191  12.895 -0.1771  0.1692 -0.3022
  138CHL1   H3'16402   6.806   0.184  12.872  0.1241 -2.0348  1.2244
  138CHL1    C416403   6.810   0.358  13.050 -0.7429  0.0905 -0.1404
  138CHL1   H4A16404   6.916   0.337  13.024 -1.5716 -2.9850 -1.5033
  138CHL1   H4B16405   6.787   0.432  12.970  0.2111  0.7513  0.1710
  138CHL1    C516406   6.801   0.408  13.191 -0.4468 -0.0275  1.2135
  138CHL1    C616407   6.771   0.539  13.219 -0.4373 -0.4312 -1.3029
  138CHL1    H616408   6.759   0.613  13.139  1.0534 -0.6429 -1.7537
  138CHL1    C716409   6.770   0.594  13.361 -0.2963 -0.0217  0.1760
  138CHL1   H7A16410   6.809   0.697  13.363 -0.9250  0.3164 -2.0537
  138CHL1   H7B16411   6.669   0.585  13.407 -0.6850 -0.1918 -0.6888
  138CHL1    C816412   6.851   0.506  13.463  0.4356  0.4698  0.4517
  138CHL1    H816413   6.960   0.521  13.452  0.8249  0.2373  3.3862
  138CHL1   C1416414   6.824   0.544  13.601 -0.1433 -0.0847 -0.3285
  138CHL1   H1416415   6.714   0.527  13.608  0.0823 -1.5056  0.3820
  138CHL1   C1516416   6.821   0.691  13.645  0.3607  0.1033 -0.1976
  138CHL1  H15A16417   6.915   0.749  13.628  1.2329 -1.3610 -0.4795
  138CHL1  H15B16418   6.730   0.749  13.616  0.2225 -0.1273 -0.2232
  138CHL1   C1616419   6.817   0.682  13.796  0.1145 -0.0244 -0.6938
  138CHL1  H16A16420   6.904   0.733  13.842  0.1805 -2.0419  1.6406
  138CHL1  H16B16421   6.723   0.702  13.851  0.1764  0.0706 -0.6219
  138CHL1   C1716422   6.835   0.524  13.827  0.1460 -0.3601 -0.3737
  138CHL1   H1716423   6.730   0.488  13.815 -0.3026  0.9559 -0.5138
  138CHL1   C1316424   6.891   0.459  13.708 -0.5702  0.0112  0.7355
  138CHL1   C1816425   7.044   0.480  13.713  0.2922  0.0956  0.5289
  138CHL1  H18A16426   7.080   0.420  13.800 -2.0002 -3.6737 -0.8608
  138CHL1  H18B16427   7.100   0.442  13.626  0.5438 -0.8165  1.0777
  138CHL1  H18C16428   7.069   0.588  13.715 -0.8009  0.4925 -2.2939
  138CHL1   C1216429   6.855   0.311  13.686  0.2315 -0.2146  0.4439
  138CHL1  H12A16430   6.908   0.249  13.762  0.3124 -0.1618  0.4312
  138CHL1  H12B16431   6.745   0.303  13.698 -0.2645  3.7292 -0.1806
  138CHL1   C1116432   6.895   0.264  13.544  0.6942  0.1930 -0.1775
  138CHL1  H11A16433   7.004   0.280  13.530  0.7456 -0.2334 -0.2828
  138CHL1  H11B16434   6.886   0.153  13.537  0.1198  0.0342  2.1009
  138CHL1    C916435   6.823   0.355  13.444 -0.0148  0.2605 -0.4958
  138CHL1    H916436   6.714   0.347  13.460 -0.1867  0.4164 -1.4806
  138CHL1   C1016437   6.842   0.307  13.297 -0.3475  0.1226 -0.9466
  138CHL1   C1916438   6.995   0.283  13.273  0.4154  0.0611  0.0575
  138CHL1  H19A16439   7.018   0.184  13.318 -0.4415 -0.1501  0.0559
  138CHL1  H19B16440   7.029   0.282  13.167  2.4075 -1.5380  0.6581
  138CHL1  H19C16441   7.059   0.355  13.328  1.6753 -1.5226  0.7421
  138CHL1    C116442   6.762   0.184  13.280  0.1234 -0.0203 -0.1081
  138CHL1   H1A16443   6.801   0.108  13.350  0.1780  1.1752  1.1986
  138CHL1   H1B16444   6.654   0.204  13.296  0.1625 -1.0660  1.7895
  138CHL1    C216445   6.769   0.123  13.133 -0.0087 -0.1676  0.1857
  138CHL1   H2A16446   6.691   0.048  13.106 -1.3570  1.5315 -0.8633
  138CHL1   H2B16447   6.872   0.087  13.112  0.0592 -1.1888  2.0292
  138CHL1   C2016448   6.878   0.480  13.972  0.2283  0.3892  1.0588
  138CHL1   H2016449   6.920   0.377  13.967  3.0245  1.1386  4.6597
  138CHL1   C2116450   6.755   0.472  14.052  0.6358 -0.6887  0.0623
  138CHL1  H21A16451   6.702   0.570  14.059 -0.0432 -0.9801 -0.7783
  138CHL1  H21B16452   6.775   0.440  14.156 -2.2673 -0.0687  0.9227
  138CHL1  H21C16453   6.683   0.395  14.018  0.2960 -0.8308  1.0618
  138CHL1   C2216454   6.979   0.570  14.035  0.1553 -0.5251 -0.5930
  138CHL1  H22A16455   7.062   0.596  13.966  0.0845  0.0075 -0.4779
  138CHL1  H22B16456   6.932   0.667  14.061  1.4977 -0.4932  2.0127
  138CHL1   C2316457   7.039   0.522  14.164  0.0356  0.5068 -0.3827
  138CHL1  H23A16458   6.952   0.491  14.227  0.3037 -1.2626 -0.8302
  138CHL1  H23B16459   7.091   0.425  14.146 -0.0360  0.6977 -1.6631
  138CHL1   C2416460   7.131   0.619  14.252 -0.1043 -0.0941  0.0861
  138CHL1  H24A16461   7.185   0.678  14.174  0.9982  0.6497  1.3750
  138CHL1  H24B16462   7.057   0.682  14.307 -0.9557 -0.2401 -0.8515
  138CHL1   C2516463   7.215   0.564  14.358  0.3138 -0.1445  0.4471
  138CHL1   H2516464   7.263   0.473  14.315  0.2966  0.1214 -0.1283
  138CHL1   C2616465   7.322   0.661  14.413 -0.8521 -0.3962  0.1325
  138CHL1  H26A16466   7.271   0.748  14.461  1.4591  1.2381 -0.1550
  138CHL1  H26B16467   7.382   0.610  14.492 -1.5863  0.7505  1.4995
  138CHL1  H26C16468   7.388   0.705  14.335 -1.0659  2.3243  1.3347
  138CHL1   C2716469   7.135   0.513  14.486 -0.5287 -0.0348 -0.1253
  138CHL1  H27A16470   7.102   0.599  14.548  1.3450 -1.7591  3.5188
  138CHL1  H27B16471   7.058   0.439  14.455  1.1020 -1.4823 -0.8791
  138CHL1  H27C16472   7.216   0.464  14.544  0.7357  0.0288 -1.7383
  139CHL1    C316473   0.896   6.597  13.094  0.2917 -0.0055 -0.1449
  139CHL1    H316474   0.851   6.507  13.047  0.3998 -0.2838  0.2793
  139CHL1    O316475   0.851   6.718  13.031 -0.1921  0.1475  0.1306
  139CHL1   H3'16476   0.830   6.694  12.941  2.5222  0.5446 -0.6896
  139CHL1    C416477   0.858   6.598  13.245  0.3993 -0.6263 -1.1309
  139CHL1   H4A16478   0.889   6.689  13.301 -3.1910  0.8001 -1.2191
  139CHL1   H4B16479   0.747   6.601  13.247  0.4181  1.5713 -0.5478
  139CHL1    C516480   0.922   6.483  13.322  0.8652  0.8169  0.2974
  139CHL1    C616481   0.843   6.404  13.395 -0.4909  0.6105  0.8323
  139CHL1    H616482   0.735   6.423  13.406 -1.4391 -3.5505  0.3910
  139CHL1    C716483   0.902   6.296  13.478 -0.6488 -0.2660 -0.1303
  139CHL1   H7A16484   0.865   6.297  13.583  1.8520 -0.7234  0.8081
  139CHL1   H7B16485   0.883   6.194  13.437  1.5557 -1.1543  0.8976
  139CHL1    C816486   1.058   6.293  13.495  0.2111  0.0941  0.3615
  139CHL1    H816487   1.083   6.374  13.567 -2.1844  0.8760  0.4181
  139CHL1   C1416488   1.118   6.163  13.542 -0.0555  0.4008  0.2391
  139CHL1   H1416489   1.104   6.102  13.450 -0.0371  0.7620 -0.0045
  139CHL1   C1516490   1.049   6.088  13.654 -0.1174  0.3024 -0.0085
  139CHL1  H15A16491   1.031   6.165  13.732 -0.7033 -1.0133  1.2004
  139CHL1  H15B16492   0.956   6.033  13.630 -0.2854  0.8983 -0.7535
  139CHL1   C1616493   1.153   5.990  13.708 -0.1956  0.0595  0.5389
  139CHL1  H16A16494   1.189   6.012  13.811 -0.7721 -0.0734  0.7723
  139CHL1  H16B16495   1.128   5.883  13.723 -0.7710 -0.1398 -1.4669
  139CHL1   C1716496   1.272   6.002  13.607  0.4182  0.4349 -0.4118
  139CHL1   H1716497   1.236   5.948  13.517  2.8277 -2.2622  0.0806
  139CHL1   C1316498   1.267   6.153  13.562 -0.4835  0.1267 -0.1138
  139CHL1   C1816499   1.316   6.250  13.677  0.0688  0.1219 -0.4690
  139CHL1  H18A16500   1.253   6.250  13.769  1.6119 -1.8418  0.6781
  139CHL1  H18B16501   1.422   6.232  13.704 -0.2931  1.7299  2.4198
  139CHL1  H18C16502   1.314   6.353  13.637 -0.6637 -0.1569 -1.1976
  139CHL1   C1216503   1.344   6.185  13.435  0.1104 -0.2333  0.2680
  139CHL1  H12A16504   1.454   6.196  13.443  0.0818  1.1883 -0.8019
  139CHL1  H12B16505   1.322   6.106  13.360 -1.9343  1.2910 -0.8640
  139CHL1   C1116506   1.286   6.317  13.372  0.1215 -0.0985  0.8528
  139CHL1  H11A16507   1.326   6.398  13.436  0.5250  0.4018 -0.0096
  139CHL1  H11B16508   1.335   6.315  13.272  0.6977 -0.4857  1.1335
  139CHL1    C916509   1.128   6.329  13.365 -0.0531 -0.2199 -0.1992
  139CHL1    H916510   1.091   6.252  13.294 -0.9024 -0.2302  0.2407
  139CHL1   C1016511   1.073   6.459  13.305 -0.7643  0.0642  0.5229
  139CHL1   C1916512   1.143   6.572  13.376  0.0439  0.5780  0.1909
  139CHL1  H19A16513   1.107   6.673  13.346  0.4272  0.8136  0.5202
  139CHL1  H19B16514   1.125   6.564  13.485  2.4843  0.2901  0.6146
  139CHL1  H19C16515   1.253   6.568  13.361 -0.1001 -0.8340 -0.7375
  139CHL1    C116516   1.108   6.464  13.152 -0.6067  0.3145  0.2102
  139CHL1   H1A16517   1.219   6.459  13.142 -0.7431  0.8614 -2.3401
  139CHL1   H1B16518   1.071   6.375  13.097 -0.9088  0.2308  0.5501
  139CHL1    C216519   1.047   6.593  13.083  0.3235 -0.3109  0.0858
  139CHL1   H2A16520   1.073   6.586  12.975  0.7938 -0.8270  0.2285
  139CHL1   H2B16521   1.087   6.684  13.134 -1.0255  0.4483 -0.1461
  139CHL1   C2016522   1.413   5.949  13.655  0.6781 -0.3885  0.1954
  139CHL1   H2016523   1.491   6.011  13.606  1.4101 -2.2458 -1.1027
  139CHL1   C2116524   1.425   5.801  13.601 -0.0358 -0.2401  0.1973
  139CHL1  H21A16525   1.429   5.802  13.490  1.4904 -2.0253  0.1837
  139CHL1  H21B16526   1.337   5.743  13.637 -1.1050  1.0169 -0.2976
  139CHL1  H21C16527   1.516   5.745  13.630 -0.6286 -1.7207 -0.6488
  139CHL1   C2216528   1.437   5.939  13.808 -0.2420 -0.6835 -0.0877
  139CHL1  H22A16529   1.419   6.046  13.833  0.1162  0.2621 -3.3702
  139CHL1  H22B16530   1.373   5.861  13.854 -2.0794  0.0640 -1.2490
  139CHL1   C2316531   1.581   5.920  13.841 -0.0716 -0.3038  0.2530
  139CHL1  H23A16532   1.617   5.818  13.816  1.6116  0.2061  0.4429
  139CHL1  H23B16533   1.634   5.992  13.774 -1.6769  2.4992  1.8166
  139CHL1   C2416534   1.602   5.953  13.986  0.0827  0.2072  0.1849
  139CHL1  H24A16535   1.584   6.062  13.995  0.5743  0.4928 -1.8507
  139CHL1  H24B16536   1.523   5.911  14.052 -0.7788  1.4318 -0.0389
  139CHL1   C2516537   1.742   5.920  14.041  0.0696  0.2697  1.2039
  139CHL1   H2516538   1.745   5.952  14.147 -1.7112  1.5065  0.9191
  139CHL1   C2616539   1.789   5.776  14.036 -0.4686 -0.4722  0.3342
  139CHL1  H26A16540   1.879   5.759  14.099 -0.2982 -0.8124 -0.0025
  139CHL1  H26B16541   1.707   5.708  14.068  1.9589 -3.1472  1.2476
  139CHL1  H26C16542   1.838   5.745  13.942  1.7315 -1.1942  1.6573
  139CHL1   C2716543   1.841   6.011  13.978  0.1119 -0.1592 -0.3550
  139CHL1  H27A16544   1.808   6.117  13.984  2.1531  0.8666 -4.3016
  139CHL1  H27B16545   1.949   5.998  14.002  0.0761  2.0170  1.2892
  139CHL1  H27C16546   1.831   5.994  13.869 -0.0017  0.5397 -0.4552
  140CHL1    C316547   7.299   0.185  12.968 -0.1284 -0.0766 -0.0663
  140CHL1    H316548   7.191   0.207  12.989 -0.3336 -1.0800 -0.0352
  140CHL1    O316549   7.322   0.178  12.829 -0.2532  0.4411  0.1098
  140CHL1   H3'16550   7.241   0.212  12.790 -1.0041  1.0977  2.1613
  140CHL1    C416551   7.398   0.276  13.036  0.4475  0.9267 -0.2160
  140CHL1   H4A16552   7.501   0.242  13.012  0.3158  0.0734  0.4101
  140CHL1   H4B16553   7.399   0.375  12.985  0.5350 -0.0012 -2.0688
  140CHL1    C516554   7.386   0.284  13.193  0.0934  0.6665 -0.1248
  140CHL1    C616555   7.359   0.392  13.265 -0.1775  0.2142  0.4491
  140CHL1    H616556   7.355   0.486  13.208  2.8048 -1.3158 -2.7065
  140CHL1    C716557   7.359   0.396  13.413 -0.2521  0.7590  0.2390
  140CHL1   H7A16558   7.409   0.491  13.440  1.0667  0.7760 -2.0453
  140CHL1   H7B16559   7.253   0.406  13.446 -0.8796 -0.3915 -1.3044
  140CHL1    C816560   7.418   0.269  13.478  1.0013  0.3792 -0.0380
  140CHL1    H816561   7.526   0.279  13.457  0.9580  0.2839 -0.3012
  140CHL1   C1416562   7.398   0.277  13.629 -0.0250  0.6030 -0.9422
  140CHL1   H1416563   7.288   0.270  13.644 -0.0316  0.5436 -1.0184
  140CHL1   C1516564   7.436   0.405  13.708  0.5370 -0.1115  0.4110
  140CHL1  H15A16565   7.536   0.444  13.677  1.1183  0.8899  3.2390
  140CHL1  H15B16566   7.342   0.462  13.691  0.5659 -0.5855 -1.5649
  140CHL1   C1616567   7.445   0.365  13.861  0.1650  0.2539  0.4407
  140CHL1  H16A16568   7.546   0.386  13.902 -0.1336  1.4166  0.6270
  140CHL1  H16B16569   7.380   0.423  13.931 -0.1722 -0.8172  1.0427
  140CHL1   C1716570   7.412   0.212  13.867 -0.1423 -0.2779  0.0464
  140CHL1   H1716571   7.303   0.193  13.875  0.1098 -2.5488 -0.9076
  140CHL1   C1316572   7.436   0.157  13.712 -1.1957 -0.3044  0.1772
  140CHL1   C1816573   7.594   0.131  13.694 -0.8093 -0.3786 -0.0914
  140CHL1  H18A16574   7.657   0.205  13.748 -1.9854  0.5237  0.0787
  140CHL1  H18B16575   7.618   0.028  13.728 -0.6128 -0.7203 -1.2118
  140CHL1  H18C16576   7.634   0.133  13.590  0.9392  0.9544  0.5597
  140CHL1   C1216577   7.364   0.037  13.651 -0.3350  0.4001  0.0933
  140CHL1  H12A16578   7.401  -0.054  13.701 -2.3975  0.5602  2.0989
  140CHL1  H12B16579   7.256   0.028  13.678 -0.4267 -0.2764 -0.4780
  140CHL1   C1116580   7.385   0.019  13.497  0.8775  0.0469 -0.6358
  140CHL1  H11A16581   7.488  -0.022  13.495  0.4313 -1.6072  2.7181
  140CHL1  H11B16582   7.325  -0.062  13.450  0.3223 -0.1682  0.3955
  140CHL1    C916583   7.362   0.142  13.410  0.0784 -0.0117 -0.0421
  140CHL1    H916584   7.252   0.150  13.429  0.2205 -1.3733  1.6242
  140CHL1   C1016585   7.397   0.141  13.257  0.1675  0.4721 -0.4369
  140CHL1   C1916586   7.544   0.085  13.244  0.5318 -0.1653  0.0834
  140CHL1  H19A16587   7.550  -0.012  13.298 -1.2522 -0.1523  0.3619
  140CHL1  H19B16588   7.570   0.062  13.138 -0.2570 -1.1338  0.0874
  140CHL1  H19C16589   7.622   0.153  13.286 -1.2170  1.6914  0.4742
  140CHL1    C116590   7.302   0.048  13.178  0.3713 -0.2423  0.2077
  140CHL1   H1A16591   7.331  -0.053  13.213  2.5392  1.2120  2.9513
  140CHL1   H1B16592   7.197   0.068  13.209  0.6472  3.7130 -0.9012
  140CHL1    C216593   7.314   0.050  13.026  0.5419  0.7821 -0.1375
  140CHL1   H2A16594   7.231  -0.015  12.990 -2.0744  2.1559  2.9594
  140CHL1   H2B16595   7.408   0.002  12.991 -0.0425  0.4146 -1.2520
  140CHL1   C2016596   7.491   0.147  13.986 -0.4947 -0.5078 -0.3272
  140CHL1   H2016597   7.599   0.169  13.974 -0.0607 -2.9838 -1.5596
  140CHL1   C2116598   7.469  -0.013  13.989  0.3160 -0.8294  0.0964
  140CHL1  H21A16599   7.358  -0.021  13.990  0.3413 -1.2383  0.2353
  140CHL1  H21B16600   7.506  -0.063  14.082  1.2999 -0.6211 -0.1693
  140CHL1  H21C16601   7.497  -0.071  13.898 -1.0170  0.6751 -1.3332
  140CHL1   C2216602   7.446   0.200  14.127  0.2801 -0.1883 -0.0489
  140CHL1  H22A16603   7.447   0.310  14.117  2.1385  0.0299  1.7837
  140CHL1  H22B16604   7.342   0.164  14.142  0.1482 -0.7525 -2.0515
  140CHL1   C2316605   7.527   0.159  14.257 -0.1529  0.1197  0.8074
  140CHL1  H23A16606   7.530   0.049  14.263 -0.9882 -0.0449 -1.0432
  140CHL1  H23B16607   7.631   0.193  14.234 -1.1218  2.1564 -0.8887
  140CHL1   C2416608   7.485   0.213  14.390 -0.8485  0.6861  0.0512
  140CHL1  H24A16609   7.464   0.322  14.389 -1.5385  0.5541 -0.1616
  140CHL1  H24B16610   7.393   0.156  14.415 -2.4612  2.8620 -0.6707
  140CHL1   C2516611   7.581   0.187  14.509  0.0170  0.1850 -0.5789
  140CHL1   H2516612   7.630   0.087  14.501  2.4125  1.3934 -2.6632
  140CHL1   C2616613   7.503   0.204  14.643  1.0160 -0.4009  0.4905
  140CHL1  H26A16614   7.463   0.307  14.635  1.9335 -0.1007 -0.5924
  140CHL1  H26B16615   7.422   0.128  14.650 -0.5907  1.1170 -0.7296
  140CHL1  H26C16616   7.579   0.197  14.724  0.5936  1.6091  1.1138
  140CHL1   C2716617   7.697   0.286  14.509 -0.3302  0.2276  0.5225
  140CHL1  H27A16618   7.749   0.274  14.412 -1.8695  1.5110 -0.5039
  140CHL1  H27B16619   7.668   0.393  14.508 -1.4675  0.0003 -3.0051
  140CHL1  H27C16620   7.763   0.269  14.597 -1.7418 -1.6145  1.2840
  141DOPC     N16621   3.533   3.046  16.490  1.1956 -0.4592  1.1142
  141DOPC   C1216622   3.566   3.201  16.524 -0.0584 -0.6396 -0.1876
  141DOPC  H12A16623   3.490   3.237  16.592 -1.6449 -2.5107 -0.8401
  141DOPC  H12B16624   3.555   3.257  16.433 -1.5848  0.9762  0.9213
  141DOPC   C1316625   3.402   3.044  16.425  0.2429 -0.1152  0.6890
  141DOPC  H13A16626   3.321   3.065  16.494 -0.5749  1.3593 -0.6453
  141DOPC  H13B16627   3.392   3.119  16.347  0.0837 -0.0157  0.8052
  141DOPC  H13C16628   3.393   2.948  16.377 -2.1575  0.7881 -0.8593
  141DOPC   C1416629   3.539   2.960  16.612  0.1765  0.4476  0.5716
  141DOPC  H14A16630   3.638   2.960  16.655 -0.1573  0.0984  1.3705
  141DOPC  H14B16631   3.467   2.993  16.686  1.4264  3.0380  0.7313
  141DOPC  H14C16632   3.515   2.860  16.579 -2.4319  1.2720 -0.3020
  141DOPC   C1516633   3.641   3.001  16.400 -0.2762  0.4052 -0.2457
  141DOPC  H15A16634   3.622   3.049  16.305 -0.5467  2.2777  0.6955
  141DOPC  H15B16635   3.630   2.894  16.392 -1.1324  0.0757  3.3353
  141DOPC  H15C16636   3.742   3.032  16.422 -0.4268  1.2918 -0.7541
  141DOPC   C1116637   3.705   3.249  16.565 -0.3965  0.3042 -0.3140
  141DOPC  H11A16638   3.690   3.353  16.602 -0.4551 -0.4400  1.8911
  141DOPC  H11B16639   3.732   3.178  16.645  0.4799  0.1098 -0.7699
  141DOPC     P16640   3.794   3.351  16.346  0.0271  0.3316 -0.3857
  141DOPC   O1316641   3.815   3.475  16.414  0.6660 -0.7092  0.3654
  141DOPC   O1416642   3.665   3.335  16.282  0.6391 -0.0580  0.2939
  141DOPC   O1216643   3.806   3.239  16.455 -0.1841 -0.3585  0.0476
  141DOPC   O1116644   3.908   3.325  16.244 -0.7411 -0.5145 -0.0323
  141DOPC    C116645   3.934   3.194  16.193  0.2463 -0.5610 -0.3988
  141DOPC    HA16646   3.883   3.114  16.250 -0.0716  0.4190  0.7373
  141DOPC    HB16647   4.041   3.169  16.213 -0.1772 -0.1821  2.9908
  141DOPC    C216648   3.899   3.187  16.042  0.3728  0.0954  0.7005
  141DOPC    HS16649   3.981   3.131  15.993  0.1363 -2.5448  3.0813
  141DOPC   O2116650   3.875   3.321  15.984  0.5215  0.5058  0.4203
  141DOPC   C2116651   3.919   3.343  15.867 -0.2157 -0.4674  0.3132
  141DOPC   O2216652   3.971   3.263  15.789 -0.0026 -0.2621 -0.3201
  141DOPC   C2216653   3.890   3.489  15.828 -0.1869 -0.5043  0.6903
  141DOPC   H2R16654   3.911   3.556  15.915  0.0252 -0.9376  0.9790
  141DOPC   H2S16655   3.782   3.503  15.806 -0.5178 -0.7159  2.0871
  141DOPC    C316656   3.767   3.093  16.016  0.0022  0.0971  0.0595
  141DOPC    HX16657   3.691   3.120  16.093  0.9233  2.3840  0.2799
  141DOPC    HY16658   3.804   2.994  16.048 -0.4414 -1.0655 -2.7774
  141DOPC   O3116659   3.719   3.097  15.883  0.5091 -0.0342  0.8620
  141DOPC   C3116660   3.735   2.990  15.804 -0.7275  0.3570  0.3266
  141DOPC   O3216661   3.786   2.887  15.845 -0.2065  0.1615 -0.0783
  141DOPC   C3216662   3.682   3.011  15.657 -0.2607  0.5880  0.3036
  141DOPC   H2X16663   3.586   3.066  15.662 -0.9417 -0.0771 -3.2038
  141DOPC   H2Y16664   3.750   3.081  15.604 -0.1005 -0.4347 -0.8997
  141DOPC   C2316665   3.971   3.538  15.708  0.7248  0.0828  0.4552
  141DOPC   H3R16666   4.080   3.531  15.728  1.0714  0.7341 -1.1198
  141DOPC   H3S16667   3.960   3.647  15.692  4.3056  0.5760  0.5760
  141DOPC   C2416668   3.936   3.482  15.574  0.2920  0.8028  0.8813
  141DOPC   H4R16669   3.825   3.476  15.562  0.3298  0.7538  0.5348
  141DOPC   H4S16670   3.973   3.378  15.563  2.1872  1.7129 -2.8760
  141DOPC   C2516671   3.997   3.559  15.456  0.0134  0.1373  0.3196
  141DOPC   H5R16672   4.108   3.555  15.463 -0.0092 -1.3288  0.2350
  141DOPC   H5S16673   3.982   3.669  15.456  0.6847  0.3203 -2.7672
  141DOPC   C2616674   3.969   3.495  15.319 -0.6909  0.4663 -0.8607
  141DOPC   H6R16675   3.862   3.475  15.298 -0.8944 -0.4574  0.9271
  141DOPC   H6S16676   4.009   3.392  15.332 -1.5016  0.4233  1.8379
  141DOPC   C2716677   4.036   3.568  15.205  0.1343 -0.7724 -0.2024
  141DOPC   H7R16678   4.146   3.554  15.201  0.1446 -0.7495  0.0060
  141DOPC   H7S16679   4.031   3.679  15.210 -0.3840 -0.6153 -2.7888
  141DOPC   C2816680   3.993   3.518  15.064 -0.9711  0.3088 -0.0381
  141DOPC   H8R16681   4.050   3.575  14.987  0.8429 -2.7193 -1.1179
  141DOPC   H8S16682   3.887   3.543  15.043 -0.8905 -0.5313 -1.5284
  141DOPC   C2916683   4.038   3.371  15.056  0.2634 -0.4113  0.2860
  141DOPC   H9R16684   4.144   3.350  15.075  0.0491 -2.3859 -0.4364
  141DOPC  C21016685   3.964   3.276  14.986  0.4071  0.2926 -0.1652
  141DOPC  H10R16686   4.007   3.181  14.949 -0.0521  0.4741 -1.1961
  141DOPC  C21116687   3.832   3.303  14.919 -0.7176  0.4175 -0.0287
  141DOPC  H11R16688   3.832   3.252  14.820  2.8577  3.5036 -1.8843
  141DOPC  H11S16689   3.814   3.411  14.902  1.0779  0.8743  0.7334
  141DOPC  C21216690   3.712   3.256  15.002  0.0697 -0.2604  0.2562
  141DOPC  H12R16691   3.622   3.266  14.938  0.8069  1.0638 -0.6073
  141DOPC  H12S16692   3.708   3.316  15.096  0.0713 -3.0189  2.1543
  141DOPC  C21316693   3.706   3.108  15.039 -1.0694  0.0995  0.4047
  141DOPC  H13R16694   3.797   3.088  15.101 -0.4405  0.1331 -0.4953
  141DOPC  H13S16695   3.724   3.043  14.951 -0.9643 -0.4766  0.8437
  141DOPC  C21416696   3.593   3.071  15.130  0.1455  0.3709  0.4508
  141DOPC  H14R16697   3.600   3.156  15.201 -1.0586  1.9248 -1.1914
  141DOPC  H14S16698   3.622   2.975  15.177 -0.0218 -1.0811 -2.1927
  141DOPC  C21516699   3.452   3.043  15.072 -0.0401 -0.7363 -0.4874
  141DOPC  H15R16700   3.416   3.144  15.041  0.1758 -0.6741 -0.5407
  141DOPC  H15S16701   3.395   3.004  15.159  1.1038 -1.5622 -0.0904
  141DOPC  C21616702   3.448   2.949  14.956 -0.0190  0.3359  0.2235
  141DOPC  H16R16703   3.505   2.991  14.870  1.1075 -2.7274 -0.6647
  141DOPC  H16S16704   3.345   2.949  14.914 -0.1616 -0.6009  0.5580
  141DOPC  C21716705   3.502   2.811  14.990 -0.0087  0.2002  0.6977
  141DOPC  H17R16706   3.443   2.777  15.078  0.1254  1.5555  1.3368
  141DOPC  H17S16707   3.605   2.818  15.030  0.6606 -0.5440 -0.8365
  141DOPC  C21816708   3.489   2.705  14.878  0.0419 -0.4693  0.1711
  141DOPC  H18R16709   3.564   2.724  14.798  0.2416  1.5336  0.7988
  141DOPC  H18S16710   3.389   2.706  14.829  0.7918  0.2557 -1.4344
  141DOPC  H18T16711   3.504   2.603  14.919 -0.3074 -1.0094 -0.9826
  141DOPC   C3316712   3.677   2.874  15.578 -1.0072 -0.0006  0.1201
  141DOPC   H3X16713   3.614   2.797  15.626 -0.4416 -0.8722 -0.4974
  141DOPC   H3Y16714   3.778   2.829  15.570 -0.3395  1.0855  2.0223
  141DOPC   C3416715   3.611   2.886  15.442 -0.1556 -0.8147 -0.0437
  141DOPC   H4X16716   3.686   2.945  15.385 -2.9827  1.6946 -1.4421
  141DOPC   H4Y16717   3.514   2.941  15.447 -0.5688 -1.3178 -1.7988
  141DOPC   C3516718   3.598   2.753  15.372  1.3100  0.6513  0.4856
  141DOPC   H5X16719   3.666   2.674  15.410  0.6242 -1.4469 -2.3263
  141DOPC   H5Y16720   3.631   2.763  15.266  0.2093 -2.5315 -0.2719
  141DOPC   C3616721   3.457   2.698  15.377  0.6123  0.8554 -0.4403
  141DOPC   H6X16722   3.431   2.679  15.483  0.2885 -0.4360 -0.7434
  141DOPC   H6Y16723   3.382   2.763  15.327 -0.5133  1.0581  1.4175
  141DOPC   C3716724   3.460   2.558  15.309 -0.0672 -0.3050  0.1673
  141DOPC   H7X16725   3.516   2.578  15.216  0.1477  1.0354  0.5666
  141DOPC   H7Y16726   3.514   2.489  15.377 -2.3226 -2.8508 -0.4320
  141DOPC   C3816727   3.316   2.504  15.276  0.2320  0.6186 -0.4251
  141DOPC   H8X16728   3.275   2.575  15.200 -0.1817  0.5201 -0.2978
  141DOPC   H8Y16729   3.252   2.517  15.366  0.3169  3.7704 -0.6891
  141DOPC   C3916730   3.346   2.364  15.231 -0.0072  0.4616 -0.0875
  141DOPC   H9X16731   3.394   2.298  15.305 -0.1300  1.6993  1.1451
  141DOPC  C31016732   3.326   2.328  15.103  0.8518 -0.4938 -0.1562
  141DOPC  H10X16733   3.335   2.223  15.069 -0.7951  0.0061 -2.3673
  141DOPC  C31116734   3.262   2.414  14.990 -0.1852  0.3466 -0.2236
  141DOPC  H11X16735   3.330   2.500  14.972 -0.8681  0.6674 -1.3614
  141DOPC  H11Y16736   3.157   2.440  15.018 -0.8235  1.4938 -3.2836
  141DOPC  C31216737   3.253   2.323  14.862  0.3185  0.1088 -0.1518
  141DOPC  H12X16738   3.183   2.239  14.879 -0.0659  0.4068 -0.2589
  141DOPC  H12Y16739   3.347   2.267  14.843 -0.2401 -0.5452 -1.0564
  141DOPC  C31316740   3.218   2.415  14.745  0.8750  0.0635  0.6360
  141DOPC  H13X16741   3.139   2.489  14.766  0.9075  0.1568  0.4378
  141DOPC  H13Y16742   3.310   2.471  14.716  0.1853  0.0315 -1.9295
  141DOPC  C31416743   3.184   2.344  14.614 -0.2351  0.0731  0.4021
  141DOPC  H14X16744   3.256   2.262  14.593 -0.3737  0.1657 -0.5107
  141DOPC  H14Y16745   3.081   2.307  14.629 -0.2004 -0.2550 -0.1573
  141DOPC  C31516746   3.186   2.448  14.501 -0.5469  0.5460  0.2780
  141DOPC  H15X16747   3.290   2.486  14.497  0.1397 -1.2326  0.4949
  141DOPC  H15Y16748   3.108   2.520  14.532 -0.8476 -0.1572  1.1699
  141DOPC  C31616749   3.162   2.375  14.367  0.5157  0.2915 -0.4943
  141DOPC  H16X16750   3.251   2.315  14.338  0.4679  1.0157 -2.3338
  141DOPC  H16Y16751   3.076   2.307  14.382  3.1115 -2.6083  3.2375
  141DOPC  C31716752   3.125   2.470  14.247  0.1299  0.0596  0.3066
  141DOPC  H17X16753   3.153   2.415  14.155  3.0523 -0.2391  1.2566
  141DOPC  H17Y16754   3.016   2.490  14.241  0.2237  1.7238  2.4939
  141DOPC  C31816755   3.220   2.595  14.247  0.1337  0.2681 -0.0530
  141DOPC  H18X16756   3.203   2.661  14.334  0.6164 -0.6045  0.7196
  141DOPC  H18Y16757   3.329   2.574  14.240 -0.0551 -0.4121 -1.1835
  141DOPC  H18Z16758   3.209   2.657  14.155  1.1833  1.4371  0.5746
  142DOPC     N16759   4.703   4.339  16.216  0.0759 -0.0780 -0.4643
  142DOPC   C1216760   4.587   4.295  16.129 -0.0057  0.3830  0.3679
  142DOPC  H12A16761   4.536   4.382  16.090 -1.2589 -0.7663 -0.6982
  142DOPC  H12B16762   4.509   4.249  16.188  0.3252  0.5524  0.9332
  142DOPC   C1316763   4.651   4.431  16.319  0.3952 -0.6751  0.8873
  142DOPC  H13A16764   4.584   4.386  16.391 -0.7209 -1.1365 -0.3899
  142DOPC  H13B16765   4.739   4.474  16.365  0.9113  1.3323 -1.7502
  142DOPC  H13C16766   4.598   4.518  16.283  0.6019 -0.1725  1.7530
  142DOPC   C1416767   4.803   4.412  16.135 -0.9503  0.6273 -0.5080
  142DOPC  H14A16768   4.892   4.432  16.193 -1.6130 -1.1628  1.2593
  142DOPC  H14B16769   4.847   4.351  16.057  1.3023  0.2655  0.9358
  142DOPC  H14C16770   4.756   4.501  16.096 -0.5607  0.3094 -1.7452
  142DOPC   C1516771   4.780   4.235  16.288  0.8223  0.7108  0.5770
  142DOPC  H15A16772   4.878   4.263  16.323  0.5670  0.7021  1.3091
  142DOPC  H15B16773   4.791   4.149  16.224  0.5866  0.2169  1.1931
  142DOPC  H15C16774   4.726   4.194  16.372  1.0500 -1.0289 -0.0837
  142DOPC   C1116775   4.616   4.195  16.012  1.0548 -0.4532 -0.0024
  142DOPC  H11A16776   4.529   4.190  15.943  1.0947  0.5701 -0.1465
  142DOPC  H11B16777   4.693   4.239  15.944  0.2584  0.9166 -0.0434
  142DOPC     P16778   4.576   3.978  16.136  0.5411  0.0437  0.0042
  142DOPC   O1316779   4.445   4.040  16.166 -0.0269  0.0150  0.6471
  142DOPC   O1416780   4.661   3.952  16.254  0.1345  0.0341  0.3686
  142DOPC   O1216781   4.666   4.072  16.051 -0.1682  0.2081  0.2196
  142DOPC   O1116782   4.554   3.859  16.042 -1.2259  0.9438  0.8869
  142DOPC    C116783   4.477   3.850  15.919  0.1656  0.2593  0.2040
  142DOPC    HA16784   4.545   3.812  15.841  0.1035 -1.5867  1.0050
  142DOPC    HB16785   4.443   3.949  15.883 -0.6320 -0.8106 -2.1621
  142DOPC    C216786   4.351   3.765  15.938 -0.2494 -0.5083  0.3586
  142DOPC    HS16787   4.314   3.807  16.033  0.3767 -0.3459  0.5316
  142DOPC   O2116788   4.409   3.632  15.950  0.4575  0.2553 -0.2745
  142DOPC   C2116789   4.317   3.541  15.978 -0.8531 -0.1300  0.3225
  142DOPC   O2216790   4.211   3.562  16.035 -0.1178  0.1538 -0.0440
  142DOPC   C2216791   4.374   3.405  15.938 -0.0132  0.3491  0.3618
  142DOPC   H2R16792   4.345   3.332  16.017 -1.0460 -1.7046 -1.7769
  142DOPC   H2S16793   4.485   3.406  15.949 -0.0225 -1.8537  1.3671
  142DOPC    C316794   4.239   3.799  15.831 -0.4439  0.4651 -0.3181
  142DOPC    HX16795   4.206   3.902  15.857 -1.9854 -0.1772  0.4134
  142DOPC    HY16796   4.154   3.735  15.862 -0.2604  0.2450 -0.2685
  142DOPC   O3116797   4.284   3.769  15.699  0.2215 -0.1064  0.2262
  142DOPC   C3116798   4.335   3.884  15.634  0.1987  0.1396  0.0326
  142DOPC   O3216799   4.340   3.993  15.689 -0.4290 -0.1744  0.1441
  142DOPC   C3216800   4.383   3.854  15.487 -0.3239 -0.3754  0.3168
  142DOPC   H2X16801   4.330   3.767  15.442  1.5044  0.5556 -4.2153
  142DOPC   H2Y16802   4.356   3.943  15.426  1.1117 -0.0340  0.1420
  142DOPC   C2316803   4.324   3.354  15.804  0.3943  0.7881  0.6197
  142DOPC   H3R16804   4.217   3.324  15.794  0.8531 -0.3654 -1.2988
  142DOPC   H3S16805   4.377   3.257  15.793 -2.2076 -0.7033  0.3528
  142DOPC   C2416806   4.363   3.447  15.685  0.0826  0.4095 -0.5148
  142DOPC   H4R16807   4.470   3.472  15.701  0.0408  0.0398  0.4294
  142DOPC   H4S16808   4.303   3.541  15.679 -0.6081  0.1617  1.5188
  142DOPC   C2516809   4.332   3.374  15.553 -0.0316 -0.6122 -0.4207
  142DOPC   H5R16810   4.221   3.374  15.545 -0.2639  0.3663  1.9069
  142DOPC   H5S16811   4.365   3.268  15.552 -0.1913 -0.6670  0.1166
  142DOPC   C2616812   4.403   3.440  15.435 -0.0020  0.2181 -0.1180
  142DOPC   H6R16813   4.502   3.474  15.471 -0.8401  0.2214  2.4050
  142DOPC   H6S16814   4.344   3.534  15.432  1.2224  1.0165  0.1821
  142DOPC   C2716815   4.403   3.350  15.307 -0.1291  0.1740 -0.8278
  142DOPC   H7R16816   4.310   3.361  15.246 -1.2513 -0.1524  0.7428
  142DOPC   H7S16817   4.398   3.242  15.334 -2.8063  0.2159 -0.8165
  142DOPC   C2816818   4.511   3.393  15.205 -0.3392  0.5926 -0.1711
  142DOPC   H8R16819   4.603   3.413  15.263 -1.1457 -0.8029  1.6681
  142DOPC   H8S16820   4.487   3.491  15.158 -1.5915 -0.0999 -1.0405
  142DOPC   C2916821   4.523   3.277  15.105 -0.5233 -0.0025  0.7583
  142DOPC   H9R16822   4.577   3.191  15.147  0.7625  0.6923  0.5821
  142DOPC  C21016823   4.484   3.275  14.971  0.5545 -0.5710  0.4402
  142DOPC  H10R16824   4.509   3.188  14.909  1.2906  1.2171 -1.9033
  142DOPC  C21116825   4.419   3.384  14.885  0.0025  0.5169 -0.5111
  142DOPC  H11R16826   4.497   3.440  14.831  1.2517 -1.0280 -0.3840
  142DOPC  H11S16827   4.350   3.448  14.944 -2.0495 -1.2730 -0.8119
  142DOPC  C21216828   4.347   3.313  14.767 -0.2779 -0.0549 -0.0410
  142DOPC  H12R16829   4.270   3.248  14.813 -0.5268  0.4671  0.2898
  142DOPC  H12S16830   4.420   3.253  14.709 -0.0809  0.4997 -0.3743
  142DOPC  C21316831   4.290   3.419  14.667 -0.6732 -0.1249  0.1234
  142DOPC  H13R16832   4.379   3.461  14.614 -0.7740 -0.9493 -0.7193
  142DOPC  H13S16833   4.241   3.505  14.718 -2.5939 -0.1223 -1.5832
  142DOPC  C21416834   4.192   3.352  14.573  0.3913 -0.6812  0.4571
  142DOPC  H14R16835   4.118   3.319  14.649  1.1102  2.1467  2.5535
  142DOPC  H14S16836   4.240   3.272  14.513  1.7994 -0.2911  1.0261
  142DOPC  C21516837   4.130   3.454  14.464 -1.3904  0.5151 -1.0335
  142DOPC  H15R16838   4.213   3.481  14.395 -1.5144  0.8746 -1.0435
  142DOPC  H15S16839   4.115   3.548  14.521  3.1212  0.9729 -0.2556
  142DOPC  C21616840   4.007   3.400  14.394  0.0926 -0.8844 -1.0668
  142DOPC  H16R16841   3.932   3.358  14.465  1.4271  1.1473  1.7748
  142DOPC  H16S16842   4.035   3.326  14.317 -0.1030 -0.8439 -1.1764
  142DOPC  C21716843   3.942   3.510  14.307  0.0515 -0.3425 -0.1899
  142DOPC  H17R16844   4.005   3.545  14.222  0.8758 -0.5013  0.3379
  142DOPC  H17S16845   3.925   3.597  14.375  1.7628  1.0442 -1.4229
  142DOPC  C21816846   3.807   3.467  14.255  0.3862 -0.4467  0.2604
  142DOPC  H18R16847   3.819   3.388  14.178 -1.3581 -1.9423  1.4470
  142DOPC  H18S16848   3.745   3.555  14.227  0.6577 -0.3079  0.0916
  142DOPC  H18T16849   3.754   3.422  14.341 -1.3536  0.9384 -0.0345
  142DOPC   C3316850   4.533   3.837  15.489 -0.1886  0.3550  0.4995
  142DOPC   H3X16851   4.564   3.764  15.567  0.3362  0.3746  0.3123
  142DOPC   H3Y16852   4.582   3.931  15.521 -0.2664  0.0955  1.4420
  142DOPC   C3416853   4.586   3.798  15.354  0.3414  0.9724  1.2262
  142DOPC   H4X16854   4.533   3.705  15.325 -0.1063  1.8704 -1.0653
  142DOPC   H4Y16855   4.695   3.777  15.360  0.4169  0.6829 -0.7467
  142DOPC   C3516856   4.561   3.910  15.247 -0.2699  0.1624 -0.2674
  142DOPC   H5X16857   4.597   4.006  15.289 -0.5547 -0.5186  1.6807
  142DOPC   H5Y16858   4.453   3.909  15.225  0.0043 -0.3450 -1.6728
  142DOPC   C3616859   4.628   3.870  15.119 -1.1279 -0.1849  0.2193
  142DOPC   H6X16860   4.737   3.865  15.136 -1.3506  0.9417  2.2252
  142DOPC   H6Y16861   4.574   3.780  15.080 -1.1771 -0.9368  1.9496
  142DOPC   C3716862   4.588   3.971  15.006  0.5027  0.1581  0.6266
  142DOPC   H7X16863   4.508   4.040  15.039 -1.9126 -1.1477 -2.0226
  142DOPC   H7Y16864   4.674   4.039  14.986 -0.6198  0.8451 -2.5222
  142DOPC   C3816865   4.540   3.907  14.867  0.9886 -0.7967 -0.1264
  142DOPC   H8X16866   4.468   3.824  14.881  2.8217 -2.4051  0.1532
  142DOPC   H8Y16867   4.621   3.846  14.823 -1.0829 -0.9704 -4.1047
  142DOPC   C3916868   4.496   4.017  14.777  0.1252  0.2958  0.1577
  142DOPC   H9X16869   4.452   4.094  14.842  0.7571  1.5228 -0.8445
  142DOPC  C31016870   4.476   4.011  14.648  0.9202  0.1703  0.2695
  142DOPC  H10X16871   4.444   4.104  14.598  0.9769  0.2965  0.4684
  142DOPC  C31116872   4.505   3.903  14.554 -0.0655  0.0678  0.3349
  142DOPC  H11X16873   4.565   3.827  14.608  0.0263  0.1647  0.3694
  142DOPC  H11Y16874   4.568   3.938  14.468  0.1469  1.3228  0.9690
  142DOPC  C31216875   4.379   3.829  14.494 -0.3330  0.4426  0.3980
  142DOPC  H12X16876   4.301   3.829  14.573 -0.7600  1.1312 -0.0054
  142DOPC  H12Y16877   4.409   3.729  14.458  3.7895  2.0132 -1.1775
  142DOPC  C31316878   4.312   3.911  14.387  0.0890 -0.6827  0.6587
  142DOPC  H13X16879   4.267   4.000  14.436 -0.0452  0.0586 -0.7511
  142DOPC  H13Y16880   4.394   3.952  14.323 -2.0697  2.2665 -0.4718
  142DOPC  C31416881   4.207   3.841  14.301 -0.2606  1.2452 -0.6247
  142DOPC  H14X16882   4.249   3.742  14.275 -0.3256  1.0677 -0.0738
  142DOPC  H14Y16883   4.111   3.825  14.356 -0.5810  1.1508 -1.2083
  142DOPC  C31516884   4.170   3.923  14.170 -0.1778  0.4794 -0.0191
  142DOPC  H15X16885   4.264   3.939  14.114 -0.7385  0.8175 -0.8886
  142DOPC  H15Y16886   4.114   4.016  14.193 -2.5574 -1.0083  0.6214
  142DOPC  C31616887   4.075   3.834  14.079 -0.1048  0.0324  0.4423
  142DOPC  H16X16888   4.069   3.880  13.978 -0.2025 -0.5103  0.1933
  142DOPC  H16Y16889   4.130   3.738  14.078 -0.4915 -0.1928  0.2137
  142DOPC  C31716890   3.930   3.819  14.138  0.2633  0.4824  0.3324
  142DOPC  H17X16891   3.880   3.730  14.092  0.6351 -0.2300  1.2818
  142DOPC  H17Y16892   3.930   3.792  14.245 -0.2625  1.3674  0.5633
  142DOPC  C31816893   3.840   3.940  14.120  0.1045  0.3124  0.9212
  142DOPC  H18X16894   3.854   4.013  14.203 -0.3137  1.7278 -0.2265
  142DOPC  H18Y16895   3.864   3.988  14.023  1.0209 -0.8333  0.5610
  142DOPC  H18Z16896   3.736   3.902  14.133 -0.2519  1.3405  1.1471
  143DOPC     N16897   2.558   3.254  16.645 -0.3246 -0.3008  0.2106
  143DOPC   C1216898   2.597   3.369  16.740 -0.7645 -0.6765  0.2915
  143DOPC  H12A16899   2.652   3.325  16.822  0.3539 -0.6497 -0.4188
  143DOPC  H12B16900   2.505   3.407  16.782 -1.6374 -0.1406 -1.9269
  143DOPC   C1316901   2.684   3.197  16.585  0.0936 -0.1370 -0.0711
  143DOPC  H13A16902   2.725   3.273  16.521  0.0397  0.9054  1.0784
  143DOPC  H13B16903   2.757   3.170  16.660  1.8416  0.9928 -1.2850
  143DOPC  H13C16904   2.671   3.109  16.525 -0.0463 -0.5158  0.5055
  143DOPC   C1416905   2.473   3.292  16.536 -0.0361  1.0333  0.8978
  143DOPC  H14A16906   2.378   3.330  16.570  0.3935  1.7174  1.3724
  143DOPC  H14B16907   2.515   3.382  16.493  0.5501  1.2452  1.8895
  143DOPC  H14C16908   2.467   3.221  16.455  1.4506  2.5637 -0.6597
  143DOPC   C1516909   2.496   3.150  16.731 -0.4629 -0.2588  0.1666
  143DOPC  H15A16910   2.553   3.127  16.820  1.4724  1.6507 -0.5101
  143DOPC  H15B16911   2.486   3.060  16.672  3.9359 -0.2583 -0.9391
  143DOPC  H15C16912   2.405   3.192  16.770  0.0434  0.8722  0.1560
  143DOPC   C1116913   2.674   3.498  16.678  0.9733  0.1476  0.3167
  143DOPC  H11A16914   2.685   3.582  16.750  2.7048 -0.3443  0.6636
  143DOPC  H11B16915   2.772   3.457  16.647  0.5932 -0.5225 -0.0335
  143DOPC     P16916   2.546   3.689  16.537  0.0887 -0.4444  0.2017
  143DOPC   O1316917   2.464   3.712  16.657 -0.5381  0.3653 -0.3982
  143DOPC   O1416918   2.475   3.686  16.409  0.3616  0.1747 -0.0229
  143DOPC   O1216919   2.627   3.550  16.549 -0.1792  0.4083 -0.0916
  143DOPC   O1116920   2.667   3.795  16.531  0.7148 -0.6781  0.0181
  143DOPC    C116921   2.799   3.768  16.489  0.9400 -0.2825  0.0423
  143DOPC    HA16922   2.808   3.670  16.438  0.0483 -0.0485 -0.5882
  143DOPC    HB16923   2.867   3.775  16.576  0.6312 -1.0809  0.3482
  143DOPC    C216924   2.857   3.880  16.388  0.0988 -0.9819  0.4933
  143DOPC    HS16925   2.862   3.980  16.437  0.6683 -0.7393 -0.0461
  143DOPC   O2116926   2.773   3.884  16.270  0.3299  0.3192  0.6272
  143DOPC   C2116927   2.686   3.977  16.273  0.2107  0.3831 -0.0661
  143DOPC   O2216928   2.670   4.065  16.356  0.9147  0.2474 -0.1986
  143DOPC   C2216929   2.602   3.970  16.144  0.0248  0.0763 -0.8702
  143DOPC   H2R16930   2.492   3.969  16.160  0.3126 -0.4941  1.3545
  143DOPC   H2S16931   2.629   3.879  16.087  0.1601 -0.3394 -0.1513
  143DOPC    C316932   3.003   3.845  16.348  0.5154  0.1102 -0.3565
  143DOPC    HX16933   2.996   3.763  16.274 -2.5659  0.4893 -0.6202
  143DOPC    HY16934   3.066   3.822  16.436  1.5287  1.3919 -0.7152
  143DOPC   O3116935   3.066   3.952  16.279  0.5269  0.3751  0.6973
  143DOPC   C3116936   3.203   3.941  16.264 -0.1702 -0.2562 -1.2786
  143DOPC   O3216937   3.268   3.854  16.321  0.6867  0.3663 -0.1336
  143DOPC   C3216938   3.262   4.049  16.173  0.4722  0.0354  0.1762
  143DOPC   H2X16939   3.193   4.135  16.183  2.7741  1.9391  0.3036
  143DOPC   H2Y16940   3.353   4.085  16.224  0.7130  0.0871 -0.2922
  143DOPC   C2316941   2.638   4.096  16.060 -0.5981 -0.4997 -0.1874
  143DOPC   H3R16942   2.742   4.077  16.027 -0.1735 -0.1995  0.9535
  143DOPC   H3S16943   2.625   4.188  16.122 -0.2571 -0.8699  0.4365
  143DOPC   C2416944   2.560   4.088  15.929 -0.9920  0.3906 -0.5356
  143DOPC   H4R16945   2.454   4.100  15.959 -0.3417  1.2253  1.6555
  143DOPC   H4S16946   2.572   3.991  15.875 -0.3441 -0.0559  0.3818
  143DOPC   C2516947   2.591   4.210  15.840 -0.5015 -0.6889  0.4862
  143DOPC   H5R16948   2.701   4.214  15.825 -0.8108 -0.2881 -2.1493
  143DOPC   H5S16949   2.571   4.306  15.892  2.2584 -1.7157  3.8006
  143DOPC   C2616950   2.500   4.220  15.724  0.3123  0.3113  0.2961
  143DOPC   H6R16951   2.484   4.325  15.694  0.6431 -0.0420 -1.1703
  143DOPC   H6S16952   2.401   4.180  15.752  0.4387  0.4465  0.9556
  143DOPC   C2716953   2.559   4.148  15.603 -0.8041 -0.4501  0.6995
  143DOPC   H7R16954   2.553   4.040  15.629 -1.3150 -0.3342  1.0772
  143DOPC   H7S16955   2.663   4.182  15.587 -0.6516 -1.2207  0.0435
  143DOPC   C2816956   2.482   4.165  15.471 -0.3927  0.1785  0.9639
  143DOPC   H8R16957   2.550   4.121  15.395  1.2384  2.5589  0.9129
  143DOPC   H8S16958   2.479   4.274  15.448  0.1736  0.0469  0.2266
  143DOPC   C2916959   2.342   4.108  15.473  0.0773 -0.5324  0.7705
  143DOPC   H9R16960   2.263   4.182  15.490  0.4848 -0.1308  0.9216
  143DOPC  C21016961   2.317   3.978  15.443 -0.4043 -0.4161 -0.4454
  143DOPC  H10R16962   2.216   3.934  15.454 -0.4073  0.2410  3.3442
  143DOPC  C21116963   2.422   3.882  15.404 -0.0535 -0.1832  0.2226
  143DOPC  H11R16964   2.380   3.782  15.424 -1.0712 -0.1446 -1.5470
  143DOPC  H11S16965   2.522   3.905  15.447 -0.8033  2.0505  0.9135
  143DOPC  C21216966   2.432   3.887  15.251  0.3747 -0.0382 -0.1173
  143DOPC  H12R16967   2.477   3.987  15.231 -0.1301  0.1684 -0.2352
  143DOPC  H12S16968   2.333   3.878  15.200 -1.8145 -0.3103  3.8312
  143DOPC  C21316969   2.538   3.794  15.189 -0.2740  0.3413 -0.2402
  143DOPC  H13R16970   2.509   3.686  15.193 -0.8554  0.3375 -3.0133
  143DOPC  H13S16971   2.634   3.813  15.241  0.3545  2.4036 -2.0041
  143DOPC  C21416972   2.566   3.827  15.043 -0.0081 -0.4736  0.4963
  143DOPC  H14R16973   2.669   3.790  15.022  0.8760  2.1594 -0.1170
  143DOPC  H14S16974   2.569   3.938  15.037 -0.0118 -0.4149  1.4698
  143DOPC  C21516975   2.474   3.770  14.936 -0.5063 -0.0354  0.2567
  143DOPC  H15R16976   2.373   3.801  14.971  0.3535  1.0083  1.9362
  143DOPC  H15S16977   2.481   3.659  14.938 -0.5682 -0.0317  1.0607
  143DOPC  C21616978   2.493   3.827  14.798  0.4616  0.5508 -0.0410
  143DOPC  H16R16979   2.465   3.935  14.795 -1.0068  0.4303  3.7404
  143DOPC  H16S16980   2.416   3.781  14.733  1.2321  1.2711 -1.5118
  143DOPC  C21716981   2.632   3.816  14.728 -0.2816  0.3886 -0.1605
  143DOPC  H17R16982   2.670   3.712  14.727 -1.8429 -0.2109 -0.1727
  143DOPC  H17S16983   2.691   3.873  14.803  0.0478  0.3096 -0.3593
  143DOPC  C21816984   2.647   3.877  14.590 -0.7953  0.7023 -0.1025
  143DOPC  H18R16985   2.726   3.954  14.576 -1.8330  2.0494  1.1228
  143DOPC  H18S16986   2.565   3.939  14.548  2.1412  2.1537 -4.4315
  143DOPC  H18T16987   2.664   3.799  14.512 -1.8223  0.5499 -0.1964
  143DOPC   C3316988   3.271   4.001  16.029 -0.0331 -0.4628 -0.2129
  143DOPC   H3X16989   3.324   3.904  16.019 -1.2717 -1.0998 -0.8158
  143DOPC   H3Y16990   3.327   4.078  15.971 -1.3611  1.9060  1.4435
  143DOPC   C3416991   3.133   3.969  15.978  0.8833  0.0719  0.0208
  143DOPC   H4X16992   3.082   4.067  15.992 -0.5967 -0.3191 -2.1215
  143DOPC   H4Y16993   3.088   3.888  16.037  2.0270  0.2435  1.1775
  143DOPC   C3516994   3.126   3.927  15.833  0.8626  0.3882 -0.0539
  143DOPC   H5X16995   3.212   3.861  15.810  0.4701 -0.8919  1.9484
  143DOPC   H5Y16996   3.141   4.012  15.763 -0.7924  0.8797  0.1292
  143DOPC   C3616997   2.990   3.867  15.801  0.8390 -0.7323  0.2126
  143DOPC   H6X16998   2.973   3.795  15.884 -1.2679  0.1646  0.6360
  143DOPC   H6Y16999   2.913   3.946  15.817  0.9457 -1.0190  2.3879
  143DOPC   C3717000   2.974   3.804  15.661 -0.0499 -0.8166  0.0193
  143DOPC   H7X17001   3.005   3.888  15.596  0.7337 -0.9379  0.2212
  143DOPC   H7Y17002   3.040   3.718  15.638  1.0106  0.3658 -1.5276
  143DOPC   C3817003   2.831   3.775  15.643 -0.7390 -0.4803  0.0873
  143DOPC   H8X17004   2.781   3.874  15.654  0.7143  0.4580 -1.2631
  143DOPC   H8Y17005   2.786   3.715  15.725 -0.7495 -0.6929 -0.0717
  143DOPC   C3917006   2.793   3.724  15.508  0.5536  0.4082  0.2284
  143DOPC   H9X17007   2.809   3.790  15.422 -1.1038 -0.2899 -0.6657
  143DOPC  C31017008   2.730   3.602  15.492  0.2760 -0.5607  0.5191
  143DOPC  H10X17009   2.711   3.554  15.395  0.1634 -1.4383  0.9626
  143DOPC  C31117010   2.685   3.511  15.603 -0.2641 -0.1721 -0.5414
  143DOPC  H11X17011   2.762   3.525  15.683  2.7695 -0.9288 -3.1335
  143DOPC  H11Y17012   2.684   3.407  15.565  0.4907 -1.0530  1.6807
  143DOPC  C31217013   2.542   3.522  15.660 -0.0645  0.2769  0.2683
  143DOPC  H12X17014   2.530   3.439  15.733  1.6260 -0.3166 -0.0588
  143DOPC  H12Y17015   2.468   3.507  15.578  0.2949  0.2146 -0.0511
  143DOPC  C31317016   2.506   3.662  15.723  0.2687 -0.2718 -0.2140
  143DOPC  H13X17017   2.572   3.670  15.813  1.2317 -2.2694 -0.6724
  143DOPC  H13Y17018   2.534   3.740  15.649  1.9129  0.0494  0.6838
  143DOPC  C31417019   2.358   3.674  15.760  0.0125 -0.2594  0.5942
  143DOPC  H14X17020   2.293   3.657  15.671  1.1538  0.0665 -0.3162
  143DOPC  H14Y17021   2.331   3.603  15.841 -2.6220 -1.6746 -1.3429
  143DOPC  C31517022   2.329   3.815  15.808 -0.0822  0.1310  0.8412
  143DOPC  H15X17023   2.297   3.882  15.726  0.5173 -1.3533 -0.6662
  143DOPC  H15Y17024   2.424   3.850  15.853  1.3338 -2.5470  0.1726
  143DOPC  C31617025   2.220   3.832  15.917 -0.3569 -0.2245 -0.4240
  143DOPC  H16X17026   2.248   3.766  16.002 -0.6626 -1.3149 -1.1368
  143DOPC  H16Y17027   2.218   3.935  15.957  3.3253  0.2193 -1.0252
  143DOPC  C31717028   2.080   3.787  15.871 -0.3617 -0.1076  0.0874
  143DOPC  H17X17029   2.064   3.847  15.780  0.3883 -0.0393 -0.0030
  143DOPC  H17Y17030   2.102   3.681  15.845 -0.5755 -0.0812 -0.1986
  143DOPC  C31817031   1.967   3.796  15.967  0.5399 -0.6222  0.3266
  143DOPC  H18X17032   1.868   3.779  15.919 -0.0409 -0.2018  1.3499
  143DOPC  H18Y17033   1.973   3.724  16.051 -3.8448 -1.6604 -0.0298
  143DOPC  H18Z17034   1.956   3.899  16.007 -0.3522 -0.3635 -0.5411
  144DOPC     N17035   3.372   2.381  16.112 -0.9589  0.1233 -0.1254
  144DOPC   C1217036   3.240   2.308  16.091 -0.0813 -0.4522 -0.2851
  144DOPC  H12A17037   3.165   2.349  16.156 -1.9514 -1.2459 -1.8653
  144DOPC  H12B17038   3.259   2.206  16.123  0.6827 -0.4909 -0.8256
  144DOPC   C1317039   3.398   2.385  16.264  0.6051  0.2042  0.0968
  144DOPC  H13A17040   3.492   2.432  16.288  1.2238 -0.6625 -0.5377
  144DOPC  H13B17041   3.318   2.431  16.319 -0.6486 -0.1159 -1.3978
  144DOPC  H13C17042   3.421   2.285  16.297 -0.1643  0.4542  1.4521
  144DOPC   C1417043   3.351   2.523  16.080  0.1937 -0.0460  0.1132
  144DOPC  H14A17044   3.273   2.573  16.137 -0.7006  0.9749 -1.8912
  144DOPC  H14B17045   3.440   2.581  16.097  0.9955 -1.2270  0.0393
  144DOPC  H14C17046   3.315   2.532  15.979  0.2194 -0.3660  0.0774
  144DOPC   C1517047   3.497   2.331  16.032  1.1898  0.4501 -0.2917
  144DOPC  H15A17048   3.487   2.340  15.925  2.6371  2.0013 -0.3356
  144DOPC  H15B17049   3.507   2.226  16.054 -0.1685  0.3065 -0.2504
  144DOPC  H15C17050   3.584   2.382  16.071 -0.0341 -0.1064  3.6819
  144DOPC   C1117051   3.191   2.297  15.943  0.3012 -0.1331 -0.0257
  144DOPC  H11A17052   3.270   2.257  15.876 -0.4005  0.3669 -1.1744
  144DOPC  H11B17053   3.107   2.226  15.932  0.9180 -1.2961  2.0281
  144DOPC     P17054   3.012   2.484  15.945  0.2148 -0.1769 -0.4465
  144DOPC   O1317055   3.053   2.559  16.065 -0.9153  0.3296  0.1862
  144DOPC   O1417056   2.911   2.376  15.948  0.5109  0.1885 -0.4177
  144DOPC   O1217057   3.145   2.416  15.896 -0.2303 -0.3287 -0.2464
  144DOPC   O1117058   2.985   2.595  15.838  0.0705 -0.2044 -0.2233
  144DOPC    C117059   2.846   2.624  15.814  0.0672 -0.4285  0.5400
  144DOPC    HA17060   2.833   2.730  15.785 -0.0192 -0.1200  1.6979
  144DOPC    HB17061   2.777   2.599  15.896  0.3668  2.1083  1.6552
  144DOPC    C217062   2.802   2.560  15.674 -0.5416 -0.1926  1.1104
  144DOPC    HS17063   2.698   2.592  15.656 -0.0751  0.7477 -0.0102
  144DOPC   O2117064   2.813   2.417  15.678 -0.5347 -0.0419 -0.2488
  144DOPC   C2117065   2.704   2.357  15.744  0.1620  0.3058  0.0393
  144DOPC   O2217066   2.606   2.413  15.789  0.6519 -0.5281  0.1924
  144DOPC   C2217067   2.732   2.208  15.737  0.4558 -0.3950 -0.1999
  144DOPC   H2R17068   2.664   2.157  15.809 -0.8033 -1.6275 -2.1948
  144DOPC   H2S17069   2.836   2.192  15.776  0.7028 -2.0433 -1.4636
  144DOPC    C317070   2.903   2.605  15.564 -0.4059  0.3955 -0.0837
  144DOPC    HX17071   3.003   2.571  15.597 -0.5959 -0.2329 -0.1334
  144DOPC    HY17072   2.905   2.716  15.564 -0.2328  0.4268  1.8229
  144DOPC   O3117073   2.861   2.565  15.427  0.0619 -0.6118  0.0713
  144DOPC   C3117074   2.914   2.459  15.381 -0.1497 -0.7010  0.1327
  144DOPC   O3217075   3.002   2.395  15.438 -0.3712 -0.4733  0.4843
  144DOPC   C3217076   2.851   2.426  15.247 -0.8421  0.2864 -0.2277
  144DOPC   H2X17077   2.743   2.412  15.269 -0.5993  1.1249  1.7041
  144DOPC   H2Y17078   2.870   2.517  15.187 -0.9641  0.5650  0.1495
  144DOPC   C2317079   2.724   2.141  15.601 -0.4378  0.0255  0.3282
  144DOPC   H3R17080   2.760   2.037  15.603 -2.7201 -0.9063 -1.7550
  144DOPC   H3S17081   2.783   2.188  15.520 -0.6731  0.7598  0.5721
  144DOPC   C2417082   2.577   2.119  15.540 -0.4109  0.1028 -0.4515
  144DOPC   H4R17083   2.518   2.211  15.517 -1.6053 -0.7797 -1.0300
  144DOPC   H4S17084   2.521   2.058  15.614 -1.1748  2.4601  1.0494
  144DOPC   C2517085   2.587   2.046  15.412 -0.2049  0.2403 -0.1968
  144DOPC   H5R17086   2.647   1.953  15.423 -2.0515 -1.1759 -1.5069
  144DOPC   H5S17087   2.631   2.120  15.342 -0.8422  0.7033 -0.1139
  144DOPC   C2617088   2.442   2.008  15.373  0.2685 -0.3702  0.3641
  144DOPC   H6R17089   2.386   2.104  15.380  2.2591  0.8994 -0.3072
  144DOPC   H6S17090   2.397   1.934  15.442  0.8391 -0.6985  0.3937
  144DOPC   C2717091   2.445   1.934  15.237 -0.3015  0.5797 -0.7680
  144DOPC   H7R17092   2.493   1.833  15.241  0.4948  0.9019 -1.8088
  144DOPC   H7S17093   2.517   1.986  15.170  3.4602 -2.8715  0.1366
  144DOPC   C2817094   2.308   1.914  15.175 -0.2220  0.4186  0.6772
  144DOPC   H8R17095   2.243   1.844  15.232 -0.3624 -0.7121 -0.8214
  144DOPC   H8S17096   2.350   1.864  15.086  0.4507  1.3694  0.4387
  144DOPC   C2917097   2.240   2.046  15.129 -0.3690  0.7155 -0.2215
  144DOPC   H9R17098   2.273   2.133  15.188 -0.0721 -0.1145  0.8783
  144DOPC  C21017099   2.140   2.058  15.039  0.2319  0.8106  0.0606
  144DOPC  H10R17100   2.105   2.159  15.013  1.7751  2.2490  2.9551
  144DOPC  C21117101   2.098   1.945  14.948 -0.3228 -0.4854 -0.3459
  144DOPC  H11R17102   2.016   1.896  15.004  0.3219  0.3643  1.4348
  144DOPC  H11S17103   2.173   1.871  14.913 -3.3174 -3.5809 -0.6088
  144DOPC  C21217104   2.035   2.011  14.816 -0.5184  1.0313 -0.8909
  144DOPC  H12R17105   2.091   2.101  14.785  1.6658 -1.1090 -3.6732
  144DOPC  H12S17106   1.936   2.048  14.852 -0.8752 -1.2943  0.7881
  144DOPC  C21317107   2.017   1.919  14.696  0.3878  0.3271 -0.3439
  144DOPC  H13R17108   1.923   1.953  14.648  0.9971 -0.0496 -1.8657
  144DOPC  H13S17109   2.005   1.814  14.731  0.5755  0.1749 -0.7316
  144DOPC  C21417110   2.140   1.922  14.605  0.0729  0.4489 -0.0892
  144DOPC  H14R17111   2.147   1.823  14.556  0.7463 -0.3569  1.5718
  144DOPC  H14S17112   2.229   1.933  14.670  0.6406 -1.5415 -0.4818
  144DOPC  C21517113   2.149   2.029  14.491  0.2543 -0.1804 -0.0141
  144DOPC  H15R17114   2.256   2.016  14.463 -0.0470 -1.9445 -0.5008
  144DOPC  H15S17115   2.128   2.134  14.521  0.1836  0.0302 -0.7703
  144DOPC  C21617116   2.056   1.998  14.374  0.1059  0.0746  0.4145
  144DOPC  H16R17117   2.087   2.060  14.287 -0.9136 -0.3357 -0.2589
  144DOPC  H16S17118   1.949   2.011  14.404 -0.5482 -0.3092 -1.6182
  144DOPC  C21717119   2.062   1.856  14.319 -0.5794 -0.4132 -0.3340
  144DOPC  H17R17120   2.014   1.786  14.391  0.7212  0.1346  1.1305
  144DOPC  H17S17121   2.166   1.818  14.318 -0.7067 -0.9331  1.5220
  144DOPC  C21817122   2.002   1.834  14.176  0.1060 -0.5076 -0.0597
  144DOPC  H18R17123   1.902   1.881  14.183  0.8173  0.8691  1.6354
  144DOPC  H18S17124   2.008   1.726  14.151 -0.2607 -0.0799 -2.2291
  144DOPC  H18T17125   2.055   1.888  14.095  1.2151 -2.1472 -0.4883
  144DOPC   C3317126   2.923   2.301  15.178 -0.2249  0.1139  0.2533
  144DOPC   H3X17127   2.963   2.228  15.251 -1.9289 -0.6449  0.4835
  144DOPC   H3Y17128   3.016   2.338  15.129  0.2727 -1.2177  0.1378
  144DOPC   C3417129   2.841   2.230  15.069 -0.2954  0.0482  0.4707
  144DOPC   H4X17130   2.744   2.185  15.098 -0.5788 -0.3372 -0.9809
  144DOPC   H4Y17131   2.907   2.147  15.036  1.4078  0.9296  1.5156
  144DOPC   C3517132   2.823   2.325  14.949  0.2269 -0.6155 -0.2669
  144DOPC   H5X17133   2.892   2.411  14.955 -1.0795  0.4239  0.3122
  144DOPC   H5Y17134   2.723   2.372  14.964  1.6108  2.0086  1.6712
  144DOPC   C3617135   2.825   2.252  14.811  0.2967 -0.5703 -0.1591
  144DOPC   H6X17136   2.927   2.221  14.780  0.2415 -1.5170  0.5321
  144DOPC   H6Y17137   2.770   2.155  14.820  1.3660 -1.1188  0.6575
  144DOPC   C3717138   2.752   2.334  14.703  0.6803 -0.2979 -0.9738
  144DOPC   H7X17139   2.710   2.271  14.621 -0.6787  1.3544 -1.6293
  144DOPC   H7Y17140   2.666   2.379  14.757  2.4755  1.1669  0.8336
  144DOPC   C3817141   2.830   2.450  14.644  0.0536 -0.7623  0.2039
  144DOPC   H8X17142   2.922   2.418  14.591  0.3279 -0.4395  0.4817
  144DOPC   H8Y17143   2.863   2.518  14.725 -0.5078  1.5117 -1.3891
  144DOPC   C3917144   2.745   2.518  14.543  0.3100 -0.4184  0.3134
  144DOPC   H9X17145   2.716   2.468  14.449 -0.8256  0.6385  0.0855
  144DOPC  C31017146   2.687   2.640  14.551  0.6409 -0.6595  0.0293
  144DOPC  H10X17147   2.614   2.671  14.475 -0.0538 -1.6049  0.2868
  144DOPC  C31117148   2.677   2.729  14.671 -0.4268 -0.1749  0.8629
  144DOPC  H11X17149   2.729   2.679  14.756 -0.0305 -0.4316  0.4725
  144DOPC  H11Y17150   2.572   2.755  14.697  0.0975  0.2084  2.7491
  144DOPC  C31217151   2.752   2.865  14.649 -0.2299  0.2720  0.3800
  144DOPC  H12X17152   2.721   2.910  14.552  2.7471  0.9651 -0.3380
  144DOPC  H12Y17153   2.858   2.835  14.637 -0.8001 -1.5920 -0.4341
  144DOPC  C31317154   2.731   2.970  14.756  0.1054  0.4136 -0.6019
  144DOPC  H13X17155   2.808   3.049  14.746  1.2352 -0.7187 -1.0033
  144DOPC  H13Y17156   2.638   3.028  14.734 -0.5906 -1.1865 -2.0652
  144DOPC  C31417157   2.742   2.915  14.897 -0.5571  0.8735  0.1108
  144DOPC  H14X17158   2.705   2.994  14.965 -4.0655  1.3489 -2.1056
  144DOPC  H14Y17159   2.672   2.831  14.914 -2.1049  2.2315  0.6968
  144DOPC  C31517160   2.884   2.877  14.938 -0.0918 -0.2005 -0.6040
  144DOPC  H15X17161   2.926   2.978  14.958  0.0281 -0.2984 -0.3623
  144DOPC  H15Y17162   2.931   2.823  14.853  0.3910 -0.8742  0.0815
  144DOPC  C31617163   2.891   2.803  15.071 -1.0874 -0.3452 -0.7854
  144DOPC  H16X17164   2.851   2.864  15.155 -0.0409 -0.0255 -0.5086
  144DOPC  H16Y17165   2.826   2.714  15.056 -1.6451 -0.2271  0.7529
  144DOPC  C31717166   3.030   2.742  15.113 -0.5136  0.0780  0.6112
  144DOPC  H17X17167   3.019   2.681  15.205  0.2825 -1.7732 -0.4697
  144DOPC  H17Y17168   3.052   2.673  15.029 -1.9734 -0.3995  0.5917
  144DOPC  C31817169   3.140   2.845  15.121  0.5115 -0.1581 -0.0960
  144DOPC  H18X17170   3.116   2.922  15.197 -1.0526 -1.3332  0.6748
  144DOPC  H18Y17171   3.241   2.804  15.143  0.1005 -0.4293  1.4207
  144DOPC  H18Z17172   3.158   2.892  15.022 -0.3550  2.4934  0.9181
  145DOPC     N17173   3.748   6.053  16.251  0.2947  0.0551  0.0678
  145DOPC   C1217174   3.736   6.120  16.109 -0.7498 -0.1908 -0.2806
  145DOPC  H12A17175   3.827   6.176  16.098  0.7129 -1.8937  2.1642
  145DOPC  H12B17176   3.652   6.188  16.112 -0.1848  0.5241 -0.4255
  145DOPC   C1317177   3.734   6.152  16.362  0.1087 -0.1527  0.1049
  145DOPC  H13A17178   3.802   6.231  16.333  1.3293 -1.1977  0.0281
  145DOPC  H13B17179   3.636   6.189  16.388 -0.5559 -2.4836  1.1850
  145DOPC  H13C17180   3.775   6.108  16.452 -0.8972  1.4000  1.3822
  145DOPC   C1417181   3.878   5.976  16.248  0.8772 -0.1846 -0.0099
  145DOPC  H14A17182   3.961   6.043  16.264  1.8790 -0.9559 -1.6838
  145DOPC  H14B17183   3.877   5.899  16.323 -1.5568  0.8222  1.1027
  145DOPC  H14C17184   3.897   5.932  16.151  3.6959  1.8302 -0.5097
  145DOPC   C1517185   3.646   5.943  16.274  0.2517 -0.4950  0.2789
  145DOPC  H15A17186   3.547   5.978  16.251  0.8827  1.1050 -0.1673
  145DOPC  H15B17187   3.636   5.916  16.378 -0.3629  1.8390  0.8845
  145DOPC  H15C17188   3.668   5.853  16.218 -0.9524  0.9527 -2.7492
  145DOPC   C1117189   3.719   6.029  15.984 -0.6428  0.5456 -1.2016
  145DOPC  H11A17190   3.629   5.966  16.000  1.5941 -3.2511 -2.2897
  145DOPC  H11B17191   3.686   6.086  15.895  0.3698 -1.6117 -3.0833
  145DOPC     P17192   3.958   6.000  15.868 -0.1871 -0.2424  0.1169
  145DOPC   O1317193   4.027   5.888  15.805  0.1023  0.3104 -0.2777
  145DOPC   O1417194   4.032   6.097  15.953  0.7401  0.1708  0.1986
  145DOPC   O1217195   3.845   5.946  15.961  0.3360 -0.8157 -0.0551
  145DOPC   O1117196   3.888   6.090  15.753 -0.7290 -0.1288 -0.0396
  145DOPC    C117197   3.827   6.039  15.635 -0.3777 -0.5329 -0.2725
  145DOPC    HA17198   3.749   6.107  15.597 -1.3093 -2.1863 -1.4550
  145DOPC    HB17199   3.781   5.940  15.657 -1.9112  0.3554  0.7326
  145DOPC    C217200   3.932   6.014  15.517  0.7569 -0.5781  0.0482
  145DOPC    HS17201   4.009   5.946  15.560  0.2107 -2.3455 -1.6712
  145DOPC   O2117202   3.983   6.141  15.465 -0.2962 -0.1693 -0.7209
  145DOPC   C2117203   4.101   6.172  15.511  0.3933 -0.3400  0.0620
  145DOPC   O2217204   4.175   6.106  15.587  0.2137  0.3558 -0.0961
  145DOPC   C2217205   4.122   6.318  15.470  0.1616  0.0451 -0.2770
  145DOPC   H2R17206   4.042   6.383  15.510 -1.3192 -0.4145 -2.3293
  145DOPC   H2S17207   4.095   6.321  15.362  0.9428  1.0458 -0.4646
  145DOPC    C317208   3.859   5.939  15.395  0.1196 -0.2340  0.9380
  145DOPC    HX17209   3.786   6.009  15.348 -0.5025 -0.1121  2.0652
  145DOPC    HY17210   3.803   5.852  15.437 -2.2121  2.1047  2.9856
  145DOPC   O3117211   3.958   5.899  15.292 -0.4615 -0.3226 -0.4185
  145DOPC   C3117212   4.028   5.791  15.320  0.2050  0.5140  1.4337
  145DOPC   O3217213   3.998   5.720  15.417 -0.1174 -0.0020  0.3491
  145DOPC   C3217214   4.125   5.753  15.213 -0.0607  0.0458  0.5154
  145DOPC   H2X17215   4.202   5.703  15.276 -0.0018  0.7319  0.9996
  145DOPC   H2Y17216   4.082   5.669  15.156 -0.4534  0.8231 -0.3424
  145DOPC   C2317217   4.261   6.372  15.501 -0.0603 -0.3116  0.2280
  145DOPC   H3R17218   4.298   6.357  15.604  1.8006  1.5769 -0.0918
  145DOPC   H3S17219   4.258   6.482  15.481 -1.4022 -0.5311 -1.0068
  145DOPC   C2417220   4.354   6.315  15.396  0.3590 -0.7694  0.0717
  145DOPC   H4R17221   4.342   6.206  15.375  1.7972 -0.6100 -1.8315
  145DOPC   H4S17222   4.459   6.327  15.430 -0.0722 -1.4492  1.7471
  145DOPC   C2517223   4.353   6.393  15.262  0.0378 -0.8040 -0.0706
  145DOPC   H5R17224   4.366   6.502  15.282 -0.3090 -0.2368 -2.6308
  145DOPC   H5S17225   4.262   6.400  15.199 -0.5468 -2.4208  0.5542
  145DOPC   C2617226   4.473   6.355  15.172  0.0747  0.2745  0.8101
  145DOPC   H6R17227   4.460   6.404  15.074  1.2384 -0.0685  0.4699
  145DOPC   H6S17228   4.479   6.246  15.150 -2.5363  0.2916 -0.2554
  145DOPC   C2717229   4.608   6.416  15.231  0.4877  0.3743  0.2090
  145DOPC   H7R17230   4.640   6.354  15.318 -3.4205 -1.4250  0.5658
  145DOPC   H7S17231   4.594   6.522  15.259  1.0198  0.1984  1.1825
  145DOPC   C2817232   4.726   6.408  15.132  0.3172  0.6515  0.0540
  145DOPC   H8R17233   4.741   6.300  15.112 -1.4287  0.7832 -2.3987
  145DOPC   H8S17234   4.810   6.432  15.202 -1.1351  1.3967  1.6164
  145DOPC   C2917235   4.732   6.487  15.005 -0.1576 -0.4017 -0.2286
  145DOPC   H9R17236   4.648   6.553  14.982  1.6070  1.6893 -1.0330
  145DOPC  C21017237   4.826   6.481  14.916  0.2983 -0.0998 -0.0999
  145DOPC  H10R17238   4.806   6.538  14.824  2.1894  0.6862 -0.0826
  145DOPC  C21117239   4.945   6.402  14.929  0.2033  0.1840 -0.3906
  145DOPC  H11R17240   4.973   6.367  14.828 -1.1440 -1.1221 -0.3396
  145DOPC  H11S17241   4.941   6.310  14.990  0.9241 -1.2550 -2.4086
  145DOPC  C21217242   5.066   6.479  14.993 -0.0055 -0.5510 -0.2460
  145DOPC  H12R17243   5.050   6.539  15.084  0.9475  0.0606 -0.4633
  145DOPC  H12S17244   5.091   6.546  14.908 -2.6363 -1.1662 -1.5965
  145DOPC  C21317245   5.183   6.385  15.032  0.1167 -0.5585 -0.2325
  145DOPC  H13R17246   5.273   6.451  15.032  0.6445 -1.2049 -2.2306
  145DOPC  H13S17247   5.197   6.303  14.959  0.4426  1.2217 -2.2788
  145DOPC  C21417248   5.176   6.311  15.168 -0.1255 -0.0134  0.4360
  145DOPC  H14R17249   5.086   6.246  15.174 -1.3749  1.7758  2.1850
  145DOPC  H14S17250   5.170   6.372  15.260 -1.6572  0.4776  0.0554
  145DOPC  C21517251   5.299   6.214  15.191  0.4166 -0.4661  0.2867
  145DOPC  H15R17252   5.389   6.278  15.203 -1.5607  2.6657 -0.3648
  145DOPC  H15S17253   5.318   6.143  15.108 -2.8886  1.3037 -2.2216
  145DOPC  C21617254   5.276   6.142  15.320 -0.4224  0.1913  0.3095
  145DOPC  H16R17255   5.348   6.059  15.331  0.9629  1.3435  0.2450
  145DOPC  H16S17256   5.175   6.096  15.328  0.2242 -1.8232 -2.1139
  145DOPC  C21717257   5.312   6.226  15.450  0.0698  1.3567 -0.1864
  145DOPC  H17R17258   5.233   6.304  15.459 -2.2295 -0.7598 -0.9447
  145DOPC  H17S17259   5.410   6.273  15.431  1.2773 -0.3548  1.4372
  145DOPC  C21817260   5.305   6.138  15.572 -0.1187  0.3047  0.6070
  145DOPC  H18R17261   5.380   6.170  15.647  1.3518 -0.8541 -0.3184
  145DOPC  H18S17262   5.333   6.032  15.554  1.4502  1.0149 -1.4525
  145DOPC  H18T17263   5.202   6.137  15.613 -0.0843 -1.9852  0.7750
  145DOPC   C3317264   4.168   5.860  15.116 -0.1956 -0.4133 -0.0572
  145DOPC   H3X17265   4.084   5.923  15.082 -0.3462  0.0585  1.1288
  145DOPC   H3Y17266   4.227   5.820  15.031  1.5130  0.9250  0.4405
  145DOPC   C3417267   4.270   5.959  15.174  0.2075 -0.2960  0.9991
  145DOPC   H4X17268   4.237   5.995  15.274 -0.7095  3.1079 -0.3831
  145DOPC   H4Y17269   4.270   6.045  15.103  3.2247 -2.1519 -1.5155
  145DOPC   C3517270   4.412   5.897  15.179 -0.0661  0.2902  0.2524
  145DOPC   H5X17271   4.406   5.799  15.231  1.6452  1.2780  2.4579
  145DOPC   H5Y17272   4.477   5.955  15.247  0.3052  1.3552 -0.9660
  145DOPC   C3617273   4.492   5.879  15.049 -0.0238 -0.1954 -0.0122
  145DOPC   H6X17274   4.584   5.829  15.085  0.3432 -1.1969 -2.1565
  145DOPC   H6Y17275   4.449   5.803  14.980 -0.6904  0.9314 -0.8841
  145DOPC   C3717276   4.544   6.011  14.981 -0.3133 -0.6048 -0.4396
  145DOPC   H7X17277   4.453   6.076  14.979 -1.0683 -1.6557 -1.6420
  145DOPC   H7Y17278   4.606   6.071  15.051 -2.7992  1.2013  0.3563
  145DOPC   C3817279   4.618   5.981  14.857 -0.3953 -0.0480  0.4339
  145DOPC   H8X17280   4.558   5.943  14.773 -0.3084  0.5316  0.1015
  145DOPC   H8Y17281   4.698   5.906  14.874 -1.2627 -0.7502  1.5209
  145DOPC   C3917282   4.692   6.108  14.803  0.0128  0.1571  0.6063
  145DOPC   H9X17283   4.801   6.109  14.813  0.0465 -0.0465  0.2889
  145DOPC  C31017284   4.631   6.200  14.731 -0.9698 -0.4250 -0.3184
  145DOPC  H10X17285   4.691   6.283  14.691 -0.1778 -0.5755  0.5229
  145DOPC  C31117286   4.482   6.223  14.714 -0.3219 -0.5272  0.0212
  145DOPC  H11X17287   4.448   6.312  14.772  0.2707 -0.2645 -0.0233
  145DOPC  H11Y17288   4.420   6.139  14.751 -1.9014  1.8841  3.3903
  145DOPC  C31217289   4.437   6.253  14.568 -0.1080 -0.5630 -0.2310
  145DOPC  H12X17290   4.506   6.328  14.523  0.5428 -0.9023  0.1686
  145DOPC  H12Y17291   4.342   6.309  14.571  0.7340  0.9124  0.0251
  145DOPC  C31317292   4.429   6.136  14.466  1.0886  0.2096  0.0006
  145DOPC  H13X17293   4.477   6.052  14.521  2.5586 -0.8416 -2.7491
  145DOPC  H13Y17294   4.322   6.106  14.460  0.7849  0.8348  1.6098
  145DOPC  C31417295   4.510   6.151  14.337 -0.2406 -0.1860  0.0715
  145DOPC  H14X17296   4.485   6.246  14.284 -4.1678 -0.7142  0.7343
  145DOPC  H14Y17297   4.618   6.146  14.363 -0.0409 -0.4302 -0.7483
  145DOPC  C31517298   4.491   6.034  14.242  0.3969 -0.5920 -0.3787
  145DOPC  H15X17299   4.382   6.035  14.221  0.5186  1.4378 -1.2236
  145DOPC  H15Y17300   4.516   5.946  14.305 -0.6674 -0.1244  0.7410
  145DOPC  C31617301   4.575   6.048  14.118  0.4456  0.0144  0.0882
  145DOPC  H16X17302   4.538   6.137  14.064 -2.7046 -0.8743  0.5805
  145DOPC  H16Y17303   4.681   6.063  14.146  0.4582  0.9108 -0.4226
  145DOPC  C31717304   4.582   5.918  14.036  0.5408  0.2610 -0.0679
  145DOPC  H17X17305   4.482   5.876  14.016 -0.0584  0.5240  2.1148
  145DOPC  H17Y17306   4.626   5.951  13.939  2.2569 -2.2766 -0.2506
  145DOPC  C31817307   4.669   5.807  14.088  0.1450  0.0959  0.1087
  145DOPC  H18X17308   4.768   5.851  14.113  0.3542  0.1736 -0.8074
  145DOPC  H18Y17309   4.615   5.749  14.166 -1.0062 -5.1740 -4.0020
  145DOPC  H18Z17310   4.689   5.723  14.018  0.3604  0.0799  0.1878
  146DOPC     N17311   5.100   2.859  16.324  0.5072 -0.8244 -0.3442
  146DOPC   C1217312   5.143   2.807  16.194  0.4928 -0.7345 -0.2559
  146DOPC  H12A17313   5.095   2.860  16.113 -0.1293 -1.0982 -0.1318
  146DOPC  H12B17314   5.109   2.706  16.178 -2.6003 -0.0940  1.3244
  146DOPC   C1317315   5.181   2.813  16.443  0.0783  0.5947  0.9719
  146DOPC  H13A17316   5.281   2.853  16.443  0.4278 -0.1925 -0.5775
  146DOPC  H13B17317   5.129   2.820  16.537 -3.1815  2.7680 -0.7926
  146DOPC  H13C17318   5.206   2.708  16.433  0.2371  0.7648 -0.7607
  146DOPC   C1417319   4.966   2.810  16.361  0.0801  0.2276  0.7133
  146DOPC  H14A17320   4.971   2.704  16.340  4.3057  0.3735  0.1454
  146DOPC  H14B17321   4.926   2.827  16.460 -0.4074  0.0270  0.5571
  146DOPC  H14C17322   4.899   2.843  16.283  2.1624 -2.4640 -2.4945
  146DOPC   C1517323   5.094   3.006  16.337 -0.3538 -0.0684 -0.1408
  146DOPC  H15A17324   5.052   3.038  16.431 -1.2442 -0.2236 -0.4735
  146DOPC  H15B17325   5.042   3.062  16.260  1.9445 -1.3176 -2.7906
  146DOPC  H15C17326   5.193   3.049  16.330 -1.2279  1.7662 -2.7756
  146DOPC   C1117327   5.296   2.826  16.169  0.2549 -0.8498 -0.1817
  146DOPC  H11A17328   5.367   2.774  16.237  4.1830  0.2579 -3.0887
  146DOPC  H11B17329   5.319   2.772  16.075  0.7423 -1.9823  0.5657
  146DOPC     P17330   5.290   3.061  16.047  0.0647  0.4023 -0.1865
  146DOPC   O1317331   5.321   3.200  16.095 -0.0105 -0.7178  0.4548
  146DOPC   O1417332   5.152   3.031  15.996  0.2045  0.0875 -0.5644
  146DOPC   O1217333   5.329   2.965  16.165  0.0783 -0.3008 -0.1199
  146DOPC   O1117334   5.402   3.024  15.944  0.6472  0.4633  0.0015
  146DOPC    C117335   5.373   2.921  15.844  0.2043  0.5717 -0.2306
  146DOPC    HA17336   5.313   2.834  15.877  1.4917 -0.3777 -0.3406
  146DOPC    HB17337   5.472   2.883  15.813 -0.7072 -1.2407 -1.0287
  146DOPC    C217338   5.303   2.984  15.720  0.1967 -0.2323 -0.2049
  146DOPC    HS17339   5.198   3.005  15.751  0.2625 -0.4077  0.1392
  146DOPC   O2117340   5.297   2.893  15.610 -0.3301  0.2235 -0.3532
  146DOPC   C2117341   5.192   2.900  15.532  0.6143  0.0259 -0.3728
  146DOPC   O2217342   5.098   2.980  15.548 -0.5836 -0.2597  0.1508
  146DOPC   C2217343   5.215   2.801  15.419 -0.2999 -0.5109  0.0618
  146DOPC   H2R17344   5.175   2.704  15.455  1.3761 -1.6626 -1.0787
  146DOPC   H2S17345   5.324   2.786  15.406  0.4075  1.3329  2.9067
  146DOPC    C317346   5.377   3.110  15.669  0.0880  0.4293 -0.1325
  146DOPC    HX17347   5.483   3.096  15.640  0.3211  1.0160  0.4161
  146DOPC    HY17348   5.394   3.174  15.759  2.1720 -0.1057 -0.1071
  146DOPC   O3117349   5.315   3.172  15.553 -0.6105 -0.4266  0.0439
  146DOPC   C3117350   5.227   3.273  15.566  0.3829  0.1058  0.0666
  146DOPC   O3217351   5.201   3.326  15.671  0.5915  0.1811 -0.3147
  146DOPC   C3217352   5.171   3.313  15.433  0.8753  0.3291  0.0007
  146DOPC   H2X17353   5.193   3.420  15.412 -0.8357  0.7354  0.1187
  146DOPC   H2Y17354   5.225   3.257  15.354  2.8667  2.4169 -0.2421
  146DOPC   C2317355   5.131   2.833  15.293  0.0492 -0.3372  0.0805
  146DOPC   H3R17356   5.128   2.938  15.255  1.1017 -0.1246  0.5407
  146DOPC   H3S17357   5.032   2.796  15.326 -0.8591  0.9079 -1.1326
  146DOPC   C2417358   5.170   2.745  15.171 -0.5336 -0.3074 -0.1733
  146DOPC   H4R17359   5.098   2.757  15.087 -1.6726 -0.8453  0.7085
  146DOPC   H4S17360   5.182   2.637  15.192 -1.2743 -0.7834 -1.9953
  146DOPC   C2517361   5.295   2.794  15.100  0.2015  0.3867  0.5906
  146DOPC   H5R17362   5.307   2.740  15.003  0.9204 -0.9571  1.3890
  146DOPC   H5S17363   5.383   2.782  15.167 -0.1104 -0.3024  0.8812
  146DOPC   C2617364   5.294   2.940  15.065  0.0189 -0.1709  0.2489
  146DOPC   H6R17365   5.319   3.003  15.153 -1.4717 -1.0150  1.3262
  146DOPC   H6S17366   5.195   2.960  15.019 -0.2337 -0.5623  0.6065
  146DOPC   C2717367   5.402   2.967  14.959  0.2630  0.7841  0.2736
  146DOPC   H7R17368   5.399   2.881  14.889  0.7916 -0.2661  1.5094
  146DOPC   H7S17369   5.493   2.970  15.022  1.7388  0.3665 -1.7435
  146DOPC   C2817370   5.382   3.095  14.887 -0.4595 -0.2004  0.0905
  146DOPC   H8R17371   5.353   3.166  14.967  0.0717  0.1922 -0.0571
  146DOPC   H8S17372   5.290   3.081  14.827 -1.5616  1.1892  1.3684
  146DOPC   C2917373   5.497   3.153  14.806 -0.2105 -0.3897 -0.1345
  146DOPC   H9R17374   5.567   3.211  14.868  1.8570 -1.7998 -1.0123
  146DOPC  C21017375   5.511   3.150  14.672  0.3006  0.4785  0.7234
  146DOPC  H10R17376   5.581   3.216  14.618 -1.0293 -1.0015 -3.1529
  146DOPC  C21117377   5.407   3.095  14.578 -0.0256  0.0096 -0.8424
  146DOPC  H11R17378   5.357   3.008  14.626  0.3771  1.1197  1.8200
  146DOPC  H11S17379   5.460   3.061  14.487  1.3095  0.2336 -0.1718
  146DOPC  C21217380   5.303   3.196  14.551  0.2905  0.1159  0.1548
  146DOPC  H12R17381   5.339   3.300  14.563 -0.4584  0.2810  1.1066
  146DOPC  H12S17382   5.218   3.199  14.623  0.3320 -1.5747  0.3057
  146DOPC  C21317383   5.250   3.195  14.407  0.0653  0.7819  0.0988
  146DOPC  H13R17384   5.197   3.098  14.395  2.3169 -0.5961  0.6665
  146DOPC  H13S17385   5.333   3.211  14.334  0.5434  0.7835  0.6325
  146DOPC  C21417386   5.147   3.302  14.381  0.6292 -0.2785  0.1832
  146DOPC  H14R17387   5.185   3.405  14.361 -0.8412  0.0584 -1.1013
  146DOPC  H14S17388   5.088   3.288  14.474  0.7701  0.6003  0.4146
  146DOPC  C21517389   5.045   3.278  14.264 -0.6379  0.0937 -0.2626
  146DOPC  H15R17390   5.108   3.262  14.174 -0.3038 -2.6867  0.3468
  146DOPC  H15S17391   4.977   3.363  14.245 -1.2241 -0.5157 -0.9944
  146DOPC  C21617392   4.960   3.156  14.271  0.7603  0.2489  0.3990
  146DOPC  H16R17393   5.024   3.066  14.263 -0.4548 -0.5580 -0.6548
  146DOPC  H16S17394   4.891   3.168  14.184 -1.3930  2.6538  2.2617
  146DOPC  C21717395   4.881   3.158  14.400 -0.4032  0.4328 -0.1635
  146DOPC  H17R17396   4.857   3.262  14.433 -1.5411 -0.0035  0.4061
  146DOPC  H17S17397   4.939   3.120  14.487 -1.5510  1.1144  0.9301
  146DOPC  C21817398   4.745   3.085  14.379  0.0854  0.5285 -0.1244
  146DOPC  H18R17399   4.679   3.110  14.465  0.7263  1.2468  0.1712
  146DOPC  H18S17400   4.765   2.977  14.391 -1.3455  0.2155 -0.4455
  146DOPC  H18T17401   4.699   3.113  14.282  3.4431 -0.3821 -2.1420
  146DOPC   C3317402   5.011   3.299  15.435 -0.1947 -0.4365  0.6043
  146DOPC   H3X17403   4.954   3.347  15.517 -0.5531 -0.3403  0.3016
  146DOPC   H3Y17404   4.994   3.190  15.438 -0.6252 -0.4093 -0.4110
  146DOPC   C3417405   4.945   3.359  15.311  0.2339  0.0658  0.6154
  146DOPC   H4X17406   4.838   3.330  15.314  0.9605 -2.8896  1.2870
  146DOPC   H4Y17407   4.986   3.327  15.213 -0.4745 -0.0496  0.3508
  146DOPC   C3517408   4.951   3.513  15.309  0.4764 -0.1648  0.1461
  146DOPC   H5X17409   5.058   3.540  15.316  0.4941 -0.4688  1.3752
  146DOPC   H5Y17410   4.896   3.539  15.403  1.4509 -1.8356  1.2404
  146DOPC   C3617411   4.890   3.588  15.195 -0.0664  0.1252  0.5782
  146DOPC   H6X17412   4.783   3.573  15.171 -0.0780  2.3390 -1.1000
  146DOPC   H6Y17413   4.885   3.694  15.229 -1.7101 -0.3428  1.9529
  146DOPC   C3717414   4.964   3.579  15.059 -0.0843  0.1329  0.1344
  146DOPC   H7X17415   5.067   3.612  15.083  0.2206  2.6364 -3.6760
  146DOPC   H7Y17416   4.967   3.475  15.020 -1.0636 -0.4621  1.5747
  146DOPC   C3817417   4.906   3.669  14.949  0.6294  0.0767  0.0554
  146DOPC   H8X17418   4.896   3.775  14.982  1.1513  1.2676 -3.1930
  146DOPC   H8Y17419   4.800   3.635  14.941 -0.1163  1.7864  1.9351
  146DOPC   C3917420   4.983   3.686  14.825  0.0138  0.8002  0.3606
  146DOPC   H9X17421   5.084   3.727  14.838 -0.1775  0.8086  2.0322
  146DOPC  C31017422   4.946   3.655  14.699  0.2281 -0.5500 -0.5798
  146DOPC  H10X17423   5.013   3.670  14.612 -1.5817  0.1553 -1.9199
  146DOPC  C31117424   4.804   3.618  14.666  0.6027 -0.0274  0.7370
  146DOPC  H11X17425   4.761   3.669  14.577  1.5118 -1.0416 -0.3211
  146DOPC  H11Y17426   4.731   3.631  14.748 -1.0647  1.9183 -0.9426
  146DOPC  C31217427   4.794   3.466  14.620 -0.1968 -0.4031 -0.1213
  146DOPC  H12X17428   4.872   3.450  14.543  0.4759 -0.6996  0.6040
  146DOPC  H12Y17429   4.694   3.453  14.572  0.3954 -3.1217 -0.8029
  146DOPC  C31317430   4.805   3.354  14.727  0.4476 -0.6953  0.5384
  146DOPC  H13X17431   4.749   3.395  14.814 -0.3684 -0.3276 -0.1458
  146DOPC  H13Y17432   4.749   3.270  14.681 -0.3885 -0.1862  0.6189
  146DOPC  C31417433   4.951   3.318  14.762  0.0597 -0.4444 -0.3447
  146DOPC  H14X17434   5.021   3.291  14.681  1.9334  0.2681  0.9612
  146DOPC  H14Y17435   5.000   3.408  14.804 -1.2518  0.2704 -0.2895
  146DOPC  C31517436   4.964   3.208  14.868  0.3407 -0.3082 -0.4202
  146DOPC  H15X17437   4.922   3.254  14.960 -0.7600  0.5603 -1.3304
  146DOPC  H15Y17438   5.067   3.189  14.904 -1.0849 -1.7159  3.4819
  146DOPC  C31617439   4.892   3.076  14.843 -0.6552 -0.4700 -0.3124
  146DOPC  H16X17440   4.781   3.089  14.835 -0.9735 -1.3033  2.1039
  146DOPC  H16Y17441   4.932   3.040  14.746 -2.1374 -0.9062 -0.7941
  146DOPC  C31717442   4.906   2.974  14.957 -0.4116  0.4111  0.3419
  146DOPC  H17X17443   4.830   2.897  14.933 -2.0600  1.7519  1.0138
  146DOPC  H17Y17444   5.008   2.931  14.954  0.8289  3.1357 -1.4222
  146DOPC  C31817445   4.872   3.013  15.095  0.3465 -0.1697  0.9611
  146DOPC  H18X17446   4.889   2.926  15.161 -0.1202 -1.9362 -1.1447
  146DOPC  H18Y17447   4.946   3.088  15.132 -0.1924 -0.0468  1.8248
  146DOPC  H18Z17448   4.776   3.068  15.106  0.0303 -0.6855  0.7680
  147DOPC     N17449   1.903   3.447  16.369  0.0922 -0.0844 -0.4379
  147DOPC   C1217450   1.885   3.323  16.292  1.0319  0.1112  0.1396
  147DOPC  H12A17451   1.975   3.307  16.235  1.6553  0.3373  1.0486
  147DOPC  H12B17452   1.805   3.335  16.219  1.1289 -2.5703 -0.5286
  147DOPC   C1317453   1.791   3.480  16.455  1.2301 -0.1186 -0.1172
  147DOPC  H13A17454   1.710   3.516  16.394  1.2296 -0.2374 -0.1869
  147DOPC  H13B17455   1.754   3.391  16.505  0.1285 -0.0178 -0.7372
  147DOPC  H13C17456   1.811   3.551  16.534  1.2333 -1.3404  1.0193
  147DOPC   C1417457   1.940   3.563  16.276 -0.3716 -0.3613  0.1573
  147DOPC  H14A17458   2.017   3.528  16.208  1.6498  2.5886  0.7137
  147DOPC  H14B17459   1.857   3.592  16.212 -1.4052  0.8325  1.9464
  147DOPC  H14C17460   1.966   3.645  16.341  0.3684  0.9189 -1.6778
  147DOPC   C1517461   2.021   3.428  16.469 -0.2072  0.8109  0.9180
  147DOPC  H15A17462   2.026   3.517  16.530 -2.4295  0.3790  1.8405
  147DOPC  H15B17463   2.108   3.389  16.418 -0.8022 -1.0745  1.2637
  147DOPC  H15C17464   1.996   3.345  16.533  2.5268 -1.3774 -0.6422
  147DOPC   C1117465   1.847   3.189  16.368  0.4985  0.1299  0.2526
  147DOPC  H11A17466   1.856   3.098  16.305 -0.3393  1.4895 -1.9575
  147DOPC  H11B17467   1.916   3.165  16.452 -2.5307 -3.4854  1.9955
  147DOPC     P17468   1.616   3.082  16.436 -0.1683 -0.4057  0.5568
  147DOPC   O1317469   1.513   3.144  16.511  0.1344  0.1435  0.3161
  147DOPC   O1417470   1.688   2.976  16.508  0.1413  0.1387 -0.1505
  147DOPC   O1217471   1.715   3.202  16.413 -0.4836  0.0724 -0.0493
  147DOPC   O1117472   1.555   3.037  16.301 -0.1861  0.0675  0.2502
  147DOPC    C117473   1.516   3.138  16.215  0.0280 -0.8727  0.0375
  147DOPC    HA17474   1.577   3.231  16.213  1.3938 -1.7455 -0.4422
  147DOPC    HB17475   1.412   3.164  16.243  0.4371  1.0340 -0.0439
  147DOPC    C217476   1.506   3.078  16.072  0.1937  0.0015 -0.3422
  147DOPC    HS17477   1.430   2.997  16.079  2.1176 -1.7294  2.6680
  147DOPC   O2117478   1.631   3.032  16.033  0.0758  0.0026 -0.5018
  147DOPC   C2117479   1.656   2.909  16.061  0.9279 -0.2932 -0.6271
  147DOPC   O2217480   1.578   2.820  16.089  0.0723  0.2718 -0.3651
  147DOPC   C2217481   1.805   2.894  16.042  0.4476 -0.3737 -0.0107
  147DOPC   H2R17482   1.849   2.857  16.137 -0.1235 -2.2529 -0.4186
  147DOPC   H2S17483   1.856   2.985  16.006 -1.0092  0.8177  0.8487
  147DOPC    C317484   1.455   3.181  15.966  0.1482 -0.3483  0.2273
  147DOPC    HX17485   1.508   3.276  15.989  0.3324 -0.1029 -1.1251
  147DOPC    HY17486   1.346   3.197  15.980 -0.0432 -0.3862 -1.0965
  147DOPC   O3117487   1.480   3.136  15.827  0.0788  0.0415 -0.1917
  147DOPC   C3117488   1.606   3.174  15.772  0.0610  0.1295 -0.4362
  147DOPC   O3217489   1.687   3.243  15.825 -0.1920 -0.1726  0.5248
  147DOPC   C3217490   1.617   3.132  15.623 -0.7048  0.0105 -0.1074
  147DOPC   H2X17491   1.585   3.027  15.609 -0.0044 -0.2005 -0.1419
  147DOPC   H2Y17492   1.529   3.180  15.572 -1.1290 -0.2326  0.3911
  147DOPC   C2317493   1.833   2.780  15.938  0.7997 -0.5846  0.7674
  147DOPC   H3R17494   1.774   2.689  15.961 -0.5372  0.5465  2.0297
  147DOPC   H3S17495   1.942   2.761  15.948  0.9614  0.7886  1.9326
  147DOPC   C2417496   1.808   2.837  15.793  0.3352  0.3057 -0.0113
  147DOPC   H4R17497   1.882   2.919  15.782  1.0997 -0.5480 -1.4656
  147DOPC   H4S17498   1.710   2.885  15.772  0.7120  1.9752  1.7132
  147DOPC   C2517499   1.846   2.719  15.700  0.2126 -0.0288 -0.5748
  147DOPC   H5R17500   1.755   2.656  15.694 -0.3811  0.7647 -0.1583
  147DOPC   H5S17501   1.932   2.663  15.742 -0.8387 -2.1425 -1.1236
  147DOPC   C2617502   1.883   2.767  15.561  0.1844 -0.6938 -0.5427
  147DOPC   H6R17503   1.959   2.849  15.560  1.6248 -1.9965 -1.1372
  147DOPC   H6S17504   1.800   2.814  15.504 -1.5097 -1.0182  1.5534
  147DOPC   C2717505   1.943   2.650  15.482 -0.0104 -0.4665 -0.4114
  147DOPC   H7R17506   1.868   2.569  15.472 -0.9775  0.4963 -1.2369
  147DOPC   H7S17507   2.036   2.621  15.536  0.8133  2.7367  0.0777
  147DOPC   C2817508   1.982   2.702  15.338 -0.3084  0.5453  0.3442
  147DOPC   H8R17509   2.070   2.643  15.307 -0.5388 -1.3470  2.9759
  147DOPC   H8S17510   2.012   2.809  15.334  1.3506  0.0777 -0.4869
  147DOPC   C2917511   1.875   2.689  15.235  0.1053  0.8783  0.3714
  147DOPC   H9R17512   1.771   2.708  15.265  0.3832  0.1402  1.9012
  147DOPC  C21017513   1.897   2.675  15.102  0.5200 -0.4603 -0.2131
  147DOPC  H10R17514   1.813   2.684  15.032 -0.8123 -2.5907  0.9976
  147DOPC  C21117515   2.021   2.665  15.027 -1.0024 -0.2921  0.0035
  147DOPC  H11R17516   2.091   2.584  15.057  1.0759  0.4572 -2.5067
  147DOPC  H11S17517   2.073   2.763  15.022 -1.3863 -0.0064  1.2151
  147DOPC  C21217518   1.997   2.626  14.882 -0.0651 -0.4499 -0.4410
  147DOPC  H12R17519   2.085   2.619  14.814  1.7895 -0.1855  1.7989
  147DOPC  H12S17520   1.935   2.708  14.840 -0.8693 -0.7609  0.1260
  147DOPC  C21317521   1.923   2.490  14.860 -0.0507 -0.3105  0.2643
  147DOPC  H13R17522   1.822   2.485  14.907  0.8574  1.5602  2.6365
  147DOPC  H13S17523   1.981   2.407  14.905 -1.5340 -0.9220  1.1238
  147DOPC  C21417524   1.917   2.460  14.709 -0.0284  0.7979  0.6244
  147DOPC  H14R17525   2.025   2.447  14.686  0.4940  1.1115  2.6788
  147DOPC  H14S17526   1.870   2.553  14.671  0.2068  0.4137 -0.6621
  147DOPC  C21517527   1.841   2.331  14.670 -0.6936 -0.3044 -0.3123
  147DOPC  H15R17528   1.733   2.345  14.692 -0.2199  0.6554  1.6240
  147DOPC  H15S17529   1.874   2.254  14.743  0.2478  0.8809  0.5574
  147DOPC  C21617530   1.856   2.279  14.528  0.1028  0.2713  0.3751
  147DOPC  H16R17531   1.820   2.175  14.514 -1.5862  0.7135  1.1863
  147DOPC  H16S17532   1.964   2.287  14.503  0.0329 -0.2467 -0.1031
  147DOPC  C21717533   1.766   2.350  14.432 -0.0350 -0.1116  0.2522
  147DOPC  H17R17534   1.770   2.460  14.444  0.6206 -0.2552  1.4796
  147DOPC  H17S17535   1.661   2.322  14.454 -1.7851  2.3549 -3.8373
  147DOPC  C21817536   1.807   2.307  14.287  0.8711 -0.4722 -0.4991
  147DOPC  H18R17537   1.901   2.355  14.251  1.8070 -1.1707  0.9087
  147DOPC  H18S17538   1.735   2.325  14.205  0.9991 -1.0963 -0.7558
  147DOPC  H18T17539   1.826   2.198  14.278  0.0071 -0.6337 -0.4290
  147DOPC   C3317540   1.756   3.173  15.567  0.0189  0.0776  0.8551
  147DOPC   H3X17541   1.828   3.111  15.624  0.1529 -0.0961  0.4950
  147DOPC   H3Y17542   1.788   3.277  15.591 -0.7628 -0.2151  3.5389
  147DOPC   C3417543   1.764   3.124  15.421 -0.9149 -0.2818 -0.3960
  147DOPC   H4X17544   1.674   3.151  15.361 -2.6238 -1.8534  1.3197
  147DOPC   H4Y17545   1.771   3.013  15.420  0.2288 -0.2257 -0.9098
  147DOPC   C3517546   1.890   3.180  15.353 -0.1170  0.0282 -0.5520
  147DOPC   H5X17547   1.971   3.155  15.424 -1.3796 -0.7897  0.6288
  147DOPC   H5Y17548   1.893   3.291  15.352  1.6238  0.1614  3.4065
  147DOPC   C3617549   1.921   3.123  15.209 -0.2554 -0.3262 -0.4370
  147DOPC   H6X17550   1.914   3.013  15.218 -0.5814 -0.1554  2.9572
  147DOPC   H6Y17551   1.844   3.147  15.132  0.2317  0.7528 -0.6059
  147DOPC   C3717552   2.064   3.151  15.168  0.6693  0.0318  0.2865
  147DOPC   H7X17553   2.064   3.261  15.152 -2.6810  0.1256  0.2795
  147DOPC   H7Y17554   2.141   3.129  15.246  2.5185 -1.2965 -1.7695
  147DOPC   C3817555   2.111   3.069  15.036  0.9360  0.5493 -0.0405
  147DOPC   H8X17556   2.038   3.084  14.954 -0.3030 -1.5384  0.5734
  147DOPC   H8Y17557   2.106   2.962  15.066  0.8172  0.6388  0.2681
  147DOPC   C3917558   2.253   3.117  15.011  0.3887  0.8910 -0.1887
  147DOPC   H9X17559   2.301   3.136  15.108  0.1835 -2.3835  0.6403
  147DOPC  C31017560   2.328   3.116  14.898  0.9831  0.2384  0.3058
  147DOPC  H10X17561   2.434   3.143  14.899  1.3124 -1.0037  0.6722
  147DOPC  C31117562   2.283   3.073  14.759  0.5705 -0.5684 -0.0262
  147DOPC  H11X17563   2.319   3.132  14.672 -1.0532 -0.4160 -0.6211
  147DOPC  H11Y17564   2.178   3.107  14.752  1.0099  0.7276 -0.5562
  147DOPC  C31217565   2.289   2.916  14.745  0.3988 -0.2668 -0.1329
  147DOPC  H12X17566   2.231   2.854  14.817  0.7583  0.6968  1.0248
  147DOPC  H12Y17567   2.394   2.883  14.758 -0.2791 -3.1605 -1.2749
  147DOPC  C31317568   2.245   2.882  14.599  0.8805 -0.0293 -0.1945
  147DOPC  H13X17569   2.138   2.905  14.580  0.9085  0.6259  0.3995
  147DOPC  H13Y17570   2.303   2.945  14.529  2.9436 -2.1228 -0.4862
  147DOPC  C31417571   2.266   2.740  14.553  0.2816 -0.1356  0.4921
  147DOPC  H14X17572   2.347   2.698  14.617  1.0220  2.1832  1.1829
  147DOPC  H14Y17573   2.175   2.684  14.585  2.6356 -4.5894  0.1818
  147DOPC  C31517574   2.289   2.719  14.403 -0.8204 -0.0763  0.2641
  147DOPC  H15X17575   2.360   2.791  14.357 -1.6990  1.7155  1.5599
  147DOPC  H15Y17576   2.193   2.740  14.352  0.0752  1.2704 -0.9479
  147DOPC  C31617577   2.333   2.584  14.364 -0.2065  0.4125  0.1947
  147DOPC  H16X17578   2.349   2.579  14.254 -0.7579  1.3811  0.0585
  147DOPC  H16Y17579   2.422   2.548  14.420 -0.8036 -3.0650 -0.8280
  147DOPC  C31717580   2.233   2.477  14.394  0.1938 -0.5036 -0.1678
  147DOPC  H17X17581   2.214   2.470  14.504  1.8003  0.7207  0.2256
  147DOPC  H17Y17582   2.145   2.514  14.337 -0.1751  0.2328  0.8332
  147DOPC  C31817583   2.277   2.336  14.348  0.7712 -0.2926 -0.0485
  147DOPC  H18X17584   2.196   2.264  14.323  1.7732 -1.1253 -1.0286
  147DOPC  H18Y17585   2.334   2.336  14.252  2.5505  1.0820  0.9487
  147DOPC  H18Z17586   2.331   2.300  14.438 -1.8084  2.5514  2.9118
  148DOPC     N17587   3.095   5.673  16.223 -0.4799 -0.4683 -0.3578
  148DOPC   C1217588   2.990   5.629  16.320  0.0135  0.1860  0.0848
  148DOPC  H12A17589   2.965   5.717  16.377 -2.0648  0.3254 -0.9459
  148DOPC  H12B17590   3.022   5.559  16.395 -0.5810  1.0044  1.1190
  148DOPC   C1317591   3.068   5.807  16.157  0.6713  0.3227 -0.3916
  148DOPC  H13A17592   3.140   5.846  16.087  0.3068  0.7345 -0.5422
  148DOPC  H13B17593   2.972   5.808  16.108  1.5808 -0.3232 -2.3031
  148DOPC  H13C17594   3.056   5.880  16.236 -0.1541  1.0969 -1.2237
  148DOPC   C1417595   3.116   5.558  16.122  0.0981 -0.1644  0.1956
  148DOPC  H14A17596   3.025   5.534  16.068  0.9281 -2.2260 -0.3672
  148DOPC  H14B17597   3.195   5.576  16.051 -0.3942 -0.8318 -0.5379
  148DOPC  H14C17598   3.142   5.472  16.182 -2.6787 -1.2226  0.0312
  148DOPC   C1517599   3.227   5.678  16.289 -0.1227 -0.2129  0.6289
  148DOPC  H15A17600   3.235   5.746  16.373  2.1479 -1.0335  1.1575
  148DOPC  H15B17601   3.298   5.717  16.217 -1.3264  2.1975  0.6336
  148DOPC  H15C17602   3.265   5.582  16.320  0.3598 -0.5643 -0.9609
  148DOPC   C1117603   2.861   5.576  16.264  0.0508  0.1835  0.0819
  148DOPC  H11A17604   2.881   5.475  16.222 -1.3767  0.2677 -0.8959
  148DOPC  H11B17605   2.796   5.559  16.353  1.7628  0.9537  1.5203
  148DOPC     P17606   2.702   5.783  16.205 -0.0160 -0.1191 -0.1283
  148DOPC   O1317607   2.722   5.908  16.132 -0.2450  0.0205  0.2410
  148DOPC   O1417608   2.704   5.794  16.354  0.0848  0.2420 -0.3043
  148DOPC   O1217609   2.799   5.659  16.166 -0.4002 -0.0923  0.2693
  148DOPC   O1117610   2.555   5.743  16.167  0.4225 -0.0598 -0.0201
  148DOPC    C117611   2.523   5.637  16.083 -0.3895  0.4062  0.8531
  148DOPC    HA17612   2.427   5.591  16.114 -0.6237  0.0574 -0.3282
  148DOPC    HB17613   2.595   5.554  16.103  1.0376  1.7205  1.3677
  148DOPC    C217614   2.507   5.685  15.938 -0.4428  0.5627 -0.0867
  148DOPC    HS17615   2.460   5.605  15.878 -0.9075  0.3799  0.5140
  148DOPC   O2117616   2.636   5.718  15.881 -0.0537 -0.0661 -0.1763
  148DOPC   C2117617   2.706   5.616  15.847 -0.5437  0.0804  0.6488
  148DOPC   O2217618   2.668   5.500  15.846 -0.2184 -0.0624 -0.5016
  148DOPC   C2217619   2.836   5.652  15.785 -0.3398  0.0181 -0.6238
  148DOPC   H2R17620   2.894   5.703  15.865 -2.7167  2.1212 -0.0764
  148DOPC   H2S17621   2.824   5.725  15.701  1.5534  2.5708  1.1608
  148DOPC    C317622   2.417   5.817  15.930 -0.4571  0.7216 -0.2525
  148DOPC    HX17623   2.483   5.899  15.963 -0.2201  0.4507 -0.0525
  148DOPC    HY17624   2.334   5.810  16.004 -2.6258  0.2706 -2.5629
  148DOPC   O3117625   2.361   5.841  15.803  0.1036 -0.6463  0.4153
  148DOPC   C3117626   2.433   5.932  15.726 -0.3634 -0.1508 -0.5279
  148DOPC   O3217627   2.543   5.976  15.759 -0.2456  0.1519 -0.4222
  148DOPC   C3217628   2.379   5.963  15.593 -0.1849 -0.0083  0.0446
  148DOPC   H2X17629   2.268   5.974  15.595 -0.1759  0.6695 -1.5659
  148DOPC   H2Y17630   2.405   6.070  15.577  1.1400 -0.0355  1.7982
  148DOPC   C2317631   2.912   5.527  15.741  0.2932 -0.3853  0.3920
  148DOPC   H3R17632   2.860   5.477  15.657  0.1507  1.1408 -0.4648
  148DOPC   H3S17633   2.914   5.448  15.818  0.4930 -1.1083 -0.3432
  148DOPC   C2417634   3.055   5.565  15.704 -0.2868  0.3108 -0.1429
  148DOPC   H4R17635   3.108   5.598  15.796 -2.8322  1.9960  0.8157
  148DOPC   H4S17636   3.065   5.654  15.638  1.6007 -0.4043 -0.8999
  148DOPC   C2517637   3.124   5.447  15.624  0.2018 -0.1917 -0.1232
  148DOPC   H5R17638   3.052   5.407  15.550  0.0682 -0.2480  0.0366
  148DOPC   H5S17639   3.145   5.362  15.692  2.0902  0.5655  0.3153
  148DOPC   C2617640   3.264   5.475  15.567 -0.4974 -0.1087 -0.3110
  148DOPC   H6R17641   3.338   5.513  15.640 -0.2341 -0.7186 -0.2491
  148DOPC   H6S17642   3.256   5.553  15.489 -0.6133  0.9772  0.7688
  148DOPC   C2717643   3.329   5.352  15.497 -0.1386 -0.6500  0.4999
  148DOPC   H7R17644   3.260   5.319  15.416 -1.3816  0.8020  0.9169
  148DOPC   H7S17645   3.334   5.271  15.573  2.6865 -1.0921 -0.0526
  148DOPC   C2817646   3.468   5.375  15.445  0.2583  0.7174  0.3042
  148DOPC   H8R17647   3.498   5.269  15.427 -0.8725  0.5922 -0.9901
  148DOPC   H8S17648   3.531   5.415  15.527  2.1366  0.6143 -1.0335
  148DOPC   C2917649   3.475   5.459  15.317  0.1260  0.2718 -0.2452
  148DOPC   H9R17650   3.438   5.562  15.327 -0.4975  0.0733 -0.4431
  148DOPC  C21017651   3.549   5.433  15.206 -0.6853  0.2367 -0.5005
  148DOPC  H10R17652   3.560   5.505  15.123  0.5128 -0.2725 -0.7979
  148DOPC  C21117653   3.624   5.305  15.175 -0.3950  0.8401 -0.4210
  148DOPC  H11R17654   3.664   5.249  15.262  1.0389 -0.0418 -1.5949
  148DOPC  H11S17655   3.717   5.326  15.118 -0.6173  0.1561 -1.0401
  148DOPC  C21217656   3.529   5.217  15.099  0.4853 -0.3214  0.7918
  148DOPC  H12R17657   3.425   5.220  15.137  0.5469 -2.4994  1.2657
  148DOPC  H12S17658   3.559   5.110  15.103  4.1411  0.4673 -0.8426
  148DOPC  C21317659   3.515   5.242  14.947 -0.1789  0.0311 -0.0413
  148DOPC  H13R17660   3.606   5.207  14.894  1.2676  2.4004  0.7280
  148DOPC  H13S17661   3.506   5.352  14.936 -0.2938  0.0466  0.1938
  148DOPC  C21417662   3.384   5.185  14.900  0.4116  0.0460  0.5296
  148DOPC  H14R17663   3.294   5.238  14.939  0.4326  0.0932  0.5134
  148DOPC  H14S17664   3.389   5.079  14.932  2.4326 -0.7136 -1.9790
  148DOPC  C21517665   3.373   5.168  14.749  0.2571 -0.1358 -0.2684
  148DOPC  H15R17666   3.340   5.064  14.727  0.6972 -0.1506 -0.8807
  148DOPC  H15S17667   3.476   5.174  14.707  0.1335  0.0530 -0.5445
  148DOPC  C21617668   3.290   5.269  14.686  0.6257  0.0598 -0.0749
  148DOPC  H16R17669   3.335   5.371  14.692  1.1510 -0.2736  2.2996
  148DOPC  H16S17670   3.188   5.272  14.730 -0.0982  0.3964 -1.6883
  148DOPC  C21717671   3.274   5.246  14.530  0.5034  0.4568 -0.3552
  148DOPC  H17R17672   3.372   5.215  14.488 -0.2949 -0.1521 -1.8599
  148DOPC  H17S17673   3.255   5.351  14.498 -1.0672  0.8650  1.7421
  148DOPC  C21817674   3.157   5.164  14.478  0.5291 -0.4212 -0.0284
  148DOPC  H18R17675   3.170   5.128  14.374  0.7723 -1.9208  0.4980
  148DOPC  H18S17676   3.057   5.212  14.470 -0.1782 -1.7707  0.3681
  148DOPC  H18T17677   3.150   5.076  14.546 -0.1232  0.0537  0.5294
  148DOPC   C3317678   2.417   5.872  15.486 -0.5279  0.4307  0.3843
  148DOPC   H3X17679   2.391   5.915  15.387 -3.1485  0.3201  0.9422
  148DOPC   H3Y17680   2.355   5.781  15.501 -2.0222  1.5555  1.3481
  148DOPC   C3417681   2.565   5.848  15.485 -0.4911 -0.6175 -0.8467
  148DOPC   H4X17682   2.590   5.791  15.577  1.2169  1.4572  0.0571
  148DOPC   H4Y17683   2.639   5.931  15.483 -0.0122 -0.9222  1.1768
  148DOPC   C3517684   2.593   5.755  15.366  0.3422  0.3748  0.7011
  148DOPC   H5X17685   2.539   5.775  15.271 -0.6825  0.2998  1.2468
  148DOPC   H5Y17686   2.552   5.656  15.397 -2.2278  0.8692 -0.8099
  148DOPC   C3617687   2.747   5.743  15.327  0.2100  0.0577 -0.5738
  148DOPC   H6X17688   2.787   5.844  15.307 -1.0197  0.9831  1.3306
  148DOPC   H6Y17689   2.795   5.720  15.425 -0.7034  0.4887 -0.0064
  148DOPC   C3717690   2.769   5.640  15.220  0.0288  0.0492 -0.6286
  148DOPC   H7X17691   2.711   5.549  15.248  1.6174 -0.0376  2.9658
  148DOPC   H7Y17692   2.736   5.658  15.116 -0.9865  0.3702 -0.2619
  148DOPC   C3817693   2.919   5.602  15.215 -0.9992 -0.0752 -0.2955
  148DOPC   H8X17694   2.939   5.504  15.167 -0.3896 -0.1632  0.1285
  148DOPC   H8Y17695   2.946   5.594  15.322 -0.3418  3.2831 -0.0876
  148DOPC   C3917696   3.001   5.709  15.154 -0.0351 -0.4653 -0.6406
  148DOPC   H9X17697   3.006   5.807  15.203 -0.0977 -1.5551  1.6725
  148DOPC  C31017698   3.096   5.689  15.056  0.8236 -0.3780  0.1689
  148DOPC  H10X17699   3.148   5.780  15.021 -0.2068 -0.3420 -1.3972
  148DOPC  C31117700   3.129   5.569  14.983 -1.1569 -0.8731  0.1144
  148DOPC  H11X17701   3.091   5.475  15.027 -0.3540 -1.4569 -0.4048
  148DOPC  H11Y17702   3.240   5.561  14.988 -1.1266 -0.5779 -0.0083
  148DOPC  C31217703   3.092   5.571  14.835 -0.6404  0.4241  0.6277
  148DOPC  H12X17704   3.145   5.488  14.785  0.3557  1.9769 -0.9844
  148DOPC  H12Y17705   3.132   5.665  14.791  0.3785 -0.0031  0.6262
  148DOPC  C31317706   2.942   5.540  14.798  0.1287  0.0286  0.4400
  148DOPC  H13X17707   2.930   5.446  14.856  2.1550  1.2192  2.9826
  148DOPC  H13Y17708   2.876   5.625  14.827  0.4498  1.3368 -2.3409
  148DOPC  C31417709   2.929   5.523  14.646 -0.5838  0.8901 -0.4045
  148DOPC  H14X17710   3.031   5.491  14.614 -0.4805 -0.1394  0.8852
  148DOPC  H14Y17711   2.854   5.453  14.602  0.3246  0.4293 -1.2728
  148DOPC  C31517712   2.906   5.659  14.580  0.0811 -0.1366  0.4195
  148DOPC  H15X17713   3.003   5.712  14.580  0.1532 -0.2149 -1.1741
  148DOPC  H15Y17714   2.837   5.717  14.645 -0.9805 -1.6037  0.6553
  148DOPC  C31617715   2.855   5.644  14.434 -0.1763 -0.5566 -0.4776
  148DOPC  H16X17716   2.752   5.604  14.433 -0.5875  0.4712 -0.7984
  148DOPC  H16Y17717   2.849   5.740  14.379 -1.5266  0.4896  1.3822
  148DOPC  C31717718   2.953   5.560  14.349 -0.4694 -0.2601  0.3770
  148DOPC  H17X17719   3.051   5.590  14.391 -0.5518 -2.4167  2.2956
  148DOPC  H17Y17720   2.947   5.453  14.377  1.6656 -0.7466 -0.8052
  148DOPC  C31817721   2.946   5.594  14.197 -0.9542  0.2764 -0.7637
  148DOPC  H18X17722   2.957   5.702  14.174 -0.2900  0.6870  1.2498
  148DOPC  H18Y17723   3.032   5.544  14.149 -0.3550 -2.0664  2.4085
  148DOPC  H18Z17724   2.851   5.551  14.160 -0.6620  0.3554 -1.6149
  149DOPC     N17725   1.429   2.681  16.449 -0.0864  0.4274 -0.8122
  149DOPC   C1217726   1.358   2.574  16.372  0.0818 -1.5067 -0.3701
  149DOPC  H12A17727   1.299   2.621  16.295 -0.9335 -2.0896  0.0347
  149DOPC  H12B17728   1.286   2.526  16.437  0.2318  1.7585  2.5139
  149DOPC   C1317729   1.468   2.636  16.588  0.4285  0.2222 -0.2353
  149DOPC  H13A17730   1.519   2.718  16.636 -0.7090 -0.0084  1.4699
  149DOPC  H13B17731   1.386   2.614  16.655 -0.7055 -4.1744 -2.6600
  149DOPC  H13C17732   1.529   2.547  16.587  0.1469 -0.0495  1.8059
  149DOPC   C1417733   1.333   2.791  16.474  0.4491 -0.4031 -0.8312
  149DOPC  H14A17734   1.384   2.872  16.524 -0.1743 -1.1132  1.0372
  149DOPC  H14B17735   1.305   2.840  16.382 -0.6957  1.1981  0.3186
  149DOPC  H14C17736   1.250   2.761  16.537  1.6576 -0.8643  0.6137
  149DOPC   C1517737   1.553   2.738  16.385 -0.1075 -0.1374 -0.1172
  149DOPC  H15A17738   1.591   2.817  16.448 -0.5580  0.1534 -0.2083
  149DOPC  H15B17739   1.524   2.772  16.287 -2.6029 -1.1880  0.1744
  149DOPC  H15C17740   1.619   2.653  16.372  2.7273  1.5455  2.1485
  149DOPC   C1117741   1.448   2.460  16.300 -0.0467  0.6234 -0.7438
  149DOPC  H11A17742   1.387   2.392  16.238  1.6731 -1.5136 -0.2062
  149DOPC  H11B17743   1.508   2.514  16.223 -1.9698  2.6465 -0.9079
  149DOPC     P17744   1.677   2.348  16.370  0.1211 -0.4332 -0.2989
  149DOPC   O1317745   1.695   2.212  16.423  0.1600  0.0793  0.1522
  149DOPC   O1417746   1.748   2.462  16.431  0.3507 -0.0149 -0.2142
  149DOPC   O1217747   1.522   2.376  16.392  0.1151 -0.1653 -0.2873
  149DOPC   O1117748   1.687   2.335  16.218  0.1877  0.3996 -0.3410
  149DOPC    C117749   1.789   2.390  16.138  0.3755  0.5750  0.4698
  149DOPC    HA17750   1.885   2.365  16.187 -0.3921 -1.9327  0.8369
  149DOPC    HB17751   1.786   2.500  16.126  0.1250  0.4501 -0.7464
  149DOPC    C217752   1.796   2.336  15.992 -0.0585 -0.1894 -0.6992
  149DOPC    HS17753   1.800   2.226  15.996 -2.5949 -0.3202  0.3221
  149DOPC   O2117754   1.908   2.390  15.929  0.6946 -0.3327  0.1704
  149DOPC   C2117755   2.017   2.321  15.926  0.0681 -0.1255  0.3429
  149DOPC   O2217756   2.025   2.212  15.979 -0.7482  0.1661  0.2105
  149DOPC   C2217757   2.127   2.392  15.854 -0.5147 -0.6738  0.4351
  149DOPC   H2R17758   2.182   2.455  15.928  0.3116  0.3601 -0.9956
  149DOPC   H2S17759   2.092   2.467  15.781  0.2710 -0.1953  0.5298
  149DOPC    C317760   1.662   2.380  15.911 -0.0783  0.2178 -0.5393
  149DOPC    HX17761   1.642   2.488  15.931 -0.8568  0.3109 -1.7400
  149DOPC    HY17762   1.583   2.320  15.960 -0.7097  2.4780  1.3836
  149DOPC   O3117763   1.685   2.368  15.766 -0.1147  0.2017  0.3723
  149DOPC   C3117764   1.565   2.346  15.704  0.1154 -0.0569  0.2952
  149DOPC   O3217765   1.456   2.335  15.753  0.2405 -0.3330 -0.7548
  149DOPC   C3217766   1.594   2.338  15.558  0.3933 -0.0536 -0.1391
  149DOPC   H2X17767   1.656   2.426  15.530 -0.8503  0.8223 -0.2090
  149DOPC   H2Y17768   1.647   2.241  15.544 -2.1084 -1.3158 -1.5003
  149DOPC   C2317769   2.227   2.292  15.791  0.7301 -0.3152  0.5479
  149DOPC   H3R17770   2.266   2.224  15.869  0.0505 -1.2311  0.1113
  149DOPC   H3S17771   2.313   2.349  15.750  0.3943 -1.5084 -2.0712
  149DOPC   C2417772   2.169   2.206  15.681  1.1633  0.3298 -0.2747
  149DOPC   H4R17773   2.074   2.159  15.713  2.1567 -1.5487  0.1182
  149DOPC   H4S17774   2.234   2.121  15.649 -0.4899 -0.3115 -2.1243
  149DOPC   C2517775   2.122   2.279  15.552 -0.2237  0.5924  0.1414
  149DOPC   H5R17776   2.215   2.295  15.493 -1.2845  1.6774 -1.3191
  149DOPC   H5S17777   2.075   2.377  15.576 -1.5391  0.0640 -0.1987
  149DOPC   C2617778   2.017   2.198  15.472  0.7124  0.3005 -0.5069
  149DOPC   H6R17779   1.925   2.180  15.531  1.4573 -0.0376  0.5803
  149DOPC   H6S17780   2.052   2.100  15.434 -0.2869  0.2997 -1.4888
  149DOPC   C2717781   1.970   2.268  15.346 -0.4123 -0.0409  0.4325
  149DOPC   H7R17782   2.062   2.284  15.285 -0.3062  0.5422  0.7497
  149DOPC   H7S17783   1.916   2.362  15.370  3.8515  2.8104 -0.0747
  149DOPC   C2817784   1.882   2.182  15.260  0.1237 -0.2909  1.0061
  149DOPC   H8R17785   1.799   2.136  15.317 -1.4809  0.6872 -0.4327
  149DOPC   H8S17786   1.954   2.108  15.219  0.4834  1.3741 -1.6620
  149DOPC   C2917787   1.820   2.259  15.143 -0.0743 -0.0583 -0.0409
  149DOPC   H9R17788   1.885   2.339  15.107  0.8750 -0.6154  0.4055
  149DOPC  C21017789   1.709   2.221  15.079 -0.0398  0.2225 -0.4144
  149DOPC  H10R17790   1.679   2.284  14.994  1.4201  3.4682  1.2858
  149DOPC  C21117791   1.620   2.099  15.110 -0.2530 -0.4862  0.1633
  149DOPC  H11R17792   1.511   2.122  15.118 -0.6611 -2.1059 -0.5034
  149DOPC  H11S17793   1.646   2.057  15.209  2.0022 -0.4433 -0.3577
  149DOPC  C21217794   1.650   2.000  14.998 -0.2383  0.5099 -0.4808
  149DOPC  H12R17795   1.601   1.906  15.031  1.9432 -0.9488 -1.1280
  149DOPC  H12S17796   1.759   1.979  14.984 -0.4057 -1.7162  0.9903
  149DOPC  C21317797   1.577   2.030  14.871 -0.6108 -0.1837  0.2298
  149DOPC  H13R17798   1.581   2.135  14.834 -2.8810  0.6096  2.0442
  149DOPC  H13S17799   1.469   2.004  14.872 -1.3788  2.3042 -2.6410
  149DOPC  C21417800   1.628   1.941  14.761  0.0843 -0.8179 -0.0546
  149DOPC  H14R17801   1.595   1.837  14.779 -1.6745 -0.0489  1.5571
  149DOPC  H14S17802   1.737   1.926  14.771  0.5397  2.7251  1.8736
  149DOPC  C21517803   1.594   2.003  14.624  0.7804  0.2002  0.4072
  149DOPC  H15R17804   1.638   2.105  14.621  2.9075 -0.6656 -1.7171
  149DOPC  H15S17805   1.484   2.009  14.611  0.7437 -0.2862  0.4550
  149DOPC  C21617806   1.656   1.930  14.501 -0.1224  0.0561  1.3552
  149DOPC  H16R17807   1.751   1.975  14.467 -0.5330 -0.3880 -0.4602
  149DOPC  H16S17808   1.585   1.940  14.416 -0.1147  1.4952  1.4941
  149DOPC  C21717809   1.687   1.778  14.520 -0.3882  0.3578 -0.8487
  149DOPC  H17R17810   1.610   1.740  14.590  1.3830 -1.7794  0.0492
  149DOPC  H17S17811   1.789   1.764  14.559  0.3294  0.4318 -2.5922
  149DOPC  C21817812   1.667   1.698  14.393 -0.1317  0.6224 -0.0878
  149DOPC  H18R17813   1.565   1.719  14.355 -0.5069 -1.8975 -0.6325
  149DOPC  H18S17814   1.677   1.589  14.415 -0.8073  0.9256  1.8187
  149DOPC  H18T17815   1.740   1.715  14.310  0.1525 -2.9352 -0.7212
  149DOPC   C3317816   1.464   2.350  15.492 -0.6316 -0.2585  0.2531
  149DOPC   H3X17817   1.418   2.447  15.520  0.2531  0.3898 -0.4889
  149DOPC   H3Y17818   1.400   2.262  15.515  0.8876 -1.3811  0.3488
  149DOPC   C3417819   1.489   2.373  15.339  0.1536 -0.0721  0.5107
  149DOPC   H4X17820   1.564   2.295  15.313  0.4159  0.3637 -0.0499
  149DOPC   H4Y17821   1.526   2.477  15.327  0.4952 -0.2090  0.3811
  149DOPC   C3517822   1.360   2.347  15.263  0.4058  0.2138  0.3766
  149DOPC   H5X17823   1.285   2.409  15.317 -0.5166  1.8529 -2.5574
  149DOPC   H5Y17824   1.329   2.240  15.262 -3.4975  1.1859  0.0042
  149DOPC   C3617825   1.354   2.382  15.107  0.1899 -0.5231 -0.4858
  149DOPC   H6X17826   1.375   2.490  15.086 -4.1195  0.3880 -1.1100
  149DOPC   H6Y17827   1.418   2.312  15.050 -2.4635 -2.1447 -1.7152
  149DOPC   C3717828   1.214   2.348  15.054  0.3641 -0.1303  0.0776
  149DOPC   H7X17829   1.192   2.240  15.068  5.5002 -1.6072 -1.2091
  149DOPC   H7Y17830   1.143   2.408  15.114  0.8662  0.6735 -0.1141
  149DOPC   C3817831   1.196   2.375  14.898 -0.0196 -0.0812 -0.3723
  149DOPC   H8X17832   1.101   2.330  14.861 -0.9647  2.7683 -1.7165
  149DOPC   H8Y17833   1.279   2.326  14.843  0.1768 -0.5342  0.3170
  149DOPC   C3917834   1.193   2.526  14.872 -0.6861  0.0366  0.4399
  149DOPC   H9X17835   1.115   2.590  14.915 -0.8921  0.2505 -0.2473
  149DOPC  C31017836   1.292   2.593  14.809  0.4219 -0.3400  0.4575
  149DOPC  H10X17837   1.284   2.702  14.795  1.1309 -0.0768  1.8352
  149DOPC  C31117838   1.427   2.545  14.752 -0.0878  0.1033  0.0442
  149DOPC  H11X17839   1.445   2.451  14.809 -0.9504  0.0600  0.2542
  149DOPC  H11Y17840   1.508   2.619  14.769  0.5460 -0.7504  0.8687
  149DOPC  C31217841   1.418   2.493  14.603  0.0964  0.5330  0.1629
  149DOPC  H12X17842   1.345   2.410  14.610 -0.6581  1.2114  0.5454
  149DOPC  H12Y17843   1.517   2.454  14.569  0.4481  0.1499  1.5652
  149DOPC  C31317844   1.370   2.599  14.502  0.0910 -0.1643 -0.4032
  149DOPC  H13X17845   1.385   2.558  14.400  0.8971  2.1753 -1.2934
  149DOPC  H13Y17846   1.263   2.625  14.517  0.5513  2.6611 -1.2953
  149DOPC  C31417847   1.453   2.726  14.500 -0.7532 -0.0089  0.4175
  149DOPC  H14X17848   1.412   2.792  14.421  1.4528 -0.5619 -1.3116
  149DOPC  H14Y17849   1.439   2.780  14.596 -0.4639  3.4411 -1.3141
  149DOPC  C31517850   1.605   2.708  14.473 -0.1004 -0.5908  0.4588
  149DOPC  H15X17851   1.603   2.641  14.384  0.2067 -0.3396  0.2619
  149DOPC  H15Y17852   1.668   2.656  14.549  0.8296 -0.9837 -0.5434
  149DOPC  C31617853   1.668   2.842  14.438 -0.3937 -0.5958  0.0448
  149DOPC  H16X17854   1.617   2.882  14.349 -1.3169 -0.7806  0.4802
  149DOPC  H16Y17855   1.656   2.913  14.523  1.8750 -0.4437  0.3010
  149DOPC  C31717856   1.823   2.833  14.404 -0.2595 -0.3495 -0.4809
  149DOPC  H17X17857   1.861   2.936  14.388 -0.4745 -0.3806 -1.2409
  149DOPC  H17Y17858   1.878   2.798  14.494  1.8667 -2.4073 -2.4790
  149DOPC  C31817859   1.855   2.748  14.289 -0.0673 -0.2820 -0.4631
  149DOPC  H18X17860   1.965   2.735  14.277 -0.2082 -1.5152 -0.5390
  149DOPC  H18Y17861   1.809   2.648  14.298  1.3269 -0.8780  0.4539
  149DOPC  H18Z17862   1.814   2.784  14.192 -1.0609  0.1557  0.1002
  150DOPC     N17863   6.595   6.277  16.250 -0.1832  0.4008 -0.3374
  150DOPC   C1217864   6.461   6.306  16.317  0.4580  0.4893 -0.8395
  150DOPC  H12A17865   6.462   6.405  16.362 -3.6101 -0.1112  1.0548
  150DOPC  H12B17866   6.453   6.227  16.390  3.1441 -0.1635 -1.1453
  150DOPC   C1317867   6.702   6.281  16.349  0.5544  0.3462  0.2013
  150DOPC  H13A17868   6.731   6.382  16.375  0.5950  0.6173 -0.8837
  150DOPC  H13B17869   6.672   6.231  16.440 -2.2204 -0.6585 -1.1717
  150DOPC  H13C17870   6.791   6.238  16.307 -0.1981 -0.7177 -0.3293
  150DOPC   C1417871   6.626   6.379  16.148  0.2246 -0.2316  0.5626
  150DOPC  H14A17872   6.719   6.348  16.104  0.5270  0.7690  0.4899
  150DOPC  H14B17873   6.546   6.381  16.075  0.5126  0.1304  0.2591
  150DOPC  H14C17874   6.641   6.478  16.187  3.4234 -0.7604  0.9301
  150DOPC   C1517875   6.587   6.144  16.177  0.7086  0.0906  0.4754
  150DOPC  H15A17876   6.550   6.060  16.235 -1.8260 -0.3655 -1.6483
  150DOPC  H15B17877   6.678   6.128  16.121  0.0078 -2.0729 -0.1329
  150DOPC  H15C17878   6.509   6.155  16.104  0.6102 -1.1815  0.3637
  150DOPC   C1117879   6.328   6.313  16.234 -0.6413 -0.2950 -0.7678
  150DOPC  H11A17880   6.244   6.331  16.304 -0.3705  0.2953 -0.5839
  150DOPC  H11B17881   6.342   6.395  16.160 -0.9684 -1.5621 -2.2838
  150DOPC     P17882   6.201   6.088  16.186 -0.3098  0.0735  0.2120
  150DOPC   O1317883   6.070   6.157  16.203 -0.7512  0.7730  0.0158
  150DOPC   O1417884   6.269   6.008  16.295  0.1445 -0.3088  0.1478
  150DOPC   O1217885   6.301   6.205  16.136 -0.0635  0.2031  0.5474
  150DOPC   O1117886   6.187   5.990  16.061  0.3422 -0.1403 -0.2581
  150DOPC    C117887   6.156   6.040  15.930 -0.0634 -0.2498 -0.7759
  150DOPC    HA17888   6.173   5.953  15.864  2.6314 -2.8781  2.9482
  150DOPC    HB17889   6.223   6.122  15.897  0.4693 -0.1651  0.4440
  150DOPC    C217890   6.009   6.082  15.923 -0.0149  0.0760  0.1263
  150DOPC    HS17891   5.995   6.181  15.972 -0.5367 -0.4731  1.1261
  150DOPC   O2117892   5.919   5.986  15.991  0.2463  1.3705 -0.0935
  150DOPC   C2117893   5.810   6.043  16.023 -0.0087  0.2838 -0.0708
  150DOPC   O2217894   5.788   6.162  16.023  0.2277  0.2136 -0.2170
  150DOPC   C2217895   5.702   5.933  16.059  0.1836  0.2021 -0.0105
  150DOPC   H2R17896   5.709   5.924  16.170  0.1929  1.0314  0.0621
  150DOPC   H2S17897   5.725   5.832  16.017 -1.4457 -1.2276  2.2772
  150DOPC    C317898   5.963   6.095  15.781 -0.7864  0.4069  0.1474
  150DOPC    HX17899   5.966   5.990  15.743  1.7198  0.4467  0.1095
  150DOPC    HY17900   6.045   6.140  15.721 -2.2219  1.4088 -1.1504
  150DOPC   O3117901   5.834   6.152  15.749  0.2471 -0.2400 -0.3024
  150DOPC   C3117902   5.831   6.289  15.741 -0.8322  0.6220 -0.4656
  150DOPC   O3217903   5.925   6.361  15.779 -0.1881 -0.5928  0.3205
  150DOPC   C3217904   5.694   6.337  15.692 -0.1199  0.2786  0.5336
  150DOPC   H2X17905   5.653   6.268  15.615 -0.2577  1.3507 -0.3958
  150DOPC   H2Y17906   5.627   6.345  15.780 -0.2402  0.0216  0.4646
  150DOPC   C2317907   5.558   5.975  16.006 -0.7895  0.4429 -0.3508
  150DOPC   H3R17908   5.550   6.081  15.973  1.1295  0.4316 -0.9725
  150DOPC   H3S17909   5.487   5.952  16.088 -0.6804  1.5048  0.0646
  150DOPC   C2417910   5.518   5.885  15.891 -0.0444 -0.2102  1.2047
  150DOPC   H4R17911   5.416   5.918  15.863  0.9399  0.9698 -1.2766
  150DOPC   H4S17912   5.521   5.779  15.925 -1.3674  0.1977  2.6702
  150DOPC   C2517913   5.603   5.918  15.762 -0.5514 -0.4481  0.4177
  150DOPC   H5R17914   5.706   5.884  15.787 -0.5889  0.2416  1.6118
  150DOPC   H5S17915   5.597   6.026  15.741 -0.6952 -0.4857  0.2661
  150DOPC   C2617916   5.549   5.857  15.626 -0.7225  0.2913  0.1100
  150DOPC   H6R17917   5.439   5.852  15.635 -0.5060 -1.4846  3.5444
  150DOPC   H6S17918   5.590   5.753  15.628  2.6294  1.4781  1.1463
  150DOPC   C2717919   5.604   5.934  15.504  0.0586 -0.5963  0.2916
  150DOPC   H7R17920   5.564   6.037  15.505  2.3306  0.3731 -1.0180
  150DOPC   H7S17921   5.560   5.894  15.410  0.3716 -1.2133  0.4025
  150DOPC   C2817922   5.754   5.947  15.482 -0.4501  0.0462  0.5142
  150DOPC   H8R17923   5.800   5.845  15.480 -0.8762 -0.1419 -0.3809
  150DOPC   H8S17924   5.808   5.996  15.565  3.3556 -1.4814 -0.7748
  150DOPC   C2917925   5.776   6.015  15.351  0.0182 -0.0003 -0.5287
  150DOPC   H9R17926   5.720   6.109  15.335 -1.3875 -0.7370 -0.1261
  150DOPC  C21017927   5.828   5.957  15.238 -0.4786 -0.4972 -0.4337
  150DOPC  H10R17928   5.849   6.033  15.161  0.0109 -0.1361  0.0461
  150DOPC  C21117929   5.893   5.822  15.214 -0.2095 -0.1569  0.2987
  150DOPC  H11R17930   5.909   5.794  15.108  2.5997 -1.0643  0.8585
  150DOPC  H11S17931   5.828   5.747  15.265  0.2870 -0.7472  0.0867
  150DOPC  C21217932   6.027   5.805  15.295 -0.6426 -0.1889  0.3677
  150DOPC  H12R17933   6.005   5.823  15.402  3.1812  1.5966  1.0136
  150DOPC  H12S17934   6.092   5.885  15.253  1.0487 -1.2577  0.8467
  150DOPC  C21317935   6.105   5.674  15.267  0.6751 -1.2387 -0.3747
  150DOPC  H13R17936   6.095   5.662  15.157 -2.4377 -2.1877 -0.0937
  150DOPC  H13S17937   6.050   5.587  15.309 -2.0179  1.1479  1.3959
  150DOPC  C21417938   6.250   5.668  15.300 -0.4670 -0.6524 -0.2372
  150DOPC  H14R17939   6.295   5.763  15.263  2.5042 -1.6365  0.5575
  150DOPC  H14S17940   6.302   5.585  15.247 -0.1530 -0.6196  0.0189
  150DOPC  C21517941   6.284   5.674  15.447  0.2832 -0.9790  0.4875
  150DOPC  H15R17942   6.226   5.754  15.497  0.1604 -0.2720 -0.7482
  150DOPC  H15S17943   6.393   5.694  15.460  0.0917  2.1291 -1.6225
  150DOPC  C21617944   6.261   5.538  15.507 -0.6194  0.0455  0.3096
  150DOPC  H16R17945   6.313   5.457  15.452  0.2387  0.6844  0.1587
  150DOPC  H16S17946   6.153   5.510  15.505 -0.7835  0.5626  1.2774
  150DOPC  C21717947   6.296   5.533  15.662 -0.3594  0.0593  0.1558
  150DOPC  H17R17948   6.246   5.621  15.707 -0.7889 -0.4206  0.6347
  150DOPC  H17S17949   6.407   5.542  15.669 -0.3875 -0.0433  0.7599
  150DOPC  C21817950   6.222   5.405  15.716 -0.4057  0.6380 -0.5386
  150DOPC  H18R17951   6.250   5.312  15.662  0.2475 -0.4954  1.5975
  150DOPC  H18S17952   6.111   5.413  15.719 -0.4140  0.4101 -0.0309
  150DOPC  H18T17953   6.252   5.394  15.823 -0.5882 -0.7562 -0.6097
  150DOPC   C3317954   5.710   6.474  15.622 -0.4265  0.5760 -0.1608
  150DOPC   H3X17955   5.785   6.471  15.540 -2.4238  2.5304 -2.1870
  150DOPC   H3Y17956   5.751   6.550  15.693  0.9764  0.2729 -0.6103
  150DOPC   C3417957   5.591   6.531  15.549 -0.3856 -0.7517 -0.1100
  150DOPC   H4X17958   5.509   6.524  15.624 -0.0910  0.9041  0.4071
  150DOPC   H4Y17959   5.561   6.463  15.466  0.7622 -0.5157 -0.7335
  150DOPC   C3517960   5.612   6.676  15.508  0.7152 -0.1988 -0.1552
  150DOPC   H5X17961   5.676   6.682  15.417  1.9024  0.8829  0.7006
  150DOPC   H5Y17962   5.664   6.728  15.591 -0.8039 -2.3391  2.2816
  150DOPC   C3617963   5.483   6.758  15.483 -0.3303  0.5542  0.0092
  150DOPC   H6X17964   5.444   6.800  15.578  0.6616 -1.3576  1.3164
  150DOPC   H6Y17965   5.515   6.851  15.431 -2.2528  1.1862 -0.1398
  150DOPC   C3717966   5.369   6.689  15.401  0.1638 -0.0409 -0.6599
  150DOPC   H7X17967   5.317   6.606  15.452  2.1537 -1.6463 -1.1165
  150DOPC   H7Y17968   5.296   6.773  15.396 -0.4947 -0.6038 -0.6426
  150DOPC   C3817969   5.415   6.638  15.259  0.0730  0.1415 -0.4429
  150DOPC   H8X17970   5.323   6.601  15.210 -0.6975  0.9485  0.3733
  150DOPC   H8Y17971   5.484   6.550  15.262  0.5394  0.4996  1.9411
  150DOPC   C3917972   5.473   6.745  15.171  0.1615 -1.0400  0.6235
  150DOPC   H9X17973   5.576   6.771  15.198  1.3369 -3.1575 -1.4941
  150DOPC  C31017974   5.396   6.820  15.086  0.1128  0.0393 -0.4130
  150DOPC  H10X17975   5.446   6.898  15.027 -1.0329 -0.7019 -2.4737
  150DOPC  C31117976   5.253   6.796  15.048  0.0992  0.5342  0.1669
  150DOPC  H11X17977   5.191   6.807  15.139  3.4947 -0.3784  2.8133
  150DOPC  H11Y17978   5.251   6.690  15.014  1.8797  0.9370 -1.3433
  150DOPC  C31217979   5.198   6.886  14.937  0.4467  0.4543 -0.4756
  150DOPC  H12X17980   5.199   6.991  14.973  0.0914  0.4732 -0.5186
  150DOPC  H12Y17981   5.089   6.874  14.916  0.3331  3.5071 -2.1972
  150DOPC  C31317982   5.263   6.868  14.799  0.1132  0.5514  0.2726
  150DOPC  H13X17983   5.372   6.892  14.803  0.4327 -0.8229  0.1702
  150DOPC  H13Y17984   5.244   6.759  14.790  2.3111 -0.1436  2.6397
  150DOPC  C31417985   5.200   6.954  14.685  0.2022  0.0985 -0.0817
  150DOPC  H14X17986   5.089   6.948  14.685  0.1762  0.1722  1.4561
  150DOPC  H14Y17987   5.229   7.059  14.708 -3.0438  1.0524  0.2507
  150DOPC  C31517988   5.236   6.906  14.550  0.5233  0.0862  0.0146
  150DOPC  H15X17989   5.183   6.810  14.537  0.3045  0.2498 -0.3246
  150DOPC  H15Y17990   5.340   6.867  14.553 -0.0204 -1.4719 -0.4434
  150DOPC  C31617991   5.221   6.993  14.427  0.7510 -0.0440  0.1896
  150DOPC  H16X17992   5.114   7.017  14.414 -0.0822 -2.7132  1.5861
  150DOPC  H16Y17993   5.285   7.085  14.429 -0.4297  0.9838 -3.0563
  150DOPC  C31717994   5.254   6.922  14.294 -0.0087  0.4204 -0.0953
  150DOPC  H17X17995   5.357   6.879  14.293  0.1040  0.6814  0.1662
  150DOPC  H17Y17996   5.181   6.838  14.289  0.2894 -0.1542  3.0661
  150DOPC  C31817997   5.228   7.010  14.178  0.1997 -0.2291  0.7365
  150DOPC  H18X17998   5.119   7.033  14.173  0.1943 -0.4690 -0.6866
  150DOPC  H18Y17999   5.277   7.107  14.201 -0.6742 -0.0077  1.7427
  150DOPC  H18Z18000   5.252   6.966  14.079 -0.8549 -0.3972  0.5412
  151DOPC     N18001   1.393   3.904  16.474  0.2529  0.2217 -0.1396
  151DOPC   C1218002   1.275   3.852  16.382  0.3083  0.5905  0.2443
  151DOPC  H12A18003   1.308   3.838  16.280 -0.0510  1.0830  0.0555
  151DOPC  H12B18004   1.211   3.937  16.364  2.4610  2.5429  1.3063
  151DOPC   C1318005   1.456   4.023  16.401  0.0005 -0.1006 -0.2562
  151DOPC  H13A18006   1.374   4.086  16.372  0.1280  1.3235  2.1851
  151DOPC  H13B18007   1.533   4.067  16.463  1.2881 -1.5788 -0.7386
  151DOPC  H13C18008   1.496   3.997  16.305 -0.9761 -0.3924 -0.5932
  151DOPC   C1418009   1.500   3.802  16.480  0.1167  0.6260  0.4080
  151DOPC  H14A18010   1.585   3.845  16.531 -0.7931 -1.0470  3.5602
  151DOPC  H14B18011   1.461   3.721  16.539  1.0438  0.5915  0.9932
  151DOPC  H14C18012   1.545   3.768  16.387  1.7796 -0.4373  1.5569
  151DOPC   C1518013   1.343   3.938  16.602 -0.3519  0.3096 -0.4602
  151DOPC  H15A18014   1.303   3.847  16.645  1.3734  0.1010  0.8250
  151DOPC  H15B18015   1.265   4.014  16.602  0.6063  1.3556  0.6624
  151DOPC  H15C18016   1.418   3.971  16.672 -1.9795  1.6135  0.7771
  151DOPC   C1118017   1.198   3.725  16.425 -0.4065 -0.0854 -0.7322
  151DOPC  H11A18018   1.159   3.737  16.528  1.8736 -0.9884  0.3058
  151DOPC  H11B18019   1.102   3.710  16.371 -2.0432  0.4272  1.8774
  151DOPC     P18020   1.308   3.526  16.288  0.0793  0.4432  0.1348
  151DOPC   O1318021   1.227   3.401  16.285  0.4276  0.4646 -1.0026
  151DOPC   O1418022   1.458   3.512  16.288  0.5234  0.4585 -0.3000
  151DOPC   O1218023   1.277   3.603  16.423  0.2518  0.8705 -0.1031
  151DOPC   O1118024   1.264   3.621  16.172 -0.6026 -0.9715 -0.6708
  151DOPC    C118025   1.140   3.613  16.112  0.4199 -0.1281  0.8790
  151DOPC    HA18026   1.117   3.719  16.086 -0.2461 -0.3035  0.7394
  151DOPC    HB18027   1.064   3.576  16.184  0.7966  0.6617  1.6923
  151DOPC    C218028   1.150   3.527  15.980  0.9881  0.7550 -0.3654
  151DOPC    HS18029   1.160   3.424  16.021  0.9688  0.5009 -0.9847
  151DOPC   O2118030   1.278   3.560  15.904  0.9648 -0.1018 -0.0880
  151DOPC   C2118031   1.305   3.462  15.826 -0.3706  0.0836  0.4982
  151DOPC   O2218032   1.256   3.351  15.824 -0.0090  1.0604 -0.4288
  151DOPC   C2218033   1.426   3.502  15.742 -0.3374  0.2296 -0.9061
  151DOPC   H2R18034   1.520   3.461  15.786 -1.0301  1.1400  1.5920
  151DOPC   H2S18035   1.433   3.612  15.750 -0.5265  0.1546  0.5897
  151DOPC    C318036   1.020   3.519  15.898  0.6259  0.5300 -0.9820
  151DOPC    HX18037   0.937   3.493  15.966 -0.0641  1.2194 -1.5354
  151DOPC    HY18038   1.030   3.437  15.824 -0.5367  0.1381 -0.7251
  151DOPC   O3118039   0.990   3.647  15.835  0.1956 -0.6129 -0.0806
  151DOPC   C3118040   1.030   3.664  15.712  1.0862 -0.2628 -0.6071
  151DOPC   O3218041   1.097   3.588  15.645  0.2697  0.0676  0.3486
  151DOPC   C3218042   0.977   3.804  15.668  0.2051  0.5013  0.7217
  151DOPC   H2X18043   0.868   3.802  15.690  0.3695 -0.4343  1.5200
  151DOPC   H2Y18044   1.014   3.871  15.749  0.9270  1.9352 -0.7464
  151DOPC   C2318045   1.419   3.462  15.594  0.6035  0.1693  0.1958
  151DOPC   H3R18046   1.346   3.526  15.541  0.9051  0.8633  0.6111
  151DOPC   H3S18047   1.383   3.357  15.586 -1.3035  0.8421 -0.6611
  151DOPC   C2418048   1.548   3.475  15.517  0.2724  0.2889 -0.5088
  151DOPC   H4R18049   1.610   3.384  15.531 -0.4405 -0.5895 -2.6521
  151DOPC   H4S18050   1.607   3.562  15.555 -1.9822  2.1019 -0.9750
  151DOPC   C2518051   1.543   3.487  15.364  0.4216  0.5578 -0.3074
  151DOPC   H5R18052   1.452   3.538  15.326 -0.3452  2.0693  3.1765
  151DOPC   H5S18053   1.539   3.380  15.335  2.0049  0.5734 -0.7020
  151DOPC   C2618054   1.673   3.536  15.306  0.3572 -0.3234 -0.0302
  151DOPC   H6R18055   1.755   3.466  15.333  1.8523  0.5060 -2.1831
  151DOPC   H6S18056   1.694   3.637  15.347  1.7839 -0.7796  0.4323
  151DOPC   C2718057   1.670   3.541  15.156  0.2346  0.1190 -1.1424
  151DOPC   H7R18058   1.586   3.607  15.122 -0.1162  0.1467 -0.2359
  151DOPC   H7S18059   1.645   3.438  15.123 -0.1467  0.2475 -1.2592
  151DOPC   C2818060   1.801   3.562  15.084 -0.4240 -0.0190 -0.6137
  151DOPC   H8R18061   1.865   3.482  15.126 -1.8157 -0.3874  0.9473
  151DOPC   H8S18062   1.836   3.662  15.118  0.3620 -0.2501 -0.7140
  151DOPC   C2918063   1.790   3.568  14.935 -0.1473 -0.6365 -0.3203
  151DOPC   H9R18064   1.725   3.644  14.888  0.3688  0.7348  1.0744
  151DOPC  C21018065   1.873   3.503  14.849  0.3295  0.8960 -0.1138
  151DOPC  H10R18066   1.842   3.521  14.745 -3.7623 -1.2345  0.5387
  151DOPC  C21118067   1.985   3.406  14.873  0.1316  0.0881  0.2833
  151DOPC  H11R18068   1.961   3.305  14.834  0.6402  0.1741 -0.2664
  151DOPC  H11S18069   2.008   3.395  14.981 -2.0697 -0.6488  0.7255
  151DOPC  C21218070   2.117   3.454  14.801  0.3683  0.9451 -0.2370
  151DOPC  H12R18071   2.200   3.395  14.845 -1.9000 -2.8253 -0.5728
  151DOPC  H12S18072   2.130   3.563  14.820  0.3690  1.6627 -3.7657
  151DOPC  C21318073   2.126   3.437  14.646 -0.2883  0.6134  0.3206
  151DOPC  H13R18074   2.033   3.483  14.606 -1.0673 -0.9401  0.2548
  151DOPC  H13S18075   2.113   3.330  14.618  0.2469  0.4789  0.5861
  151DOPC  C21418076   2.257   3.493  14.582  0.0548 -0.3918  0.5473
  151DOPC  H14R18077   2.263   3.603  14.597  1.5868 -0.2004 -1.1657
  151DOPC  H14S18078   2.256   3.466  14.474  1.9413  0.6821  0.2252
  151DOPC  C21518079   2.378   3.434  14.646  0.1303  0.0728 -0.1857
  151DOPC  H15R18080   2.386   3.329  14.610 -1.8481 -0.1687 -0.0217
  151DOPC  H15S18081   2.384   3.433  14.756  0.6968 -0.1823 -0.2128
  151DOPC  C21618082   2.512   3.499  14.603 -0.5119 -0.2728 -0.2039
  151DOPC  H16R18083   2.514   3.610  14.606  5.3780 -0.0703  0.4440
  151DOPC  H16S18084   2.511   3.469  14.496 -2.6845 -0.0015 -0.3058
  151DOPC  C21718085   2.639   3.435  14.660 -0.2463 -0.0490 -0.3998
  151DOPC  H17R18086   2.634   3.434  14.771  0.6315 -1.5286 -0.3494
  151DOPC  H17S18087   2.724   3.496  14.623  1.3838 -2.8456 -1.5839
  151DOPC  C21818088   2.681   3.299  14.596  0.3272 -0.1748 -0.5017
  151DOPC  H18R18089   2.778   3.257  14.629  2.4399  1.9345 -3.5874
  151DOPC  H18S18090   2.697   3.307  14.487 -2.0240  1.7755 -0.7946
  151DOPC  H18T18091   2.603   3.221  14.613  0.8126 -0.3490  1.1155
  151DOPC   C3318092   1.007   3.851  15.522  0.3572  0.2437 -0.0275
  151DOPC   H3X18093   0.951   3.794  15.445 -2.2285 -1.1634  2.7042
  151DOPC   H3Y18094   1.115   3.852  15.496  0.3939  2.7039 -0.0808
  151DOPC   C3418095   0.964   3.999  15.496 -0.0566  0.1688 -0.1723
  151DOPC   H4X18096   1.019   4.046  15.581  1.8147 -2.2542  0.0569
  151DOPC   H4Y18097   0.856   4.010  15.519 -0.7782 -2.0077 -2.1185
  151DOPC   C3518098   1.010   4.042  15.360  0.0737  0.3251 -0.3411
  151DOPC   H5X18099   1.121   4.039  15.354  0.1285 -1.9273  0.7960
  151DOPC   H5Y18100   0.977   4.148  15.370 -2.3119 -0.5693  3.7308
  151DOPC   C3618101   0.951   3.963  15.237 -0.0437  0.6316 -0.3925
  151DOPC   H6X18102   0.990   3.859  15.241 -2.3093 -0.3476 -1.6419
  151DOPC   H6Y18103   0.841   3.953  15.252 -0.0800 -0.5614 -1.2529
  151DOPC   C3718104   0.991   4.037  15.109 -0.7949 -0.0018  0.4401
  151DOPC   H7X18105   0.912   4.111  15.083 -1.4215 -0.8678 -0.1774
  151DOPC   H7Y18106   1.087   4.092  15.115 -1.9849  2.1172  0.9200
  151DOPC   C3818107   0.992   3.929  14.997 -0.4848  0.4657 -0.8436
  151DOPC   H8X18108   0.897   3.870  14.997  0.9243 -1.9743 -0.2766
  151DOPC   H8Y18109   1.069   3.856  15.031 -0.3530  1.7188  1.8576
  151DOPC   C3918110   1.025   3.982  14.861 -0.2715  0.1540 -0.0859
  151DOPC   H9X18111   1.121   4.035  14.854 -0.0408 -0.2028  0.3191
  151DOPC  C31018112   0.951   3.963  14.748 -0.5378 -0.9012 -0.3260
  151DOPC  H10X18113   0.986   3.992  14.648 -0.6321  0.2888 -0.0305
  151DOPC  C31118114   0.840   3.863  14.745 -0.1086 -0.5924  0.0363
  151DOPC  H11X18115   0.769   3.890  14.664  2.0501  0.1470 -1.7164
  151DOPC  H11Y18116   0.778   3.857  14.837 -0.8412 -4.5698 -0.5284
  151DOPC  C31218117   0.901   3.715  14.744 -0.2659 -0.3404  0.5517
  151DOPC  H12X18118   0.961   3.701  14.836  1.0343 -0.0169 -0.2136
  151DOPC  H12Y18119   0.963   3.707  14.652 -0.0733  2.3407  0.3548
  151DOPC  C31318120   0.784   3.622  14.746  0.6868 -0.2110  0.0744
  151DOPC  H13X18121   0.730   3.647  14.840  2.5215  1.8967  0.6576
  151DOPC  H13Y18122   0.717   3.625  14.658  0.5380 -0.2530  0.1845
  151DOPC  C31418123   0.830   3.474  14.759  0.3340 -0.7173 -0.6220
  151DOPC  H14X18124   0.889   3.473  14.853  1.4070  0.9295 -1.2370
  151DOPC  H14Y18125   0.747   3.401  14.772  2.3597 -2.6890  2.8229
  151DOPC  C31518126   0.917   3.424  14.643  0.3973 -0.6219 -0.1599
  151DOPC  H15X18127   0.974   3.335  14.678  0.9151 -0.3719 -0.3577
  151DOPC  H15Y18128   1.008   3.486  14.629  0.7960 -0.3894  2.7530
  151DOPC  C31618129   0.843   3.390  14.511 -0.0506 -0.3240  0.4228
  151DOPC  H16X18130   0.813   3.480  14.453 -0.7905 -1.6105 -1.2946
  151DOPC  H16Y18131   0.928   3.342  14.458  1.5711 -0.5134  3.0278
  151DOPC  C31718132   0.739   3.283  14.514  0.2901 -0.0510  0.3316
  151DOPC  H17X18133   0.775   3.205  14.585 -2.6498 -0.6176  1.3251
  151DOPC  H17Y18134   0.650   3.325  14.565  0.1696 -1.2239  1.1236
  151DOPC  C31818135   0.685   3.223  14.388 -0.6302 -0.1578  0.3989
  151DOPC  H18X18136   0.625   3.129  14.395  0.4988 -1.0924 -1.6761
  151DOPC  H18Y18137   0.627   3.296  14.328  0.9291  0.0168 -0.9557
  151DOPC  H18Z18138   0.765   3.183  14.323  0.3931  0.7686  1.0540
  152DOPC     N18139   4.353   2.345  16.217 -0.0183  0.2117  0.2916
  152DOPC   C1218140   4.443   2.257  16.138  0.7867 -0.2994  0.0554
  152DOPC  H12A18141   4.539   2.243  16.184  1.4227 -0.7133 -1.3373
  152DOPC  H12B18142   4.470   2.310  16.048  0.4915  0.8331  0.6077
  152DOPC   C1318143   4.298   2.275  16.345  0.0856 -0.3070  0.1274
  152DOPC  H13A18144   4.249   2.185  16.311 -2.1615  1.7490 -2.6591
  152DOPC  H13B18145   4.375   2.237  16.410  0.4939  2.2326  1.2484
  152DOPC  H13C18146   4.239   2.344  16.404 -0.2090 -0.3378 -0.1283
  152DOPC   C1418147   4.239   2.381  16.132  0.8448  0.1106  0.2563
  152DOPC  H14A18148   4.277   2.449  16.057  2.0239 -0.7566  0.0562
  152DOPC  H14B18149   4.198   2.292  16.088  2.1096 -1.2339  1.6929
  152DOPC  H14C18150   4.171   2.427  16.203  1.4586 -2.1010  2.4242
  152DOPC   C1518151   4.427   2.464  16.261 -0.4869 -1.1322 -0.7966
  152DOPC  H15A18152   4.523   2.447  16.306 -1.2151 -1.2584  0.7745
  152DOPC  H15B18153   4.373   2.524  16.333 -0.8694 -1.6629 -0.6377
  152DOPC  H15C18154   4.468   2.527  16.184  1.3886  0.0861  1.0937
  152DOPC   C1118155   4.391   2.109  16.113  0.0555 -0.3590  0.2422
  152DOPC  H11A18156   4.478   2.055  16.071  1.8525  1.1641  1.7917
  152DOPC  H11B18157   4.366   2.072  16.215  1.6688  2.4534  1.7865
  152DOPC     P18158   4.207   1.978  16.003  0.1853  0.1424 -0.1300
  152DOPC   O1318159   4.085   1.965  16.087  0.3254 -0.2989  0.1823
  152DOPC   O1418160   4.307   1.869  16.003 -0.7863 -0.4923  0.5008
  152DOPC   O1218161   4.277   2.119  16.027  0.4104 -0.0459  0.1801
  152DOPC   O1118162   4.150   1.988  15.852  0.3219 -0.0326 -0.1793
  152DOPC    C118163   4.033   2.072  15.820  0.0625 -0.1680 -0.3409
  152DOPC    HA18164   4.057   2.123  15.724  2.7231  0.7522  0.7341
  152DOPC    HB18165   4.017   2.157  15.890 -1.6814 -0.7304 -0.0077
  152DOPC    C218166   3.907   1.980  15.816 -0.0677  0.6415  0.2126
  152DOPC    HS18167   3.912   1.922  15.911  2.2341  0.4698  0.0325
  152DOPC   O2118168   3.930   1.888  15.708 -0.3176 -1.1620 -0.2535
  152DOPC   C2118169   3.852   1.778  15.711  0.0085 -0.3999  0.9408
  152DOPC   O2218170   3.775   1.754  15.798  0.3732  0.5331 -0.3787
  152DOPC   C2218171   3.892   1.687  15.604  0.3518  0.0328 -0.0865
  152DOPC   H2R18172   3.913   1.592  15.657  0.4665  0.9767  1.6586
  152DOPC   H2S18173   3.990   1.720  15.562 -0.0962 -0.4838 -1.6139
  152DOPC    C318174   3.782   2.062  15.796  0.5573  0.2065  0.6430
  152DOPC    HX18175   3.765   2.134  15.878  0.0210  0.3783  0.3837
  152DOPC    HY18176   3.695   1.995  15.783 -0.8841  2.0617  0.4180
  152DOPC   O3118177   3.806   2.147  15.678 -0.3301  0.0078 -0.6513
  152DOPC   C3118178   3.747   2.120  15.560  0.1565 -0.4577 -0.3039
  152DOPC   O3218179   3.659   2.033  15.541  0.2658 -0.6640  0.6744
  152DOPC   C3218180   3.805   2.224  15.461 -0.0203 -0.0715  0.0346
  152DOPC   H2X18181   3.803   2.325  15.508 -4.5641 -0.0762  0.3455
  152DOPC   H2Y18182   3.904   2.192  15.424 -0.1988 -0.0596 -0.4528
  152DOPC   C2318183   3.796   1.671  15.486 -0.6516 -0.1522  0.2000
  152DOPC   H3R18184   3.802   1.767  15.429 -0.8037  1.5775  2.9045
  152DOPC   H3S18185   3.691   1.666  15.521 -1.2215  0.2840 -1.3540
  152DOPC   C2418186   3.836   1.552  15.392  0.8589  0.4873 -0.5857
  152DOPC   H4R18187   3.878   1.470  15.455  0.1364  0.2745 -0.3662
  152DOPC   H4S18188   3.922   1.583  15.329  0.3815  3.1095 -0.0720
  152DOPC   C2518189   3.732   1.514  15.290  0.6554  0.4774 -0.1686
  152DOPC   H5R18190   3.695   1.602  15.233 -0.1836 -0.7578 -1.6127
  152DOPC   H5S18191   3.647   1.465  15.343  0.8395  0.1428 -0.1785
  152DOPC   C2618192   3.793   1.418  15.185 -0.6036  0.1222  0.5076
  152DOPC   H6R18193   3.855   1.333  15.220  1.0969  1.1299  0.0338
  152DOPC   H6S18194   3.867   1.474  15.124  3.7964 -2.0776  3.2966
  152DOPC   C2718195   3.680   1.361  15.098 -0.2529 -0.1216  0.2435
  152DOPC   H7R18196   3.632   1.441  15.037 -0.8343  0.3737  1.3219
  152DOPC   H7S18197   3.601   1.310  15.156 -1.9109  1.3806 -0.5836
  152DOPC   C2818198   3.742   1.246  15.008 -0.2966  0.0861 -0.2213
  152DOPC   H8R18199   3.759   1.153  15.068 -1.9622  0.2593  0.5851
  152DOPC   H8S18200   3.842   1.278  14.972  0.5462  0.4055  2.2133
  152DOPC   C2918201   3.634   1.221  14.898 -0.2080  0.2459  0.1244
  152DOPC   H9R18202   3.594   1.312  14.850  0.5252  1.2115  1.2831
  152DOPC  C21018203   3.573   1.096  14.881  0.1321 -0.7102  0.1759
  152DOPC  H10R18204   3.492   1.091  14.807 -1.6905 -0.3221  2.0490
  152DOPC  C21118205   3.588   0.968  14.957 -0.0506  0.2251 -0.7043
  152DOPC  H11R18206   3.483   0.932  14.970 -0.9225  2.2474 -1.6165
  152DOPC  H11S18207   3.628   0.990  15.058  0.4824  0.3194 -0.9333
  152DOPC  C21218208   3.669   0.860  14.878 -0.2888 -0.2530 -0.6298
  152DOPC  H12R18209   3.677   0.765  14.935  0.8781  1.5620  2.4925
  152DOPC  H12S18210   3.774   0.888  14.853  0.0526 -2.0987 -1.4332
  152DOPC  C21318211   3.613   0.825  14.739 -0.3690  0.5246 -0.1642
  152DOPC  H13R18212   3.686   0.771  14.675 -0.3505  0.7695 -0.3473
  152DOPC  H13S18213   3.603   0.922  14.686  1.1575  0.1537 -1.1850
  152DOPC  C21418214   3.487   0.736  14.735 -0.0836 -0.0752 -0.6451
  152DOPC  H14R18215   3.404   0.784  14.792 -0.7063 -0.7781 -0.9318
  152DOPC  H14S18216   3.515   0.640  14.783  0.0030  0.3609  0.2106
  152DOPC  C21518217   3.445   0.714  14.593  0.2754 -0.0857  0.4712
  152DOPC  H15R18218   3.516   0.651  14.536 -0.5715  0.6755 -1.5176
  152DOPC  H15S18219   3.440   0.816  14.549 -0.3190 -0.0925  0.5116
  152DOPC  C21618220   3.294   0.658  14.577  0.6920 -0.6884  0.6229
  152DOPC  H16R18221   3.221   0.716  14.638  1.4365  0.2365  0.6673
  152DOPC  H16S18222   3.296   0.557  14.625  2.4569 -0.4054  1.2526
  152DOPC  C21718223   3.247   0.643  14.432  0.6634  0.1941 -0.0777
  152DOPC  H17R18224   3.291   0.551  14.389  1.3775  0.9815 -1.0898
  152DOPC  H17S18225   3.285   0.734  14.380 -0.3305  1.1765  0.8525
  152DOPC  C21818226   3.098   0.629  14.414  0.1719 -0.4020  0.4245
  152DOPC  H18R18227   3.071   0.611  14.308 -1.1535  1.2388  0.4485
  152DOPC  H18S18228   3.061   0.730  14.443  3.8335  1.3421 -0.2549
  152DOPC  H18T18229   3.054   0.551  14.479 -0.4029 -1.6273 -1.3429
  152DOPC   C3318230   3.715   2.230  15.339  0.5198 -0.2144  0.2110
  152DOPC   H3X18231   3.619   2.284  15.354  1.0447  1.3374 -1.5677
  152DOPC   H3Y18232   3.694   2.126  15.306 -0.2975 -0.4406  1.3672
  152DOPC   C3418233   3.774   2.308  15.222 -0.1764 -0.0496  0.2226
  152DOPC   H4X18234   3.877   2.274  15.199  0.1317  1.2817 -0.4641
  152DOPC   H4Y18235   3.777   2.418  15.239  0.6796 -0.1429  0.7180
  152DOPC   C3518236   3.698   2.275  15.087 -0.0406  0.0897 -0.0021
  152DOPC   H5X18237   3.603   2.333  15.098  1.5462  3.2784 -1.8085
  152DOPC   H5Y18238   3.690   2.165  15.082  0.1626  0.0816 -0.1527
  152DOPC   C3618239   3.767   2.334  14.962  0.0507  0.1875  0.0713
  152DOPC   H6X18240   3.795   2.440  14.981  0.7589 -0.3531  2.4405
  152DOPC   H6Y18241   3.863   2.277  14.956 -1.0269 -1.9521  1.7029
  152DOPC   C3718242   3.684   2.312  14.833  0.4276  0.7322 -0.0351
  152DOPC   H7X18243   3.658   2.204  14.827 -0.4317  1.0161 -1.8979
  152DOPC   H7Y18244   3.587   2.366  14.845 -0.3532 -0.6890  0.3385
  152DOPC   C3818245   3.765   2.343  14.705 -0.1863  0.1651 -0.6153
  152DOPC   H8X18246   3.848   2.269  14.697 -1.9191 -2.1241  1.0048
  152DOPC   H8Y18247   3.812   2.439  14.733  0.1759 -0.6872  1.9361
  152DOPC   C3918248   3.681   2.361  14.584 -0.3138 -0.5728  0.3461
  152DOPC   H9X18249   3.617   2.450  14.589 -0.4102 -0.7107  2.8070
  152DOPC  C31018250   3.652   2.263  14.493 -0.4637  0.1372  0.0893
  152DOPC  H10X18251   3.567   2.274  14.424 -1.8143  0.5847  1.7621
  152DOPC  C31118252   3.711   2.127  14.490 -0.0015  0.1469  0.3425
  152DOPC  H11X18253   3.773   2.099  14.578  2.0363 -1.8298 -1.5735
  152DOPC  H11Y18254   3.792   2.131  14.414 -0.3872 -0.9121 -0.1467
  152DOPC  C31218255   3.625   2.012  14.451  0.6793  0.0263 -0.0569
  152DOPC  H12X18256   3.686   1.920  14.450  1.2657  0.4052  0.1572
  152DOPC  H12Y18257   3.590   2.018  14.346 -0.5422  1.2622  0.3794
  152DOPC  C31318258   3.505   1.987  14.547 -0.0851 -0.1402  0.0467
  152DOPC  H13X18259   3.426   2.064  14.537 -0.0476 -0.0039  0.7091
  152DOPC  H13Y18260   3.458   1.891  14.521  1.9042 -1.2786  0.4207
  152DOPC  C31418261   3.542   1.975  14.696 -0.2152  0.3573 -0.3708
  152DOPC  H14X18262   3.606   1.888  14.723  0.7972  0.6980 -1.6258
  152DOPC  H14Y18263   3.589   2.072  14.721 -2.2106  1.4814 -0.7256
  152DOPC  C31518264   3.413   1.967  14.786 -0.8628  0.3471  1.1046
  152DOPC  H15X18265   3.346   1.879  14.772 -0.4167  0.0063  1.0629
  152DOPC  H15Y18266   3.354   2.059  14.766  0.2564  1.2683  1.8824
  152DOPC  C31618267   3.446   1.974  14.934  0.1290 -0.5037  0.2086
  152DOPC  H16X18268   3.534   2.040  14.946  0.2697 -0.4210 -1.0975
  152DOPC  H16Y18269   3.353   2.019  14.976  1.5463  1.5400  1.2951
  152DOPC  C31718270   3.477   1.835  14.993  0.1552  0.5898  0.3235
  152DOPC  H17X18271   3.382   1.782  14.973 -0.5262  1.6662  0.6035
  152DOPC  H17Y18272   3.553   1.786  14.928  0.3744  1.0192  0.2523
  152DOPC  C31818273   3.530   1.836  15.137  0.2055 -0.6500  0.2128
  152DOPC  H18X18274   3.640   1.852  15.137  0.0324  1.1179  2.8257
  152DOPC  H18Y18275   3.484   1.918  15.196  1.0636 -1.1013  1.5678
  152DOPC  H18Z18276   3.524   1.731  15.173 -1.1636 -0.4201  0.6968
  153DOPC     N18277   3.846   7.451  16.312  0.5581  0.6131 -0.0317
  153DOPC   C1218278   3.878   7.313  16.360 -1.0357  0.2612  0.4200
  153DOPC  H12A18279   3.794   7.278  16.419 -0.9971  1.4756  1.2378
  153DOPC  H12B18280   3.967   7.305  16.420 -1.8363 -2.2367  1.4115
  153DOPC   C1318281   3.953   7.510  16.227 -0.0185 -0.1403 -0.3042
  153DOPC  H13A18282   4.045   7.525  16.282 -0.9728 -3.4764  2.6200
  153DOPC  H13B18283   3.988   7.433  16.160 -1.0854 -2.8105  1.9558
  153DOPC  H13C18284   3.923   7.608  16.196  0.1084 -0.3141 -0.9869
  153DOPC   C1418285   3.817   7.539  16.420 -0.6028 -0.3541 -0.4105
  153DOPC  H14A18286   3.908   7.550  16.477  0.1699 -1.7750 -1.3071
  153DOPC  H14B18287   3.784   7.639  16.399  2.3009  0.6383 -0.7753
  153DOPC  H14C18288   3.747   7.511  16.497  1.1739 -0.2240  1.3387
  153DOPC   C1518289   3.713   7.442  16.231 -0.0864  0.0842  0.1144
  153DOPC  H15A18290   3.626   7.445  16.295  1.4426 -0.0670  2.2762
  153DOPC  H15B18291   3.715   7.359  16.162 -1.4621  0.6053 -0.6020
  153DOPC  H15C18292   3.705   7.535  16.176 -1.7901  1.1451  2.0267
  153DOPC   C1118293   3.904   7.213  16.247  0.7541  0.7730 -0.2486
  153DOPC  H11A18294   3.917   7.110  16.289 -4.4449 -0.8400 -1.8936
  153DOPC  H11B18295   3.814   7.201  16.184  0.0599  0.8203  0.7174
  153DOPC     P18296   4.162   7.174  16.177  0.1181  0.0870  0.0298
  153DOPC   O1318297   4.169   7.131  16.324  0.1743 -0.0761  0.4189
  153DOPC   O1418298   4.261   7.273  16.132 -0.7052 -0.0822 -0.4058
  153DOPC   O1218299   4.016   7.237  16.160  0.3816 -0.3670 -0.4663
  153DOPC   O1118300   4.165   7.051  16.075 -0.0217 -0.4050 -0.0036
  153DOPC    C118301   4.113   7.052  15.941 -0.3527  0.8823 -1.2119
  153DOPC    HA18302   4.004   7.077  15.943 -0.3853  0.7433 -1.2487
  153DOPC    HB18303   4.127   6.950  15.899 -0.1542  0.6212 -0.5296
  153DOPC    C218304   4.188   7.146  15.844 -0.1343  0.8099  0.2548
  153DOPC    HS18305   4.185   7.249  15.884 -1.7827  1.7088 -2.0054
  153DOPC   O2118306   4.126   7.137  15.720  0.3810 -0.2745  0.2008
  153DOPC   C2118307   4.171   7.229  15.634 -0.7150  0.3281  0.4825
  153DOPC   O2218308   4.255   7.317  15.656  0.2389 -0.3149  0.4060
  153DOPC   C2218309   4.097   7.198  15.498  0.5320 -0.7635  0.4034
  153DOPC   H2R18310   3.992   7.234  15.502  0.1185 -2.0321  2.2094
  153DOPC   H2S18311   4.107   7.088  15.485 -0.0384 -0.7159 -0.5004
  153DOPC    C318312   4.343   7.104  15.845  0.2464 -0.7648 -0.7491
  153DOPC    HX18313   4.383   7.100  15.949  0.6399 -0.3710 -0.8833
  153DOPC    HY18314   4.399   7.185  15.795  0.3811  0.1540  0.8007
  153DOPC   O3118315   4.361   6.981  15.781 -0.1556 -0.5264  0.8156
  153DOPC   C3118316   4.464   6.915  15.811 -0.2210  0.0138 -0.7927
  153DOPC   O3218317   4.553   6.941  15.889 -0.7217 -0.1804  0.4608
  153DOPC   C3218318   4.475   6.792  15.728  0.4123  0.3975  0.4968
  153DOPC   H2X18319   4.376   6.742  15.730  0.7067 -0.1950  2.9096
  153DOPC   H2Y18320   4.499   6.820  15.623 -0.0881  0.4996  0.4091
  153DOPC   C2318321   4.170   7.270  15.382  0.1460 -1.0706 -1.4476
  153DOPC   H3R18322   4.261   7.212  15.354  0.1896 -1.0599 -1.3281
  153DOPC   H3S18323   4.193   7.379  15.394 -1.4613 -0.8986  0.5019
  153DOPC   C2418324   4.082   7.280  15.256 -0.3676  0.3154  0.1923
  153DOPC   H4R18325   3.985   7.329  15.275 -2.4430 -2.5090 -2.2376
  153DOPC   H4S18326   4.052   7.181  15.215  0.7185 -0.0437  0.2122
  153DOPC   C2518327   4.161   7.359  15.148  0.5142  0.2395  0.2481
  153DOPC   H5R18328   4.253   7.303  15.118 -0.4506 -0.0418 -2.5142
  153DOPC   H5S18329   4.191   7.457  15.189  1.4498 -0.7108  1.9548
  153DOPC   C2618330   4.082   7.382  15.013 -0.0116  0.6238 -0.4247
  153DOPC   H6R18331   3.992   7.448  15.017 -0.1595  0.5284 -1.6770
  153DOPC   H6S18332   4.054   7.279  14.984  1.7316  0.2034 -0.7107
  153DOPC   C2718333   4.182   7.434  14.908 -0.3066  0.5767  0.8631
  153DOPC   H7R18334   4.285   7.403  14.935  0.4644  1.7612 -0.5851
  153DOPC   H7S18335   4.175   7.545  14.909  2.6202  0.8207  1.6809
  153DOPC   C2818336   4.133   7.375  14.774  0.2924  0.1507 -1.3829
  153DOPC   H8R18337   4.030   7.394  14.739 -0.6302 -2.2279 -0.1613
  153DOPC   H8S18338   4.129   7.264  14.770 -0.2742  0.1935 -2.3334
  153DOPC   C2918339   4.235   7.424  14.675  0.2010  0.0582 -0.7002
  153DOPC   H9R18340   4.339   7.386  14.681  0.4286  0.9066  1.8200
  153DOPC  C21018341   4.210   7.523  14.595 -0.2996 -0.0717  0.5218
  153DOPC  H10R18342   4.295   7.546  14.529  0.5095  0.7225  1.7807
  153DOPC  C21118343   4.089   7.606  14.565  0.6560  0.2821  0.2080
  153DOPC  H11R18344   4.113   7.710  14.597  0.2018 -0.5091  3.4522
  153DOPC  H11S18345   4.004   7.582  14.633  0.7835 -1.8261 -0.3212
  153DOPC  C21218346   4.044   7.586  14.415  0.1431  0.4371 -0.2241
  153DOPC  H12R18347   4.137   7.610  14.358  0.7891 -0.5592  0.3588
  153DOPC  H12S18348   3.965   7.660  14.392  1.1354  2.3241  2.0496
  153DOPC  C21318349   3.980   7.449  14.385  0.0960  0.1295  1.1246
  153DOPC  H13R18350   3.885   7.451  14.442  1.3325 -0.7280  3.3371
  153DOPC  H13S18351   4.039   7.360  14.415 -0.5412 -0.9395 -0.6247
  153DOPC  C21418352   3.937   7.440  14.235  0.1488  0.0878 -0.2170
  153DOPC  H14R18353   3.899   7.537  14.197  2.0241  1.0866  0.3224
  153DOPC  H14S18354   3.850   7.372  14.222  0.2640  0.1090 -1.2446
  153DOPC  C21518355   4.049   7.398  14.153 -0.7529  0.4355  0.0818
  153DOPC  H15R18356   4.088   7.301  14.191 -1.0040  0.3926  0.2356
  153DOPC  H15S18357   4.132   7.465  14.184 -0.2167 -0.4876  0.6877
  153DOPC  C21618358   4.029   7.393  14.005  0.5208  0.1056  0.7772
  153DOPC  H16R18359   3.990   7.491  13.970 -1.7384 -0.7783  0.5999
  153DOPC  H16S18360   3.954   7.311  13.996  1.4076 -0.5546 -1.0532
  153DOPC  C21718361   4.150   7.348  13.920  0.3533  0.1153 -0.1274
  153DOPC  H17R18362   4.219   7.434  13.909  0.7287  0.4961  3.8656
  153DOPC  H17S18363   4.099   7.334  13.822 -1.7905  0.8714  0.8094
  153DOPC  C21818364   4.231   7.220  13.968 -0.3455  0.5815  0.5942
  153DOPC  H18R18365   4.309   7.197  13.893 -1.1658  1.5702 -0.6134
  153DOPC  H18S18366   4.168   7.129  13.960  0.8919 -0.2849  0.4648
  153DOPC  H18T18367   4.273   7.225  14.070 -2.6588  0.5241  1.6267
  153DOPC   C3318368   4.570   6.689  15.786 -0.3821 -0.0736 -0.3110
  153DOPC   H3X18369   4.530   6.653  15.883  0.3530 -1.2615 -0.4287
  153DOPC   H3Y18370   4.672   6.731  15.803 -1.2906  1.3988  1.8733
  153DOPC   C3418371   4.594   6.563  15.701  0.2844 -0.3325  0.5423
  153DOPC   H4X18372   4.642   6.594  15.606  0.4063 -0.7219  0.4772
  153DOPC   H4Y18373   4.491   6.529  15.678  0.3813  0.5966 -1.4378
  153DOPC   C3518374   4.672   6.456  15.775  0.4239 -0.1791 -0.7813
  153DOPC   H5X18375   4.628   6.428  15.873  0.4364  0.8668 -0.4638
  153DOPC   H5Y18376   4.773   6.496  15.799  0.2444  1.0152 -1.9032
  153DOPC   C3618377   4.683   6.333  15.691 -0.1702  0.3400 -0.2662
  153DOPC   H6X18378   4.724   6.254  15.758 -0.5994 -0.7148 -1.2116
  153DOPC   H6Y18379   4.588   6.305  15.641 -0.7187 -0.5557  1.2278
  153DOPC   C3718380   4.786   6.351  15.581  0.4839  0.0780  0.0279
  153DOPC   H7X18381   4.763   6.431  15.508  0.6866  0.3993  0.3115
  153DOPC   H7Y18382   4.882   6.374  15.632  2.0013 -1.3882 -2.0310
  153DOPC   C3818383   4.803   6.221  15.497  0.3344  0.5680  0.1379
  153DOPC   H8X18384   4.863   6.249  15.407 -2.3231 -0.0760 -1.9831
  153DOPC   H8Y18385   4.704   6.199  15.451  0.2061  1.8458 -0.2375
  153DOPC   C3918386   4.874   6.103  15.552 -0.3566  0.0620 -0.5471
  153DOPC   H9X18387   4.954   6.128  15.624 -1.7703  2.5615  0.2863
  153DOPC  C31018388   4.853   5.972  15.514 -0.3620  0.4375 -0.1266
  153DOPC  H10X18389   4.930   5.900  15.545  0.3252  0.4880 -1.6214
  153DOPC  C31118390   4.758   5.910  15.407  0.4556 -0.2646 -0.9358
  153DOPC  H11X18391   4.697   5.993  15.365  1.4820  0.2876 -1.4035
  153DOPC  H11Y18392   4.688   5.841  15.459 -0.5383 -0.8641 -2.9608
  153DOPC  C31218393   4.823   5.836  15.289  0.2088 -0.0559  0.6007
  153DOPC  H12X18394   4.746   5.788  15.226  1.9434 -1.5031 -0.4748
  153DOPC  H12Y18395   4.888   5.749  15.311 -2.6055 -3.2157 -2.3836
  153DOPC  C31318396   4.911   5.933  15.207 -0.4214 -0.1959  0.4681
  153DOPC  H13X18397   4.852   6.022  15.175 -1.5732 -0.9185  0.5084
  153DOPC  H13Y18398   4.996   5.971  15.268 -0.3813  0.8835 -0.2319
  153DOPC  C31418399   4.957   5.869  15.074  0.3386 -0.5881  0.7058
  153DOPC  H14X18400   4.977   5.761  15.090  0.0632 -1.0283 -1.6358
  153DOPC  H14Y18401   4.864   5.873  15.015 -0.9517  0.7557  2.6981
  153DOPC  C31518402   5.074   5.941  15.010 -0.0595  0.0672  0.0980
  153DOPC  H15X18403   5.153   5.928  15.087  0.2602 -2.0780 -0.5427
  153DOPC  H15Y18404   5.048   6.049  15.001 -2.7241 -0.4117  0.8454
  153DOPC  C31618405   5.117   5.882  14.876  0.0728  0.0759  0.1444
  153DOPC  H16X18406   5.024   5.840  14.833  0.7378 -2.5041  1.0195
  153DOPC  H16Y18407   5.161   5.967  14.821  0.9166 -0.6140 -0.2725
  153DOPC  C31718408   5.219   5.767  14.907  0.1683  0.0030  0.5586
  153DOPC  H17X18409   5.311   5.815  14.948 -0.1493  0.1248  1.1271
  153DOPC  H17Y18410   5.179   5.694  14.980 -0.0714 -1.6232 -1.1167
  153DOPC  C31818411   5.266   5.698  14.777  0.3250 -0.4236 -0.8160
  153DOPC  H18X18412   5.361   5.643  14.796  1.4262  1.6497 -0.0026
  153DOPC  H18Y18413   5.186   5.638  14.729  0.6668  0.3123 -2.3926
  153DOPC  H18Z18414   5.295   5.778  14.705 -1.8801  0.6324 -0.6290
  154DOPC     N18415   6.415   3.945  16.563 -0.0235 -0.3252  0.5957
  154DOPC   C1218416   6.514   4.010  16.467 -0.5100  0.7426  0.4280
  154DOPC  H12A18417   6.614   3.982  16.496 -0.2463  2.1933  0.9928
  154DOPC  H12B18418   6.513   4.118  16.459 -3.4502  0.6326 -3.3948
  154DOPC   C1318419   6.425   3.795  16.565  0.0281 -0.7273  0.1011
  154DOPC  H13A18420   6.472   3.770  16.471 -0.6381 -0.0987 -0.4148
  154DOPC  H13B18421   6.488   3.770  16.649  0.5836  1.3755  0.3616
  154DOPC  H13C18422   6.335   3.735  16.571  1.3516 -2.7572  0.5286
  154DOPC   C1418423   6.279   3.978  16.519  0.1102 -0.1945  0.2748
  154DOPC  H14A18424   6.208   3.912  16.567 -0.2763 -0.1374 -0.2009
  154DOPC  H14B18425   6.272   4.085  16.533  1.3202  0.3815 -2.6785
  154DOPC  H14C18426   6.280   3.961  16.412 -0.0917  1.1546  0.0372
  154DOPC   C1518427   6.445   3.993  16.699 -0.1914 -0.2222 -0.6591
  154DOPC  H15A18428   6.540   3.960  16.737 -1.2403 -0.8363  1.5424
  154DOPC  H15B18429   6.368   3.952  16.762 -1.2844  0.6306 -1.3895
  154DOPC  H15C18430   6.447   4.101  16.698 -0.5222 -0.1925 -2.2983
  154DOPC   C1118431   6.501   3.962  16.319 -0.3561  0.2226  0.6702
  154DOPC  H11A18432   6.509   3.852  16.308  1.5467  0.3515  0.4836
  154DOPC  H11B18433   6.405   3.992  16.273 -0.6197 -0.9582  0.4218
  154DOPC     P18434   6.751   4.030  16.254 -0.3001 -0.0069 -0.1956
  154DOPC   O1318435   6.788   3.922  16.347  0.2215 -0.3367 -0.1217
  154DOPC   O1418436   6.806   4.159  16.297  0.7930 -0.0521  0.7558
  154DOPC   O1218437   6.594   4.028  16.239  0.2132  0.5016  0.2030
  154DOPC   O1118438   6.795   4.001  16.111 -0.1453 -0.1387  0.5706
  154DOPC    C118439   6.719   4.021  15.994  0.0065 -0.1088 -0.3167
  154DOPC    HA18440   6.788   4.049  15.911  0.5026  0.5406  0.3001
  154DOPC    HB18441   6.648   4.106  16.001 -1.0813 -1.0538  0.4755
  154DOPC    C218442   6.648   3.890  15.961 -0.7134  0.6845 -0.1440
  154DOPC    HS18443   6.622   3.837  16.055 -0.2070 -1.3172 -1.0869
  154DOPC   O2118444   6.752   3.805  15.892  0.1915  0.0474  0.1239
  154DOPC   C2118445   6.698   3.690  15.847 -0.4379 -0.5697 -0.0454
  154DOPC   O2218446   6.597   3.638  15.891 -0.2833 -0.0114  0.0010
  154DOPC   C2218447   6.769   3.640  15.728 -0.5241  0.6777  0.8498
  154DOPC   H2R18448   6.775   3.529  15.731  1.5808  0.6050 -1.7714
  154DOPC   H2S18449   6.873   3.679  15.724 -0.6365  0.8609 -0.7328
  154DOPC    C318450   6.524   3.919  15.884  0.4115 -0.0424 -0.3531
  154DOPC    HX18451   6.476   3.994  15.950  0.8505  1.0363 -1.2416
  154DOPC    HY18452   6.455   3.832  15.876 -0.1483  0.4223 -0.7122
  154DOPC   O3118453   6.550   3.979  15.755 -0.2996  0.1136 -0.0033
  154DOPC   C3118454   6.439   4.002  15.678 -0.2407  0.7494  0.1169
  154DOPC   O3218455   6.328   3.995  15.706  0.4560 -0.1028 -0.1833
  154DOPC   C3218456   6.492   4.041  15.539 -0.2467 -0.1371  0.1127
  154DOPC   H2X18457   6.438   4.135  15.513  0.5586  0.4769  0.6060
  154DOPC   H2Y18458   6.601   4.060  15.545  0.1996 -2.1500 -0.9193
  154DOPC   C2318459   6.712   3.680  15.589  0.2683  0.0969  0.1750
  154DOPC   H3R18460   6.733   3.787  15.565 -0.9248  0.2830 -0.0902
  154DOPC   H3S18461   6.602   3.673  15.594  0.3258 -0.0143  2.5902
  154DOPC   C2418462   6.749   3.588  15.472 -0.3632  0.2871 -0.5993
  154DOPC   H4R18463   6.724   3.481  15.491 -2.5555  1.1322  2.0239
  154DOPC   H4S18464   6.860   3.593  15.466  0.0132 -1.6022  2.3788
  154DOPC   C2518465   6.687   3.623  15.339 -0.3107 -0.4114 -0.0794
  154DOPC   H5R18466   6.681   3.733  15.325 -1.0756 -0.6193 -1.6588
  154DOPC   H5S18467   6.583   3.588  15.355 -0.2127 -2.1118 -2.5159
  154DOPC   C2618468   6.735   3.538  15.216  0.0611 -0.5745 -0.2615
  154DOPC   H6R18469   6.734   3.432  15.252  1.0566 -1.3299 -2.2982
  154DOPC   H6S18470   6.842   3.556  15.192  0.9982 -1.9680  2.4274
  154DOPC   C2718471   6.634   3.551  15.097  0.4885  0.3634 -0.3494
  154DOPC   H7R18472   6.620   3.657  15.066 -3.2475 -0.3129 -1.3564
  154DOPC   H7S18473   6.543   3.503  15.139  2.1955 -1.1432  1.8752
  154DOPC   C2818474   6.670   3.474  14.966  0.5275 -0.3877 -0.6063
  154DOPC   H8R18475   6.748   3.524  14.904  1.4183  0.5764  1.2256
  154DOPC   H8S18476   6.579   3.468  14.902 -2.2210  4.6741  2.1000
  154DOPC   C2918477   6.716   3.334  14.986 -0.0760 -0.1196 -0.3656
  154DOPC   H9R18478   6.825   3.322  14.977 -0.1173  0.8065 -3.2837
  154DOPC  C21018479   6.644   3.220  14.989  0.1829  0.3678 -0.1195
  154DOPC  H10R18480   6.694   3.123  14.996 -2.5547 -1.3478 -2.3227
  154DOPC  C21118481   6.493   3.218  14.994  0.9115 -0.3413 -0.2713
  154DOPC  H11R18482   6.455   3.321  14.980  0.4344 -0.7551 -2.4075
  154DOPC  H11S18483   6.457   3.191  15.095  0.8849  0.0322 -0.1791
  154DOPC  C21218484   6.430   3.135  14.876 -0.3750  0.4948  0.5159
  154DOPC  H12R18485   6.457   3.027  14.880 -0.6908  0.4092  0.4079
  154DOPC  H12S18486   6.452   3.172  14.774 -0.9035 -2.1439 -0.6202
  154DOPC  C21318487   6.276   3.147  14.871 -0.4166 -0.3226 -0.0167
  154DOPC  H13R18488   6.254   3.256  14.873  0.9124 -0.0237 -0.5227
  154DOPC  H13S18489   6.229   3.127  14.970  1.3707 -1.6813  0.6274
  154DOPC  C21418490   6.210   3.089  14.746 -0.1438  0.0937 -0.0185
  154DOPC  H14R18491   6.225   2.979  14.751 -0.6865  0.0146 -0.1296
  154DOPC  H14S18492   6.267   3.131  14.661  0.3673 -0.5383  0.0098
  154DOPC  C21518493   6.063   3.135  14.719  0.2634  0.5377  0.4723
  154DOPC  H15R18494   6.067   3.246  14.715 -1.6935  0.5967 -1.3528
  154DOPC  H15S18495   6.003   3.108  14.808  0.6602  1.0296  0.8914
  154DOPC  C21618496   6.001   3.091  14.586 -0.4134 -0.2640 -0.3262
  154DOPC  H16R18497   6.003   2.980  14.574  2.4032 -0.2359 -0.6189
  154DOPC  H16S18498   6.043   3.140  14.495 -2.0302  1.0233 -0.4236
  154DOPC  C21718499   5.865   3.141  14.579 -0.0488 -0.4240 -0.8614
  154DOPC  H17R18500   5.864   3.252  14.577  0.5487 -0.4062 -0.4589
  154DOPC  H17S18501   5.807   3.109  14.668  0.6987  1.1011  0.2143
  154DOPC  C21818502   5.796   3.099  14.449 -0.4801 -0.1997 -0.1251
  154DOPC  H18R18503   5.780   2.989  14.444  1.4300 -0.4605 -1.7881
  154DOPC  H18S18504   5.864   3.127  14.366  0.5446  1.2511  1.1493
  154DOPC  H18T18505   5.697   3.149  14.439 -0.3629  0.0983  0.1999
  154DOPC   C3318506   6.467   3.939  15.427  0.4526  0.6164 -0.5536
  154DOPC   H3X18507   6.370   3.889  15.450  2.0097 -1.1294  3.1013
  154DOPC   H3Y18508   6.550   3.864  15.432  1.3364  1.5439 -0.9526
  154DOPC   C3418509   6.461   4.006  15.284  0.3767  0.1480  0.4466
  154DOPC   H4X18510   6.559   4.051  15.259  0.4082  0.7227  1.5224
  154DOPC   H4Y18511   6.386   4.087  15.292  0.1217 -0.2550  2.7207
  154DOPC   C3518512   6.424   3.903  15.184 -0.2736  0.0638  0.5607
  154DOPC   H5X18513   6.322   3.866  15.209 -0.1923 -0.8029 -0.3395
  154DOPC   H5Y18514   6.500   3.822  15.184 -0.8700 -0.5243 -1.0132
  154DOPC   C3618515   6.407   3.967  15.046 -0.0045  1.0293  0.5456
  154DOPC   H6X18516   6.340   4.056  15.046  0.4974  1.5532 -2.9252
  154DOPC   H6Y18517   6.508   3.990  15.007  1.7946 -2.0846  2.9411
  154DOPC   C3718518   6.354   3.862  14.939 -0.2589 -0.7676 -0.4133
  154DOPC   H7X18519   6.429   3.782  14.920 -1.0807 -1.8178  0.5493
  154DOPC   H7Y18520   6.270   3.808  14.988 -1.3825  2.3349  1.3897
  154DOPC   C3818521   6.307   3.940  14.814 -0.0645  0.1571  0.3719
  154DOPC   H8X18522   6.400   3.985  14.774 -0.0929 -0.3023 -0.2289
  154DOPC   H8Y18523   6.237   4.020  14.847  0.2422  0.3380  0.5802
  154DOPC   C3918524   6.252   3.853  14.704  1.0469 -0.0162 -0.7455
  154DOPC   H9X18525   6.240   3.744  14.714 -1.9164  0.0064 -2.5836
  154DOPC  C31018526   6.223   3.904  14.580  0.0366  0.2308 -0.1255
  154DOPC  H10X18527   6.179   3.837  14.505  1.3714 -0.2042 -0.5368
  154DOPC  C31118528   6.245   4.052  14.555  0.1722 -0.2294  0.1456
  154DOPC  H11X18529   6.265   4.120  14.640  0.6892  0.1349 -0.2624
  154DOPC  H11Y18530   6.162   4.096  14.496  2.4111  0.7773 -2.5245
  154DOPC  C31218531   6.355   4.090  14.452  0.2780  0.3446 -0.2700
  154DOPC  H12X18532   6.453   4.056  14.491  1.7746  1.4040 -2.8604
  154DOPC  H12Y18533   6.355   4.201  14.443 -1.4067  0.3442 -0.6596
  154DOPC  C31318534   6.325   4.030  14.315  0.0894 -0.2817  0.1191
  154DOPC  H13X18535   6.294   3.924  14.333 -0.0897  0.2008  3.3972
  154DOPC  H13Y18536   6.236   4.087  14.281  0.5060  1.5347  1.8741
  154DOPC  C31418537   6.443   4.036  14.215  0.0288  0.1432  0.7574
  154DOPC  H14X18538   6.468   4.143  14.199 -2.2569  0.6264 -0.0079
  154DOPC  H14Y18539   6.541   3.991  14.239  0.3886  0.0208 -0.8051
  154DOPC  C31518540   6.410   3.975  14.075  0.6960 -0.0210 -0.1792
  154DOPC  H15X18541   6.413   3.864  14.076  1.1233 -0.0166 -0.7081
  154DOPC  H15Y18542   6.478   4.014  13.996  1.6324 -0.6410  0.3040
  154DOPC  C31618543   6.271   4.000  14.022  0.2743 -0.1366 -0.1978
  154DOPC  H16X18544   6.193   3.944  14.077 -1.4533 -0.1793 -2.5446
  154DOPC  H16Y18545   6.239   4.107  14.020 -2.3402 -0.8779 -0.8311
  154DOPC  C31718546   6.247   3.949  13.876 -0.1503  0.8820 -0.2721
  154DOPC  H17X18547   6.277   3.842  13.874  0.9830  1.0866  2.3015
  154DOPC  H17Y18548   6.138   3.960  13.859  0.0669  3.1101 -0.5637
  154DOPC  C31818549   6.319   4.026  13.770  0.4368  0.0622 -0.5355
  154DOPC  H18X18550   6.414   4.065  13.813  0.2952 -2.0943  1.9905
  154DOPC  H18Y18551   6.331   3.971  13.674 -3.9624  0.0067 -1.2387
  154DOPC  H18Z18552   6.255   4.111  13.741 -1.6246 -1.2910 -0.1629
  155DOPC     N18553   1.514   1.884  16.508 -0.2366  0.0414  0.1004
  155DOPC   C1218554   1.586   1.769  16.441 -0.1651 -0.3348  0.5035
  155DOPC  H12A18555   1.509   1.703  16.403 -0.7122  1.2909 -1.3928
  155DOPC  H12B18556   1.641   1.714  16.516 -0.8018  1.4819  2.3616
  155DOPC   C1318557   1.613   1.952  16.592 -0.3981 -0.2430  0.4277
  155DOPC  H13A18558   1.685   1.994  16.523 -0.7369  0.8168  0.7134
  155DOPC  H13B18559   1.572   2.039  16.639 -1.5318  0.3046 -1.4543
  155DOPC  H13C18560   1.649   1.873  16.656  0.1229 -1.1502 -0.9431
  155DOPC   C1418561   1.410   1.837  16.601  0.6233  0.4461  0.5115
  155DOPC  H14A18562   1.353   1.922  16.633  0.3748  0.2335  0.6378
  155DOPC  H14B18563   1.341   1.775  16.546  0.9625  0.8112 -0.3481
  155DOPC  H14C18564   1.447   1.788  16.690 -2.1612 -2.4564  0.2479
  155DOPC   C1518565   1.453   1.982  16.420 -0.4646 -0.3678  0.0198
  155DOPC  H15A18566   1.403   2.056  16.481  0.9694 -1.8374  3.1767
  155DOPC  H15B18567   1.386   1.932  16.351  0.1083 -0.7744 -0.2543
  155DOPC  H15C18568   1.525   2.044  16.370 -1.4347  1.4717  0.7938
  155DOPC   C1118569   1.691   1.805  16.326  0.2211  0.0757  0.0640
  155DOPC  H11A18570   1.724   1.734  16.248  0.7313  1.5392 -1.1113
  155DOPC  H11B18571   1.640   1.871  16.253  1.1957 -1.3077 -1.9669
  155DOPC     P18572   1.931   1.811  16.416  0.1212  0.2928  0.2547
  155DOPC   O1318573   1.900   1.715  16.531 -0.4763 -0.4985  0.0443
  155DOPC   O1418574   2.035   1.914  16.435 -0.0933 -0.2426 -0.1541
  155DOPC   O1218575   1.800   1.885  16.377  0.3594 -0.4354  0.8034
  155DOPC   O1118576   1.967   1.737  16.278 -0.1153 -0.6281 -0.0853
  155DOPC    C118577   2.013   1.608  16.275 -0.1701  0.3702  0.2068
  155DOPC    HA18578   1.931   1.540  16.307  1.8277 -1.2052  2.3643
  155DOPC    HB18579   2.099   1.608  16.346  0.1945 -3.7661  0.0335
  155DOPC    C218580   2.063   1.573  16.133 -0.7198  0.3400  0.0864
  155DOPC    HS18581   2.150   1.634  16.103 -0.5844 -0.1875 -0.6001
  155DOPC   O2118582   1.953   1.590  16.045 -0.3252  0.3641 -0.0636
  155DOPC   C2118583   1.951   1.700  15.978  0.3031  0.0400  0.2089
  155DOPC   O2218584   2.038   1.788  15.983 -0.0101  0.3799  0.2182
  155DOPC   C2218585   1.820   1.699  15.895  0.0427  0.4541 -0.3754
  155DOPC   H2R18586   1.747   1.637  15.951 -1.1784  2.7493  0.6656
  155DOPC   H2S18587   1.851   1.643  15.804  0.2888  0.8471 -0.5351
  155DOPC    C318588   2.116   1.419  16.124 -0.5478 -0.0404  0.1503
  155DOPC    HX18589   2.211   1.398  16.178 -0.9732 -0.8411  0.6207
  155DOPC    HY18590   2.126   1.408  16.014 -2.4611 -0.4174 -0.0196
  155DOPC   O3118591   2.010   1.333  16.181 -0.8836  0.6230  0.0222
  155DOPC   C3118592   1.935   1.272  16.094 -0.5142  0.1198 -0.3834
  155DOPC   O3218593   1.949   1.272  15.974  0.3079 -0.2858 -0.3766
  155DOPC   C3218594   1.812   1.211  16.173  0.1205 -0.3276 -0.0122
  155DOPC   H2X18595   1.812   1.100  16.163 -1.6528 -0.2826 -0.9510
  155DOPC   H2Y18596   1.816   1.241  16.279  2.7486  0.4596 -0.2615
  155DOPC   C2318597   1.769   1.836  15.855  0.1917 -0.1329 -0.2863
  155DOPC   H3R18598   1.858   1.896  15.827  0.6825 -1.4340 -1.6398
  155DOPC   H3S18599   1.721   1.883  15.943  0.3896  1.9686 -1.2481
  155DOPC   C2418600   1.670   1.838  15.736 -0.2196  0.4065 -0.2419
  155DOPC   H4R18601   1.584   1.773  15.766  0.6441 -0.3210  0.7677
  155DOPC   H4S18602   1.714   1.794  15.644 -0.1658  0.1558 -0.0966
  155DOPC   C2518603   1.622   1.982  15.708 -0.6862  0.3812 -0.1947
  155DOPC   H5R18604   1.706   2.050  15.683 -0.1711 -0.2979 -0.3404
  155DOPC   H5S18605   1.589   2.011  15.810  1.8438 -1.0467  1.1473
  155DOPC   C2618606   1.512   1.995  15.606  0.1541  0.1254 -0.8089
  155DOPC   H6R18607   1.567   2.005  15.510  0.6062 -1.3717 -0.7233
  155DOPC   H6S18608   1.459   2.088  15.635  0.2375  0.2993 -1.2039
  155DOPC   C2718609   1.406   1.881  15.600  0.0654 -0.4406  0.4921
  155DOPC   H7R18610   1.347   1.886  15.694  1.7563 -0.2396  1.5955
  155DOPC   H7S18611   1.468   1.790  15.587  0.4215  0.0114 -1.2782
  155DOPC   C2818612   1.318   1.913  15.475 -0.2174 -0.1246  0.1215
  155DOPC   H8R18613   1.373   1.966  15.394  1.4024 -2.4365 -0.3769
  155DOPC   H8S18614   1.239   1.984  15.509 -0.3214  0.4748 -1.2925
  155DOPC   C2918615   1.257   1.786  15.432  0.1821 -0.2600 -0.0483
  155DOPC   H9R18616   1.173   1.755  15.495  0.4127  1.5457  1.2374
  155DOPC  C21018617   1.272   1.718  15.319 -0.2924  0.6266 -1.4142
  155DOPC  H10R18618   1.217   1.624  15.305 -0.5627  0.7606 -1.2642
  155DOPC  C21118619   1.362   1.759  15.208 -0.7788 -0.0597 -0.5837
  155DOPC  H11R18620   1.441   1.683  15.225 -2.0330 -1.4727 -0.8080
  155DOPC  H11S18621   1.401   1.861  15.226 -0.4179 -0.0342 -1.4391
  155DOPC  C21218622   1.302   1.746  15.066 -0.0982  0.5424  0.3438
  155DOPC  H12R18623   1.286   1.637  15.057  4.6670 -0.5434  1.9471
  155DOPC  H12S18624   1.383   1.764  14.991  0.8934  1.1686  1.5174
  155DOPC  C21318625   1.180   1.839  15.043  0.2602  0.8438  0.8869
  155DOPC  H13R18626   1.203   1.941  15.079  1.6047  0.4752  1.1516
  155DOPC  H13S18627   1.090   1.805  15.099 -0.5325 -0.5657 -1.1234
  155DOPC  C21418628   1.132   1.859  14.900 -0.3307 -0.3750  0.4003
  155DOPC  H14R18629   1.086   1.764  14.865  1.0015 -0.7824 -0.3033
  155DOPC  H14S18630   1.225   1.867  14.840 -0.9167 -2.0980 -0.8027
  155DOPC  C21518631   1.050   1.981  14.892 -0.0975  0.4865  0.6694
  155DOPC  H15R18632   1.101   2.065  14.943  0.8695  0.5941 -0.4386
  155DOPC  H15S18633   0.955   1.961  14.946 -1.3644 -1.1147 -1.9069
  155DOPC  C21618634   1.011   2.019  14.752 -0.4307  0.0383  0.6475
  155DOPC  H16R18635   1.104   2.061  14.709 -0.9371  1.3950  0.8190
  155DOPC  H16S18636   0.942   2.106  14.747  0.0122  0.3208 -1.9132
  155DOPC  C21718637   0.957   1.915  14.657  1.1406  0.0106  0.1818
  155DOPC  H17R18638   1.034   1.847  14.614  0.6858 -0.4448  0.0764
  155DOPC  H17S18639   0.921   1.973  14.569  0.6957  0.9299  0.9599
  155DOPC  C21818640   0.833   1.837  14.699 -0.1502 -0.7424 -0.5507
  155DOPC  H18R18641   0.790   1.768  14.622 -1.4046 -0.5550 -0.0350
  155DOPC  H18S18642   0.744   1.902  14.711 -0.0858 -0.6648 -0.4963
  155DOPC  H18T18643   0.844   1.774  14.790 -0.0323 -1.3198 -0.9523
  155DOPC   C3318644   1.671   1.264  16.113  0.2274  0.3441  0.1287
  155DOPC   H3X18645   1.601   1.239  16.196 -0.1975  0.5330 -0.1697
  155DOPC   H3Y18646   1.638   1.221  16.015  1.4762  0.8794 -0.5494
  155DOPC   C3418647   1.677   1.413  16.108  0.1145 -0.6886  0.3645
  155DOPC   H4X18648   1.750   1.452  16.034 -1.8705  1.3128 -0.6719
  155DOPC   H4Y18649   1.698   1.451  16.211  1.3183  0.9553 -0.4486
  155DOPC   C3518650   1.546   1.492  16.078  0.8251 -0.9072 -0.0005
  155DOPC   H5X18651   1.565   1.601  16.091  0.1954 -0.6725 -0.9048
  155DOPC   H5Y18652   1.480   1.457  16.160  0.2454 -0.7644 -0.3946
  155DOPC   C3618653   1.490   1.460  15.944 -0.5460 -0.5524 -0.1859
  155DOPC   H6X18654   1.552   1.511  15.867 -1.0156 -2.2189 -1.7434
  155DOPC   H6Y18655   1.491   1.350  15.927 -0.2175 -0.5696 -0.0564
  155DOPC   C3718656   1.347   1.515  15.933  0.3456  0.2715  0.0326
  155DOPC   H7X18657   1.275   1.431  15.943  1.1454 -0.2374  2.5348
  155DOPC   H7Y18658   1.331   1.588  16.015  0.0157  1.1800 -0.8294
  155DOPC   C3818659   1.323   1.588  15.792 -0.4213 -0.0486 -0.1400
  155DOPC   H8X18660   1.401   1.666  15.800  1.5964 -2.1181  2.1550
  155DOPC   H8Y18661   1.219   1.626  15.795  0.0737  1.3307  0.4412
  155DOPC   C3918662   1.344   1.489  15.675  0.1126 -0.6886  0.0451
  155DOPC   H9X18663   1.450   1.487  15.648  0.0500 -1.1428 -0.1691
  155DOPC  C31018664   1.259   1.394  15.628 -0.3052  1.2348  0.4422
  155DOPC  H10X18665   1.297   1.320  15.557 -1.4825 -0.1406  1.1979
  155DOPC  C31118666   1.113   1.374  15.660 -0.6217  0.0965 -0.1026
  155DOPC  H11X18667   1.070   1.472  15.690 -1.8390 -0.2667 -0.6076
  155DOPC  H11Y18668   1.102   1.301  15.743 -0.2311  1.8435  1.5605
  155DOPC  C31218669   1.042   1.339  15.533  0.4325 -0.2210 -0.3313
  155DOPC  H12X18670   1.084   1.249  15.483  0.1677 -2.0003  2.4001
  155DOPC  H12Y18671   1.050   1.421  15.459 -1.1510  0.8180  0.5943
  155DOPC  C31318672   0.891   1.303  15.552 -0.0310  0.5467  0.5545
  155DOPC  H13X18673   0.873   1.228  15.632 -0.3522  0.5874  0.5238
  155DOPC  H13Y18674   0.835   1.391  15.590 -0.8579 -0.1147  0.8973
  155DOPC  C31418675   0.825   1.246  15.425  0.2478  0.7190  0.2085
  155DOPC  H14X18676   0.718   1.230  15.452  0.7691  1.7921  3.4263
  155DOPC  H14Y18677   0.832   1.314  15.338 -0.1166  1.0597  0.4394
  155DOPC  C31518678   0.875   1.111  15.368 -0.4002 -0.0561 -0.5701
  155DOPC  H15X18679   0.870   1.032  15.446 -2.0574  0.5195 -0.0541
  155DOPC  H15Y18680   0.983   1.114  15.345 -0.1442 -0.6058  0.5188
  155DOPC  C31618681   0.790   1.067  15.251  0.1985 -0.0556  0.1589
  155DOPC  H16X18682   0.687   1.058  15.292  0.2953 -2.5132 -0.0152
  155DOPC  H16Y18683   0.796   1.143  15.171  1.6920  0.5655  0.8165
  155DOPC  C31718684   0.851   0.935  15.206 -0.0110  0.4523 -0.0033
  155DOPC  H17X18685   0.958   0.960  15.187  0.1353  1.0957  1.5061
  155DOPC  H17Y18686   0.845   0.863  15.290 -1.8198 -0.8026 -1.1164
  155DOPC  C31818687   0.789   0.874  15.079 -0.3483  1.0629  0.0291
  155DOPC  H18X18688   0.800   0.941  14.991 -2.2918  0.4029 -0.7689
  155DOPC  H18Y18689   0.826   0.771  15.064 -3.6448 -0.9923  3.9692
  155DOPC  H18Z18690   0.679   0.858  15.088 -0.4203  1.9186  0.9173
  156DOPC     N18691   7.222   5.385  16.553 -0.0879  0.2991  0.3393
  156DOPC   C1218692   7.255   5.422  16.411  0.7434 -0.1924 -0.7868
  156DOPC  H12A18693   7.316   5.344  16.368 -1.1708 -1.8027 -0.7451
  156DOPC  H12B18694   7.312   5.513  16.421  0.9754 -0.5353  2.0421
  156DOPC   C1318695   7.138   5.267  16.578  0.3147 -0.1538  0.0562
  156DOPC  H13A18696   7.178   5.169  16.558 -0.8534 -0.7682  0.6744
  156DOPC  H13B18697   7.109   5.257  16.682 -2.0326 -0.7400 -0.5970
  156DOPC  H13C18698   7.050   5.264  16.515  1.0481 -1.3588 -0.9579
  156DOPC   C1418699   7.148   5.500  16.614  1.2348  0.0863 -0.3271
  156DOPC  H14A18700   7.147   5.491  16.722  1.6592  1.6277 -0.1719
  156DOPC  H14B18701   7.193   5.595  16.591  0.5220  0.7621  0.9648
  156DOPC  H14C18702   7.048   5.502  16.575  1.6225  2.3770 -1.3322
  156DOPC   C1518703   7.351   5.375  16.631 -0.5645  1.2466 -0.1679
  156DOPC  H15A18704   7.344   5.360  16.738  1.5935 -1.4360 -0.2923
  156DOPC  H15B18705   7.416   5.461  16.617  0.7122  0.4614  0.6717
  156DOPC  H15C18706   7.404   5.287  16.599 -0.1880  1.2323  0.4775
  156DOPC   C1118707   7.128   5.423  16.317 -0.1838 -0.7455  0.0490
  156DOPC  H11A18708   7.162   5.442  16.213 -0.6343  1.0847  0.2137
  156DOPC  H11B18709   7.080   5.323  16.320 -0.2397 -0.6961  0.8937
  156DOPC     P18710   7.057   5.676  16.299 -0.3750  0.2592  0.6934
  156DOPC   O1318711   7.196   5.702  16.269 -0.0780 -0.2941  0.1079
  156DOPC   O1418712   7.004   5.785  16.382  0.3637  0.2763  0.0788
  156DOPC   O1218713   7.034   5.528  16.354 -0.0974  0.4741  0.5894
  156DOPC   O1118714   6.973   5.670  16.165  0.2929 -0.0080 -0.0041
  156DOPC    C118715   6.844   5.612  16.143 -0.1598 -0.3959  0.8414
  156DOPC    HA18716   6.776   5.639  16.227 -2.6050 -0.2986 -1.0476
  156DOPC    HB18717   6.849   5.502  16.126 -2.5613 -0.2617 -1.1502
  156DOPC    C218718   6.767   5.668  16.019 -0.1717 -0.5747  0.2475
  156DOPC    HS18719   6.675   5.607  16.013 -0.6513  0.2982 -2.3148
  156DOPC   O2118720   6.857   5.656  15.902  0.0689 -0.1062  0.0460
  156DOPC   C2118721   6.887   5.534  15.860  0.2504  0.2269 -0.2242
  156DOPC   O2218722   6.842   5.428  15.908  0.0534 -0.6337 -0.3756
  156DOPC   C2218723   6.981   5.536  15.739 -0.1755 -0.4134 -1.5421
  156DOPC   H2R18724   7.078   5.496  15.777 -0.8457  0.4898  1.4030
  156DOPC   H2S18725   6.992   5.640  15.701 -1.4951  0.0335 -0.7414
  156DOPC    C318726   6.751   5.822  16.041 -0.4709 -0.5374 -0.4239
  156DOPC    HX18727   6.840   5.888  16.051 -1.3747  0.8139 -1.0269
  156DOPC    HY18728   6.699   5.822  16.139 -0.7594 -0.7566 -0.5782
  156DOPC   O3118729   6.678   5.890  15.932  0.0487  0.4780  0.1442
  156DOPC   C3118730   6.547   5.857  15.921 -0.1787 -0.5330 -0.2668
  156DOPC   O3218731   6.491   5.775  15.988  0.0401  0.5767 -0.2132
  156DOPC   C3218732   6.475   5.948  15.815 -0.0964  0.4177 -1.2174
  156DOPC   H2X18733   6.401   6.008  15.873  1.2280 -0.2976  1.3641
  156DOPC   H2Y18734   6.549   6.020  15.774  1.6425 -0.1586  0.7216
  156DOPC   C2318735   6.940   5.444  15.630 -0.2896 -0.1014 -0.3658
  156DOPC   H3R18736   6.842   5.464  15.582 -1.6041 -1.5925  1.5517
  156DOPC   H3S18737   6.927   5.342  15.672 -1.5991 -0.1282 -0.8197
  156DOPC   C2418738   7.044   5.431  15.514 -0.0239 -0.2911  0.1508
  156DOPC   H4R18739   7.141   5.389  15.548  0.4805  1.5807  1.1371
  156DOPC   H4S18740   7.073   5.528  15.469  0.4299 -0.7391 -0.5332
  156DOPC   C2518741   7.007   5.325  15.404  0.0299 -0.0899 -0.5678
  156DOPC   H5R18742   6.976   5.226  15.445 -2.6879  0.8406 -0.1453
  156DOPC   H5S18743   7.100   5.310  15.345  0.9301  0.0066  0.7864
  156DOPC   C2618744   6.895   5.366  15.314  0.3683 -0.1893  0.6255
  156DOPC   H6R18745   6.903   5.469  15.273 -0.1476 -0.8773 -1.2878
  156DOPC   H6S18746   6.804   5.383  15.377 -0.1356  1.7916 -0.5454
  156DOPC   C2718747   6.865   5.269  15.195 -0.1967  0.2976  0.2298
  156DOPC   H7R18748   6.844   5.163  15.222 -0.3076 -0.0484 -1.1275
  156DOPC   H7S18749   6.952   5.260  15.127 -0.4332  0.3315 -0.0810
  156DOPC   C2818750   6.752   5.314  15.095  0.2214  0.1021  0.2572
  156DOPC   H8R18751   6.759   5.243  15.009  1.8821 -0.7416  1.0383
  156DOPC   H8S18752   6.767   5.420  15.066 -0.4733 -0.0872 -0.8947
  156DOPC   C2918753   6.620   5.298  15.176  0.0460 -0.1379  0.9748
  156DOPC   H9R18754   6.627   5.220  15.253 -1.9841 -1.8224 -0.4326
  156DOPC  C21018755   6.503   5.355  15.151 -0.1439  0.5270 -0.1592
  156DOPC  H10R18756   6.419   5.326  15.216  0.1012  0.2155  0.0182
  156DOPC  C21118757   6.472   5.453  15.038 -0.4802 -0.1236  0.5285
  156DOPC  H11R18758   6.554   5.472  14.965 -1.3580  0.3645 -0.3625
  156DOPC  H11S18759   6.479   5.549  15.093  2.0538  0.2234 -0.2667
  156DOPC  C21218760   6.341   5.440  14.955 -0.1468  0.7928  0.2849
  156DOPC  H12R18761   6.325   5.542  14.914 -0.1357  0.3931 -0.7384
  156DOPC  H12S18762   6.262   5.397  15.020 -0.0301 -2.9893 -1.8251
  156DOPC  C21318763   6.356   5.341  14.841 -0.6190 -0.1666 -0.1146
  156DOPC  H13R18764   6.370   5.240  14.884  1.4923  0.0233 -0.2247
  156DOPC  H13S18765   6.443   5.368  14.777 -0.5547 -0.0403  0.0219
  156DOPC  C21418766   6.229   5.327  14.753 -0.3117  0.3182  0.5458
  156DOPC  H14R18767   6.221   5.412  14.681 -1.4087 -1.0156 -0.9762
  156DOPC  H14S18768   6.137   5.323  14.816 -1.9457 -2.6580 -1.7920
  156DOPC  C21518769   6.232   5.192  14.671 -0.2080  0.5577 -0.2337
  156DOPC  H15R18770   6.149   5.198  14.597 -0.3295 -2.2848 -0.4227
  156DOPC  H15S18771   6.211   5.112  14.745  2.1943 -0.7783 -0.8861
  156DOPC  C21618772   6.373   5.157  14.611  0.1865  0.0172 -0.0697
  156DOPC  H16R18773   6.448   5.143  14.692  0.9211  0.7792 -0.5955
  156DOPC  H16S18774   6.404   5.238  14.541 -2.0749  0.0347 -1.1280
  156DOPC  C21718775   6.365   5.033  14.527  0.6063 -0.1831  0.3527
  156DOPC  H17R18776   6.287   5.049  14.451 -0.1248 -0.5383  1.0068
  156DOPC  H17S18777   6.325   4.953  14.595  1.1002 -0.3400  0.4641
  156DOPC  C21818778   6.495   4.987  14.458 -0.8574 -0.2633 -0.4740
  156DOPC  H18R18779   6.526   5.054  14.376 -2.4979  0.0977 -0.8391
  156DOPC  H18S18780   6.474   4.885  14.420  0.7886 -1.3203  1.2222
  156DOPC  H18T18781   6.576   4.970  14.533  0.3298 -1.0347 -1.8880
  156DOPC   C3318782   6.418   5.882  15.694  0.1066 -0.1293 -0.1953
  156DOPC   H3X18783   6.313   5.849  15.707 -0.7535 -0.2691 -5.3758
  156DOPC   H3Y18784   6.483   5.795  15.670 -0.6349 -1.7669  3.1864
  156DOPC   C3418785   6.417   5.969  15.566  0.3619  0.1198  0.2256
  156DOPC   H4X18786   6.343   5.923  15.498 -0.0720 -0.4478  1.0764
  156DOPC   H4Y18787   6.516   5.958  15.516  0.0546  0.2256 -0.4121
  156DOPC   C3518788   6.381   6.114  15.583  0.4846 -0.5988 -0.8976
  156DOPC   H5X18789   6.461   6.170  15.636 -0.6664 -0.6383  0.9656
  156DOPC   H5Y18790   6.288   6.113  15.645  1.0695  0.0146  0.0152
  156DOPC   C3618791   6.343   6.194  15.453  0.2501 -0.5590 -0.6259
  156DOPC   H6X18792   6.439   6.228  15.409 -0.3248 -0.0119 -1.4963
  156DOPC   H6Y18793   6.306   6.126  15.373 -0.7580 -1.4817  0.5857
  156DOPC   C3718794   6.261   6.320  15.468  0.2857  0.1556  0.2218
  156DOPC   H7X18795   6.180   6.295  15.539  0.5478 -2.7772 -0.4092
  156DOPC   H7Y18796   6.317   6.409  15.505 -1.2842  0.7913  1.1733
  156DOPC   C3818797   6.193   6.365  15.331 -0.5874  0.2395  0.4740
  156DOPC   H8X18798   6.152   6.272  15.287  0.3195 -0.5350  1.2146
  156DOPC   H8Y18799   6.269   6.386  15.253 -0.9845  1.9003  0.4898
  156DOPC   C3918800   6.098   6.477  15.363 -0.7608  0.9881  0.0129
  156DOPC   H9X18801   6.145   6.554  15.427 -1.6537  0.9660  0.7212
  156DOPC  C31018802   5.967   6.486  15.328 -0.0178  0.0256 -0.0124
  156DOPC  H10X18803   5.917   6.582  15.350  2.2158  1.3113 -0.2034
  156DOPC  C31118804   5.897   6.388  15.242 -0.0902 -0.4974 -0.6411
  156DOPC  H11X18805   5.889   6.288  15.290 -0.5247 -0.6850 -1.0930
  156DOPC  H11Y18806   5.954   6.380  15.147 -1.5322 -0.6550 -1.5285
  156DOPC  C31218807   5.759   6.442  15.190  0.3970  0.8194 -1.1554
  156DOPC  H12X18808   5.785   6.533  15.132  2.3667  0.9497 -0.1798
  156DOPC  H12Y18809   5.705   6.467  15.283 -2.0718  0.6716 -2.4817
  156DOPC  C31318810   5.674   6.337  15.106 -0.5379 -0.1768  0.4163
  156DOPC  H13X18811   5.644   6.248  15.165  0.0324 -1.4988 -1.2057
  156DOPC  H13Y18812   5.585   6.389  15.065 -0.3396 -0.5459 -0.5154
  156DOPC  C31418813   5.757   6.283  14.988 -0.2285 -0.1870 -0.0762
  156DOPC  H14X18814   5.762   6.372  14.921 -0.6205 -0.2069 -0.1349
  156DOPC  H14Y18815   5.860   6.252  15.014  0.1725  0.6317 -0.6421
  156DOPC  C31518816   5.695   6.157  14.921  0.0286 -0.4623  0.3186
  156DOPC  H15X18817   5.606   6.189  14.864  2.0411  0.3701 -2.5690
  156DOPC  H15Y18818   5.675   6.087  15.006  3.4371  0.6125  2.1794
  156DOPC  C31618819   5.781   6.092  14.809 -0.1639 -0.0882  0.3400
  156DOPC  H16X18820   5.787   6.176  14.737 -1.5053 -0.4926 -0.2715
  156DOPC  H16Y18821   5.877   6.049  14.848  0.7354  1.7764  0.2637
  156DOPC  C31718822   5.702   5.985  14.717 -0.2379 -0.3817  0.2513
  156DOPC  H17X18823   5.621   6.026  14.654 -1.4701 -2.7375  0.2084
  156DOPC  H17Y18824   5.773   5.944  14.642 -0.2395 -0.8781  0.5140
  156DOPC  C31818825   5.645   5.873  14.806  0.5177 -0.2985  0.6388
  156DOPC  H18X18826   5.575   5.913  14.882 -0.4138  3.4235 -1.8982
  156DOPC  H18Y18827   5.586   5.805  14.741 -2.0593  0.0513  2.4776
  156DOPC  H18Z18828   5.728   5.821  14.857 -0.5599 -2.2667  0.4856
  157DOPC     N18829   5.832   1.753  16.740  1.1848  0.3085  0.1029
  157DOPC   C1218830   5.808   1.679  16.607 -0.0792  0.2220  0.1373
  157DOPC  H12A18831   5.710   1.713  16.577 -1.3806 -0.1067  3.5418
  157DOPC  H12B18832   5.794   1.573  16.627 -0.0044  0.0787 -0.5690
  157DOPC   C1318833   5.970   1.725  16.780 -0.8934 -0.0212  0.1983
  157DOPC  H13A18834   6.041   1.773  16.714 -0.0762  1.2418  1.9016
  157DOPC  H13B18835   5.992   1.771  16.875 -2.3548 -0.1913  0.6488
  157DOPC  H13C18836   5.996   1.621  16.777  1.9123  0.5467  1.5632
  157DOPC   C1418837   5.732   1.687  16.833 -0.5651 -0.1452 -0.5427
  157DOPC  H14A18838   5.720   1.732  16.930 -0.6187 -0.8558 -0.2140
  157DOPC  H14B18839   5.633   1.676  16.791 -1.5063 -1.4298  1.8265
  157DOPC  H14C18840   5.770   1.589  16.858  0.0306  0.2003 -0.0683
  157DOPC   C1518841   5.789   1.892  16.726 -0.1616  0.0692 -0.0671
  157DOPC  H15A18842   5.686   1.887  16.695 -0.6360 -2.9144  1.6108
  157DOPC  H15B18843   5.845   1.944  16.649 -1.5750 -0.2789 -1.3827
  157DOPC  H15C18844   5.794   1.946  16.819  2.3022 -1.4585  0.7732
  157DOPC   C1118845   5.897   1.698  16.488 -0.1722 -0.9028  0.4168
  157DOPC  H11A18846   5.998   1.673  16.527 -0.6493 -2.2967  0.8160
  157DOPC  H11B18847   5.868   1.617  16.417 -0.9893  0.9483 -1.4941
  157DOPC     P18848   5.785   1.883  16.344  0.4606  0.3525  0.1546
  157DOPC   O1318849   5.805   2.028  16.332 -0.7310  0.2015  0.1512
  157DOPC   O1418850   5.652   1.841  16.385 -0.0066 -0.5971  0.3347
  157DOPC   O1218851   5.900   1.833  16.436  0.1619 -0.4050 -0.6579
  157DOPC   O1118852   5.824   1.817  16.202 -0.6483  0.3634  0.5877
  157DOPC    C118853   5.962   1.838  16.154 -0.3558 -0.2439 -0.2444
  157DOPC    HA18854   6.027   1.764  16.205  1.1167  1.2759  0.1669
  157DOPC    HB18855   5.993   1.943  16.172 -0.2428 -0.1645 -0.8815
  157DOPC    C218856   5.968   1.810  16.002  0.1402 -0.4882 -0.2289
  157DOPC    HS18857   6.049   1.871  15.957 -0.8938 -0.7792 -2.6063
  157DOPC   O2118858   5.849   1.844  15.942 -0.0324 -0.0904  0.3979
  157DOPC   C2118859   5.825   1.975  15.927 -0.3904  0.2658  0.0427
  157DOPC   O2218860   5.899   2.061  15.956 -0.4249 -0.9900  0.2503
  157DOPC   C2218861   5.684   1.996  15.864 -0.0063  0.9566  0.2112
  157DOPC   H2R18862   5.660   2.104  15.855 -2.8834  0.4168  0.4002
  157DOPC   H2S18863   5.612   1.950  15.935  3.0042 -2.0657  1.5835
  157DOPC    C318864   5.987   1.655  15.975  0.1605  0.0388  0.5949
  157DOPC    HX18865   5.898   1.604  16.017 -0.2041  1.2173  1.2840
  157DOPC    HY18866   6.073   1.631  16.041  1.2004  0.9864 -0.3683
  157DOPC   O3118867   6.007   1.621  15.838  0.3424 -0.4583 -0.5274
  157DOPC   C3118868   5.913   1.562  15.760  0.3160 -0.3168 -0.8807
  157DOPC   O3218869   5.795   1.538  15.790 -0.3635  0.3469  0.5660
  157DOPC   C3218870   5.980   1.535  15.623 -0.0392 -1.0481 -0.4308
  157DOPC   H2X18871   6.049   1.450  15.637  1.1880 -0.1720 -0.9705
  157DOPC   H2Y18872   5.902   1.502  15.551 -1.7546 -2.1237  1.7888
  157DOPC   C2318873   5.677   1.938  15.725 -0.2814  0.0483 -0.2097
  157DOPC   H3R18874   5.580   1.963  15.678 -0.2769 -2.7919 -1.9967
  157DOPC   H3S18875   5.678   1.827  15.731  3.8601 -0.0495  0.4176
  157DOPC   C2418876   5.776   1.997  15.624  0.4887  0.0750  0.0521
  157DOPC   H4R18877   5.874   1.952  15.647  0.9213  1.1551  0.3902
  157DOPC   H4S18878   5.770   2.108  15.628 -0.9450  0.1794 -2.4810
  157DOPC   C2518879   5.742   1.960  15.473  0.7698  0.0286  0.5863
  157DOPC   H5R18880   5.659   2.025  15.438 -0.1731 -0.8306  1.1764
  157DOPC   H5S18881   5.701   1.858  15.489  0.8051  0.1379  1.4323
  157DOPC   C2618882   5.865   1.965  15.372  0.1972  0.0841  0.2539
  157DOPC   H6R18883   5.956   1.965  15.435  0.1502 -0.8387  0.3406
  157DOPC   H6S18884   5.851   2.063  15.322 -0.6020  0.4264  1.1457
  157DOPC   C2718885   5.855   1.844  15.273  1.0690 -0.3378  0.0493
  157DOPC   H7R18886   5.850   1.752  15.334 -0.4118  0.1439  0.7070
  157DOPC   H7S18887   5.945   1.852  15.208  0.5192 -2.0094 -0.9840
  157DOPC   C2818888   5.724   1.835  15.186  0.1990 -0.0746 -0.3655
  157DOPC   H8R18889   5.637   1.837  15.255  1.1877 -0.2538  0.9324
  157DOPC   H8S18890   5.725   1.739  15.131  2.2228  1.1843 -2.7390
  157DOPC   C2918891   5.716   1.935  15.073  0.1676  0.4432  0.1721
  157DOPC   H9R18892   5.745   2.035  15.110  0.8981  0.1966  0.2772
  157DOPC  C21018893   5.671   1.923  14.944 -0.0450 -0.2500 -0.0793
  157DOPC  H10R18894   5.673   2.008  14.874 -3.9186 -0.5507 -0.7512
  157DOPC  C21118895   5.616   1.794  14.891  0.0970 -0.1081  0.1889
  157DOPC  H11R18896   5.569   1.738  14.974 -0.7881 -0.7902 -0.7364
  157DOPC  H11S18897   5.694   1.728  14.848  0.9144  0.1129  1.2900
  157DOPC  C21218898   5.514   1.831  14.783  0.1483  0.2684  0.1311
  157DOPC  H12R18899   5.557   1.899  14.706 -1.4673  0.5546 -0.5635
  157DOPC  H12S18900   5.420   1.874  14.822 -1.4423 -2.8513  0.0265
  157DOPC  C21318901   5.479   1.710  14.706 -0.5243  0.5241 -0.0217
  157DOPC  H13R18902   5.569   1.657  14.668 -1.7232 -1.1628 -0.6219
  157DOPC  H13S18903   5.410   1.726  14.622 -1.1645  0.2328  0.4419
  157DOPC  C21418904   5.401   1.598  14.794  0.4133 -0.4794 -0.2618
  157DOPC  H14R18905   5.303   1.650  14.808  0.9559  0.7001 -0.6820
  157DOPC  H14S18906   5.454   1.580  14.890 -0.2526  2.6157  0.8063
  157DOPC  C21518907   5.366   1.472  14.720  0.5627  0.4955  0.4371
  157DOPC  H15R18908   5.463   1.418  14.707  0.0841 -0.0917 -0.9951
  157DOPC  H15S18909   5.321   1.498  14.622  0.3254  0.3285  0.5001
  157DOPC  C21618910   5.261   1.386  14.788  0.3277  0.6837 -0.2829
  157DOPC  H16R18911   5.160   1.431  14.784  0.0106  0.2166  1.4859
  157DOPC  H16S18912   5.282   1.377  14.897  1.0467  0.4463 -0.4351
  157DOPC  C21718913   5.254   1.244  14.727  0.4251  0.1438  0.2004
  157DOPC  H17R18914   5.353   1.194  14.716 -0.1077 -0.9292  0.1714
  157DOPC  H17S18915   5.217   1.254  14.623  1.3936  0.2293 -0.1509
  157DOPC  C21818916   5.158   1.154  14.808 -0.0776  0.0043  0.0889
  157DOPC  H18R18917   5.182   1.156  14.917  2.2039  0.9843 -0.3821
  157DOPC  H18S18918   5.163   1.047  14.781 -0.2174 -0.8811  3.1770
  157DOPC  H18T18919   5.053   1.183  14.788  0.1127 -1.0162 -2.7168
  157DOPC   C3318920   6.051   1.667  15.572 -0.0294 -0.6151  0.3623
  157DOPC   H3X18921   6.129   1.702  15.644 -0.2390  1.4080 -0.3371
  157DOPC   H3Y18922   5.980   1.750  15.556 -0.2004 -0.4146  1.9516
  157DOPC   C3418923   6.125   1.651  15.438  0.4358  0.3406 -0.0890
  157DOPC   H4X18924   6.059   1.622  15.354  1.2166  2.1265 -1.3865
  157DOPC   H4Y18925   6.206   1.575  15.444 -0.3875 -0.4976  0.9916
  157DOPC   C3518926   6.186   1.776  15.379 -0.3242 -0.0978  0.0395
  157DOPC   H5X18927   6.257   1.819  15.453  0.7427 -1.5216 -0.1170
  157DOPC   H5Y18928   6.102   1.848  15.366 -1.6311 -1.6334 -0.2888
  157DOPC   C3618929   6.257   1.748  15.244 -0.6881  0.0582  0.0039
  157DOPC   H6X18930   6.348   1.690  15.271 -1.1619 -0.8319 -0.2728
  157DOPC   H6Y18931   6.196   1.675  15.187 -1.6392  1.6092 -1.0339
  157DOPC   C3718932   6.299   1.872  15.160 -0.6695 -0.2193 -0.0297
  157DOPC   H7X18933   6.200   1.913  15.129 -0.6098  1.3304  1.6585
  157DOPC   H7Y18934   6.353   1.944  15.225  0.1918 -1.9418  1.2536
  157DOPC   C3818935   6.386   1.832  15.038 -0.0307  0.1297 -0.8553
  157DOPC   H8X18936   6.327   1.751  14.988 -1.4818  0.5621  0.0882
  157DOPC   H8Y18937   6.477   1.788  15.083  1.3315  1.9580 -1.7094
  157DOPC   C3918938   6.416   1.948  14.949 -0.2678 -0.3141  0.4005
  157DOPC   H9X18939   6.440   2.042  15.001 -3.5042 -0.1851  1.8942
  157DOPC  C31018940   6.409   1.946  14.811  0.2859  0.2433  0.1678
  157DOPC  H10X18941   6.443   2.033  14.753  1.7918  0.4560  1.3188
  157DOPC  C31118942   6.382   1.821  14.726  0.3622 -0.3670 -0.0731
  157DOPC  H11X18943   6.395   1.730  14.789 -0.6061  0.4968  1.4280
  157DOPC  H11Y18944   6.451   1.811  14.639  0.6919  2.9214 -0.3254
  157DOPC  C31218945   6.237   1.820  14.682 -0.3996  0.7537 -0.2297
  157DOPC  H12X18946   6.217   1.732  14.616  0.4008 -0.3195  0.9321
  157DOPC  H12Y18947   6.239   1.910  14.616 -0.5242  0.2522 -0.9386
  157DOPC  C31318948   6.131   1.844  14.789 -0.4301  0.2119  0.3160
  157DOPC  H13X18949   6.148   1.781  14.879  0.3890 -0.7148 -0.4718
  157DOPC  H13Y18950   6.135   1.947  14.831  1.8966 -0.6555  2.4473
  157DOPC  C31418951   5.984   1.819  14.746 -0.8780  0.1623  0.2967
  157DOPC  H14X18952   5.916   1.859  14.824 -0.9247  0.5001  0.0817
  157DOPC  H14Y18953   5.960   1.877  14.654 -0.7913  1.6949  1.2056
  157DOPC  C31518954   5.945   1.670  14.729  0.6469 -0.7844  0.2017
  157DOPC  H15X18955   5.997   1.623  14.643 -1.5829 -0.2648 -1.5180
  157DOPC  H15Y18956   5.836   1.665  14.710  0.6688 -1.1471  0.1525
  157DOPC  C31618957   5.965   1.588  14.858 -0.6704  0.2882 -0.1646
  157DOPC  H16X18958   6.074   1.569  14.860 -0.6806  0.1710 -0.5465
  157DOPC  H16Y18959   5.951   1.639  14.956 -0.0404  0.0585  0.0482
  157DOPC  C31718960   5.899   1.451  14.850  0.5550 -0.9948 -0.1208
  157DOPC  H17X18961   5.789   1.464  14.847  0.6760  1.5382  2.2540
  157DOPC  H17Y18962   5.938   1.414  14.753  3.1029 -0.3119  0.5459
  157DOPC  C31818963   5.946   1.361  14.968  0.6633 -0.3709  0.3569
  157DOPC  H18X18964   5.900   1.262  14.951 -0.4092  0.2780 -0.6381
  157DOPC  H18Y18965   6.057   1.354  14.964  0.7464  1.0645 -0.2387
  157DOPC  H18Z18966   5.912   1.402  15.066  1.4794 -0.0637  0.5201
  158DOPC     N18967   2.985   0.995  16.199 -0.1891  0.0836 -0.1901
  158DOPC   C1218968   3.094   0.992  16.314  0.2229 -0.7303  0.3351
  158DOPC  H12A18969   3.047   0.953  16.403  0.4094  0.3557  0.9240
  158DOPC  H12B18970   3.123   1.093  16.339  0.5968 -0.9060  0.6304
  158DOPC   C1318971   2.930   0.853  16.195 -0.2610  0.1820  1.1812
  158DOPC  H13A18972   3.005   0.782  16.163 -0.7450  0.7340 -1.4217
  158DOPC  H13B18973   2.893   0.827  16.293 -0.1069 -0.5927  1.0346
  158DOPC  H13C18974   2.847   0.841  16.127 -1.2353 -0.5177  2.4479
  158DOPC   C1418975   3.054   1.029  16.066  0.5135 -0.0978 -0.4931
  158DOPC  H14A18976   3.088   1.131  16.069 -1.5957  0.6455  0.0158
  158DOPC  H14B18977   3.131   0.960  16.033  0.5141 -0.3038 -0.0597
  158DOPC  H14C18978   2.977   1.030  15.990 -1.8198  0.9998  1.7246
  158DOPC   C1518979   2.875   1.089  16.237  0.6586 -0.9559  0.3015
  158DOPC  H15A18980   2.785   1.055  16.188  0.1474  1.3281 -0.4698
  158DOPC  H15B18981   2.894   1.192  16.208  0.2501 -0.9621  0.0037
  158DOPC  H15C18982   2.846   1.078  16.340  0.6339  0.4174  0.4607
  158DOPC   C1118983   3.217   0.902  16.299 -0.5408  0.1864 -0.0697
  158DOPC  H11A18984   3.259   0.927  16.199 -0.0966  0.2214  0.1247
  158DOPC  H11B18985   3.294   0.931  16.373 -0.6535  2.0304 -0.6255
  158DOPC     P18986   3.278   0.649  16.268  0.0098  0.2862 -0.0892
  158DOPC   O1318987   3.212   0.525  16.313  0.4585 -0.2594 -0.2597
  158DOPC   O1418988   3.416   0.673  16.310  0.8770 -0.0069  0.1682
  158DOPC   O1218989   3.185   0.768  16.293 -0.5313 -0.0433 -0.3522
  158DOPC   O1118990   3.282   0.640  16.105  0.3241 -0.4156  0.5356
  158DOPC    C118991   3.346   0.734  16.021  0.7758 -0.5427 -0.3441
  158DOPC    HA18992   3.419   0.787  16.086  0.0344  0.6070 -0.4399
  158DOPC    HB18993   3.277   0.810  15.981  1.0607 -1.0413 -1.8449
  158DOPC    C218994   3.418   0.663  15.911 -0.0753 -0.3389  0.0817
  158DOPC    HS18995   3.501   0.723  15.869  0.9105 -1.0033  1.0125
  158DOPC   O2118996   3.317   0.629  15.807  0.1759  0.2726 -0.5515
  158DOPC   C2118997   3.302   0.725  15.718 -0.1024 -0.3591  0.1336
  158DOPC   O2218998   3.376   0.827  15.709  0.0969  0.4861 -0.0344
  158DOPC   C2218999   3.193   0.687  15.613  0.1311  0.2258 -0.4029
  158DOPC   H2R19000   3.158   0.771  15.549  2.0761  1.6455  0.2939
  158DOPC   H2S19001   3.104   0.648  15.667  0.2261  1.7412  0.9397
  158DOPC    C319002   3.503   0.538  15.950 -0.3894  0.0575  0.0377
  158DOPC    HX19003   3.451   0.466  16.016  0.5772 -0.2079  0.5382
  158DOPC    HY19004   3.595   0.570  16.004 -0.3938  2.2827 -1.1409
  158DOPC   O3119005   3.551   0.476  15.830 -0.0017  0.0902  0.1540
  158DOPC   C3119006   3.476   0.373  15.792 -1.6761 -0.5713 -0.5551
  158DOPC   O3219007   3.388   0.318  15.854  0.3236  0.0229  0.3510
  158DOPC   C3219008   3.525   0.342  15.656  0.0765 -0.2058 -0.7495
  158DOPC   H2X19009   3.484   0.426  15.596  1.3201 -1.1275 -3.0176
  158DOPC   H2Y19010   3.636   0.344  15.649  0.1257  1.2491  0.1283
  158DOPC   C2319011   3.245   0.574  15.519 -0.0553  0.2373 -0.8066
  158DOPC   H3R19012   3.245   0.481  15.580  2.3832  0.1918 -0.7809
  158DOPC   H3S19013   3.347   0.603  15.487  0.5430 -0.0495  0.7454
  158DOPC   C2419014   3.151   0.545  15.407  0.4614  0.0937 -0.1486
  158DOPC   H4R19015   3.174   0.618  15.327  0.4423  0.7348  0.4172
  158DOPC   H4S19016   3.048   0.562  15.447  0.1999 -1.3245 -0.1388
  158DOPC   C2519017   3.171   0.403  15.359 -0.7620  0.4338  0.0160
  158DOPC   H5R19018   3.190   0.335  15.445  0.5507 -0.2393 -0.7853
  158DOPC   H5S19019   3.267   0.410  15.304 -0.5602  0.5582  0.3760
  158DOPC   C2619020   3.066   0.352  15.265  0.8324  0.6000  0.5490
  158DOPC   H6R19021   3.123   0.279  15.203 -0.5699 -1.0116  1.0885
  158DOPC   H6S19022   3.032   0.437  15.202  2.5469  2.2805  1.7431
  158DOPC   C2719023   2.952   0.286  15.340  0.4869  0.0502 -0.5529
  158DOPC   H7R19024   2.913   0.358  15.415  1.6952  0.1548 -0.0058
  158DOPC   H7S19025   2.985   0.205  15.408  2.0669  0.8647 -0.3097
  158DOPC   C2819026   2.846   0.221  15.253  0.9620  0.0830  0.1242
  158DOPC   H8R19027   2.796   0.286  15.178  0.8232  0.0254  0.1656
  158DOPC   H8S19028   2.768   0.189  15.326  2.7608 -2.0140  1.2597
  158DOPC   C2919029   2.891   0.097  15.178 -0.1648  0.0336 -0.1944
  158DOPC   H9R19030   2.917   0.014  15.246  0.7796  0.5834  0.1302
  158DOPC  C21019031   2.910   0.084  15.042  0.3625 -0.3712  0.1013
  158DOPC  H10R19032   2.936  -0.012  14.995  0.8086  0.0611 -0.5519
  158DOPC  C21119033   2.898   0.197  14.944  0.6045  0.0072  0.2026
  158DOPC  H11R19034   2.934   0.168  14.843 -2.2267  0.1050 -0.9565
  158DOPC  H11S19035   2.940   0.292  14.984  1.1454 -1.1091  2.4375
  158DOPC  C21219036   2.743   0.203  14.919 -0.3841  0.0479  0.9189
  158DOPC  H12R19037   2.684   0.227  15.010  0.9762  0.3941  1.7369
  158DOPC  H12S19038   2.703   0.107  14.882  1.2491  0.4370 -2.2092
  158DOPC  C21319039   2.700   0.311  14.818 -0.7621 -0.0153 -0.5314
  158DOPC  H13R19040   2.761   0.400  14.844 -0.5434  0.4718 -2.5990
  158DOPC  H13S19041   2.591   0.330  14.831 -1.0412 -1.2084 -0.9847
  158DOPC  C21419042   2.722   0.280  14.666 -0.2953  0.8469 -0.7464
  158DOPC  H14R19043   2.644   0.206  14.636  0.0038  0.5991 -0.9209
  158DOPC  H14S19044   2.824   0.239  14.653  0.0387  2.2339 -3.0286
  158DOPC  C21519045   2.696   0.403  14.572  0.2533  0.0088 -0.8161
  158DOPC  H15R19046   2.767   0.486  14.594  0.7559 -0.3611 -1.0159
  158DOPC  H15S19047   2.593   0.436  14.597  1.0549  0.6206  2.0564
  158DOPC  C21619048   2.711   0.370  14.420 -0.2721  0.1607 -0.2922
  158DOPC  H16R19049   2.636   0.294  14.389  0.9427 -2.5328  2.7975
  158DOPC  H16S19050   2.815   0.332  14.404 -0.2473  0.6519 -1.4125
  158DOPC  C21719051   2.706   0.493  14.330 -0.3750 -0.3096  0.2660
  158DOPC  H17R19052   2.756   0.582  14.373 -1.9607  0.8160 -0.1571
  158DOPC  H17S19053   2.606   0.539  14.318  0.1718  1.2104  1.2825
  158DOPC  C21819054   2.771   0.464  14.186 -0.2918 -0.1236 -0.1478
  158DOPC  H18R19055   2.878   0.434  14.190  0.0231  1.0293  3.4356
  158DOPC  H18S19056   2.760   0.556  14.125  0.4864 -0.1941 -0.3966
  158DOPC  H18T19057   2.723   0.378  14.135 -0.6346 -1.5407  2.3930
  158DOPC   C3319058   3.468   0.207  15.597  0.2794  0.0103 -0.4066
  158DOPC   H3X19059   3.366   0.188  15.637  0.4608  0.9535  0.5354
  158DOPC   H3Y19060   3.520   0.127  15.655  1.3688  1.0649  0.1013
  158DOPC   C3419061   3.490   0.196  15.451  0.1931  0.1577 -0.0495
  158DOPC   H4X19062   3.599   0.182  15.431 -0.0063 -4.0975  0.7988
  158DOPC   H4Y19063   3.455   0.293  15.411 -1.8655 -0.2209  0.7097
  158DOPC   C3519064   3.413   0.076  15.387 -0.4668  0.6135 -0.3449
  158DOPC   H5X19065   3.316   0.064  15.439 -1.3877  2.1357 -1.5957
  158DOPC   H5Y19066   3.477  -0.013  15.404  1.8706  2.4857  1.2584
  158DOPC   C3619067   3.388   0.109  15.240  0.3567 -0.2490 -0.5117
  158DOPC   H6X19068   3.299   0.173  15.223 -0.0569 -1.4221 -3.3068
  158DOPC   H6Y19069   3.481   0.160  15.207  0.8784 -1.5230 -1.0558
  158DOPC   C3719070   3.366  -0.013  15.154  0.2009 -0.0720  0.1811
  158DOPC   H7X19071   3.364   0.014  15.046  0.0509 -4.1061 -0.9969
  158DOPC   H7Y19072   3.453  -0.081  15.167  0.2365  0.1798  1.3213
  158DOPC   C3819073   3.247  -0.110  15.187 -0.2553 -0.1429  0.0466
  158DOPC   H8X19074   3.157  -0.053  15.220 -1.4801 -1.8116 -0.2804
  158DOPC   H8Y19075   3.276  -0.174  15.272 -1.7015  1.9759  2.2980
  158DOPC   C3919076   3.216  -0.191  15.064 -0.4476  0.0869 -0.1926
  158DOPC   H9X19077   3.200  -0.135  14.971 -4.4762  0.2192  0.4054
  158DOPC  C31019078   3.180  -0.324  15.059  0.1028  0.5168  0.1481
  158DOPC  H10X19079   3.156  -0.378  14.966  0.1907 -0.3846  0.6413
  158DOPC  C31119080   3.178  -0.414  15.184  0.1359 -0.9558  0.1069
  158DOPC  H11X19081   3.178  -0.358  15.279 -1.0469  0.4544 -0.6759
  158DOPC  H11Y19082   3.265  -0.483  15.188  1.1931  0.3855  0.8134
  158DOPC  C31219083   3.052  -0.499  15.180  0.0430 -0.3860 -0.1055
  158DOPC  H12X19084   2.973  -0.421  15.168  2.3326  1.7873 -2.1304
  158DOPC  H12Y19085   3.042  -0.543  15.281 -0.1761 -2.5029 -0.9909
  158DOPC  C31319086   3.045  -0.603  15.069  0.5085 -0.3730 -0.1714
  158DOPC  H13X19087   3.072  -0.551  14.974 -0.7625  0.5333 -0.0577
  158DOPC  H13Y19088   3.118  -0.686  15.079  0.2166 -0.7902 -1.3241
  158DOPC  C31419089   2.901  -0.659  15.057  0.2960 -0.1612 -0.1075
  158DOPC  H14X19090   2.883  -0.730  15.141 -0.6678 -0.3205 -0.4317
  158DOPC  H14Y19091   2.827  -0.579  15.077 -1.1106 -1.7267  1.2534
  158DOPC  C31519092   2.875  -0.736  14.930 -0.4423 -0.7164  0.1496
  158DOPC  H15X19093   2.914  -0.675  14.846  3.3594  1.7928  3.3663
  158DOPC  H15Y19094   2.767  -0.754  14.911 -0.1700 -1.0780 -1.1514
  158DOPC  C31619095   2.956  -0.871  14.918  0.2286  0.4460 -0.8405
  158DOPC  H16X19096   3.061  -0.837  14.930 -0.1306  1.3726 -0.1738
  158DOPC  H16Y19097   2.931  -0.950  14.992  1.8368 -1.1517 -1.9083
  158DOPC  C31719098   2.944  -0.925  14.778 -0.0237  1.0830 -0.1996
  158DOPC  H17X19099   2.837  -0.952  14.761  0.5621 -1.4049 -0.2948
  158DOPC  H17Y19100   2.961  -0.847  14.702 -2.3454  1.2994 -0.5763
  158DOPC  C31819101   3.019  -1.058  14.749  0.7503  0.7182  0.1647
  158DOPC  H18X19102   3.022  -1.082  14.641 -0.7774 -2.7693  0.7508
  158DOPC  H18Y19103   3.122  -1.056  14.792  1.0595  0.6101 -0.5628
  158DOPC  H18Z19104   2.974  -1.150  14.793  1.1386  0.9550  1.0858
  159DOPC     N19105   7.317   1.857  16.234 -0.4267 -0.6352 -0.7884
  159DOPC   C1219106   7.213   1.939  16.313 -0.2169 -0.1108 -0.3711
  159DOPC  H12A19107   7.255   2.035  16.338  0.3325 -0.2298 -0.8073
  159DOPC  H12B19108   7.197   1.878  16.400  0.3266 -0.6312 -0.6293
  159DOPC   C1319109   7.386   1.941  16.129  0.1507  0.4801 -0.1820
  159DOPC  H13A19110   7.434   2.026  16.174  0.5638 -0.6098  1.4991
  159DOPC  H13B19111   7.471   1.885  16.093  0.5199  0.4689  0.6842
  159DOPC  H13C19112   7.327   1.967  16.042 -2.6561 -0.8301  1.2123
  159DOPC   C1419113   7.255   1.735  16.171  0.2284  0.1645  0.1653
  159DOPC  H14A19114   7.339   1.680  16.130 -0.2490  0.5838 -1.4278
  159DOPC  H14B19115   7.204   1.670  16.241  0.2686 -1.8542 -1.5387
  159DOPC  H14C19116   7.175   1.756  16.101 -1.1793 -1.5885  1.1475
  159DOPC   C1519117   7.418   1.814  16.338  0.7915 -0.1946  0.2258
  159DOPC  H15A19118   7.456   1.892  16.403 -1.8023 -0.0493  1.7162
  159DOPC  H15B19119   7.501   1.761  16.293  1.2068  0.4734  0.1943
  159DOPC  H15C19120   7.384   1.736  16.406  0.7610 -0.9443 -0.6287
  159DOPC   C1119121   7.079   1.969  16.246  0.6551  0.7456 -0.0647
  159DOPC  H11A19122   7.093   2.029  16.154  1.0022  1.3528  0.3827
  159DOPC  H11B19123   7.017   1.879  16.223  0.0514  1.1366  0.0265
  159DOPC     P19124   7.022   2.206  16.348 -0.0726  0.0623 -0.0637
  159DOPC   O1319125   7.164   2.225  16.317 -0.4990 -0.0066 -0.6530
  159DOPC   O1419126   6.987   2.245  16.489 -0.1363 -0.5736  0.4668
  159DOPC   O1219127   7.002   2.052  16.335  0.0298  0.5800 -0.5435
  159DOPC   O1119128   6.929   2.280  16.236 -0.5738 -0.0483 -0.5146
  159DOPC    C119129   6.786   2.273  16.250  0.8067  0.4477  0.6889
  159DOPC    HA19130   6.736   2.371  16.266 -0.2605 -0.1528  1.1396
  159DOPC    HB19131   6.743   2.212  16.333 -1.2745  0.9415  0.0261
  159DOPC    C219132   6.731   2.211  16.115 -0.8731  0.1359 -0.1387
  159DOPC    HS19133   6.760   2.105  16.098 -1.1253  0.1385 -0.5970
  159DOPC   O2119134   6.781   2.297  16.010  0.2326 -0.2091  0.0441
  159DOPC   C2119135   6.890   2.266  15.956  0.4510  0.0914  0.3740
  159DOPC   O2219136   6.959   2.165  15.964 -0.0719  0.4302 -0.7512
  159DOPC   C2219137   6.909   2.376  15.852  0.3448  0.1758 -0.0297
  159DOPC   H2R19138   6.889   2.473  15.903  0.9376  0.1680  0.2273
  159DOPC   H2S19139   6.828   2.357  15.778 -0.3786 -2.9088  1.3907
  159DOPC    C319140   6.575   2.220  16.115  0.0112 -0.0987  0.7324
  159DOPC    HX19141   6.556   2.324  16.148  2.3585  1.0301 -1.1585
  159DOPC    HY19142   6.536   2.160  16.201 -1.9612 -1.3702 -0.9485
  159DOPC   O3119143   6.515   2.191  15.987  0.0995  0.0488  0.3800
  159DOPC   C3119144   6.402   2.121  15.984  0.1320  0.4871 -0.3017
  159DOPC   O3219145   6.338   2.082  16.079 -0.4847 -0.3445 -0.7652
  159DOPC   C3219146   6.348   2.103  15.843 -0.4715  0.5489  0.0201
  159DOPC   H2X19147   6.299   2.196  15.809 -1.1353  0.4526  0.6765
  159DOPC   H2Y19148   6.431   2.080  15.773 -2.2578 -0.4695 -1.8674
  159DOPC   C2319149   7.048   2.360  15.786 -0.1689 -0.9477 -0.1781
  159DOPC   H3R19150   7.069   2.264  15.734  0.4860 -1.0510  0.2611
  159DOPC   H3S19151   7.129   2.363  15.862 -0.1269  0.5412 -0.2426
  159DOPC   C2419152   7.073   2.478  15.692  0.2029  0.7965  0.2600
  159DOPC   H4R19153   7.178   2.482  15.655  0.2227  1.6713  0.3819
  159DOPC   H4S19154   7.052   2.575  15.743 -0.5207 -0.3575  2.2412
  159DOPC   C2519155   6.989   2.471  15.566  0.3251 -0.2828  0.3235
  159DOPC   H5R19156   6.885   2.496  15.594  0.1973  0.6073 -0.8797
  159DOPC   H5S19157   6.993   2.371  15.517 -0.0309  0.6995 -1.8084
  159DOPC   C2619158   7.013   2.573  15.460  1.0485  0.3549  0.4147
  159DOPC   H6R19159   7.098   2.542  15.395 -0.9702  1.5328 -3.0341
  159DOPC   H6S19160   7.019   2.680  15.491  0.4254  0.0352  1.6718
  159DOPC   C2719161   6.873   2.574  15.373 -0.3726 -0.1593 -0.3944
  159DOPC   H7R19162   6.798   2.611  15.446  0.3859 -0.0457  0.3491
  159DOPC   H7S19163   6.840   2.471  15.347 -0.1634 -0.3378  0.0250
  159DOPC   C2819164   6.875   2.671  15.253  0.2540  0.2738 -0.4917
  159DOPC   H8R19165   6.925   2.767  15.278  0.1413  0.1585  0.1825
  159DOPC   H8S19166   6.768   2.699  15.241 -0.2224 -1.2823 -0.0365
  159DOPC   C2919167   6.931   2.613  15.129  0.2096 -0.0263  0.5857
  159DOPC   H9R19168   7.005   2.532  15.135  0.3720  0.2470  2.9032
  159DOPC  C21019169   6.891   2.645  15.006 -0.5687 -0.2139  0.4138
  159DOPC  H10R19170   6.928   2.579  14.926  1.1975 -0.2097  1.1757
  159DOPC  C21119171   6.779   2.737  14.971 -0.6659  0.6252  0.1003
  159DOPC  H11R19172   6.743   2.795  15.058 -0.9756  3.4772 -1.7873
  159DOPC  H11S19173   6.697   2.675  14.928 -0.6563  1.5752 -1.3741
  159DOPC  C21219174   6.818   2.841  14.863 -0.0180  0.4396 -0.2395
  159DOPC  H12R19175   6.900   2.907  14.898  1.7706 -1.3634 -0.8722
  159DOPC  H12S19176   6.730   2.908  14.850 -1.3750 -1.4107 -0.8730
  159DOPC  C21319177   6.853   2.790  14.729 -0.4444  0.2956 -0.7575
  159DOPC  H13R19178   6.775   2.720  14.692  0.6936 -0.8946 -1.0093
  159DOPC  H13S19179   6.944   2.727  14.722 -0.7046 -0.1238 -0.4117
  159DOPC  C21419180   6.871   2.907  14.634 -0.5480  0.5950 -0.7006
  159DOPC  H14R19181   6.948   2.975  14.676  0.9991 -1.7243  0.3734
  159DOPC  H14S19182   6.770   2.953  14.619 -2.9963 -3.8022  0.5481
  159DOPC  C21519183   6.939   2.858  14.501  0.7899 -0.5561 -0.8177
  159DOPC  H15R19184   6.916   2.938  14.427 -1.4967 -1.7685 -1.4983
  159DOPC  H15S19185   6.896   2.764  14.459  0.4554 -0.6149 -0.3538
  159DOPC  C21619186   7.091   2.834  14.505  0.0328 -0.3151 -0.3877
  159DOPC  H16R19187   7.115   2.727  14.524 -1.3587 -0.3241  1.7124
  159DOPC  H16S19188   7.122   2.892  14.594  0.0280  0.0819 -0.6452
  159DOPC  C21719189   7.169   2.886  14.375  0.2380 -0.0925  1.2105
  159DOPC  H17R19190   7.132   2.990  14.369  0.5122  0.1560  3.2069
  159DOPC  H17S19191   7.134   2.818  14.294 -0.5380 -0.2864  1.7043
  159DOPC  C21819192   7.321   2.887  14.377  0.2032 -0.3538 -0.0735
  159DOPC  H18R19193   7.355   2.959  14.455 -1.1811  1.3886 -1.0176
  159DOPC  H18S19194   7.361   2.938  14.287  0.8722  0.8902  0.8933
  159DOPC  H18T19195   7.379   2.793  14.386  0.0897 -0.6295 -1.8791
  159DOPC   C3319196   6.235   1.999  15.833 -0.6300  0.1055  0.4748
  159DOPC   H3X19197   6.152   2.029  15.900 -2.6378  0.0674 -1.8341
  159DOPC   H3Y19198   6.270   1.899  15.867 -0.8854  0.3590  1.5104
  159DOPC   C3419199   6.188   1.963  15.688 -0.5724  0.5738 -0.0862
  159DOPC   H4X19200   6.085   1.922  15.682  0.1194 -2.4309  3.7903
  159DOPC   H4Y19201   6.248   1.874  15.660 -0.3237 -0.3433  2.9306
  159DOPC   C3519202   6.193   2.076  15.584 -0.8717  0.0297 -0.2254
  159DOPC   H5X19203   6.160   2.030  15.489 -0.9532 -0.4206  0.0215
  159DOPC   H5Y19204   6.295   2.120  15.580 -0.6822 -0.3420  0.3060
  159DOPC   C3619205   6.090   2.178  15.626 -0.5185 -0.3516  0.2268
  159DOPC   H6X19206   6.001   2.120  15.657 -0.9531  1.2582  2.2231
  159DOPC   H6Y19207   6.124   2.241  15.712  1.7504  0.2316 -1.0149
  159DOPC   C3719208   6.051   2.280  15.511 -0.4314  0.2869 -0.4099
  159DOPC   H7X19209   6.020   2.203  15.437 -0.0560  0.7787 -1.0870
  159DOPC   H7Y19210   5.960   2.335  15.543 -0.6897 -0.3260 -0.0727
  159DOPC   C3819211   6.161   2.379  15.461  0.0347 -0.9637  0.5995
  159DOPC   H8X19212   6.239   2.328  15.401  0.3206  1.9723 -1.7710
  159DOPC   H8Y19213   6.210   2.428  15.548 -0.8640 -0.9697  1.1183
  159DOPC   C3919214   6.092   2.482  15.373  0.1374 -0.8185  0.2831
  159DOPC   H9X19215   6.021   2.544  15.429 -0.8748 -0.3733 -1.4212
  159DOPC  C31019216   6.084   2.482  15.242  0.4924 -0.4167 -0.1415
  159DOPC  H10X19217   6.004   2.539  15.192 -1.0768 -2.7452 -0.4840
  159DOPC  C31119218   6.149   2.388  15.150  0.3999  0.0960 -0.1295
  159DOPC  H11X19219   6.255   2.377  15.181  0.1382  2.9893  2.1633
  159DOPC  H11Y19220   6.147   2.438  15.051  0.9478  0.3779 -0.0014
  159DOPC  C31219221   6.089   2.250  15.123 -0.6973  0.2314  0.2512
  159DOPC  H12X19222   6.091   2.188  15.215  0.1436 -2.5036 -1.5049
  159DOPC  H12Y19223   6.145   2.192  15.047 -0.2535 -0.2274  0.9175
  159DOPC  C31319224   5.945   2.260  15.077 -0.5660  0.2191  0.5384
  159DOPC  H13X19225   5.904   2.157  15.071  1.3792 -0.6004  0.7874
  159DOPC  H13Y19226   5.889   2.306  15.162 -0.6207  1.6678 -0.2400
  159DOPC  C31419227   5.933   2.341  14.947 -0.0273  0.2112 -0.3263
  159DOPC  H14X19228   5.872   2.430  14.975 -1.5956 -0.8360 -0.2436
  159DOPC  H14Y19229   6.033   2.360  14.904  1.5080 -1.3312  2.2730
  159DOPC  C31519230   5.842   2.261  14.851  0.4003 -0.0046 -0.6910
  159DOPC  H15X19231   5.743   2.238  14.897 -0.4354  0.4408 -2.1914
  159DOPC  H15Y19232   5.889   2.165  14.821  2.5641  0.9763 -0.6527
  159DOPC  C31619233   5.821   2.328  14.713  0.3061 -0.1903  0.4780
  159DOPC  H16X19234   5.754   2.414  14.737 -1.2270 -1.4306  0.7855
  159DOPC  H16Y19235   5.921   2.358  14.675  0.0780  0.1191  0.1149
  159DOPC  C31719236   5.748   2.248  14.606  0.4524  0.0607 -0.1141
  159DOPC  H17X19237   5.752   2.310  14.514 -0.5377  0.2337 -0.0549
  159DOPC  H17Y19238   5.793   2.150  14.580 -3.3396 -2.2128  1.0172
  159DOPC  C31819239   5.598   2.225  14.637  0.1875 -0.1351  0.4191
  159DOPC  H18X19240   5.593   2.162  14.729 -0.7675 -2.2917 -1.0265
  159DOPC  H18Y19241   5.537   2.316  14.651 -1.3611 -0.3828 -3.5468
  159DOPC  H18Z19242   5.553   2.158  14.561  0.7487  0.4796 -0.4711
  160DOPC     N19243   2.709   7.266  16.487 -0.9322  0.7922 -0.1178
  160DOPC   C1219244   2.712   7.297  16.338  0.1316 -0.0140  0.3876
  160DOPC  H12A19245   2.771   7.220  16.290 -0.1245 -0.5858  0.9892
  160DOPC  H12B19246   2.772   7.384  16.314 -0.4023  1.0566  2.6962
  160DOPC   C1319247   2.857   7.285  16.533 -0.0519 -0.1460  0.1729
  160DOPC  H13A19248   2.914   7.196  16.513  1.6877  0.9648 -0.0834
  160DOPC  H13B19249   2.899   7.371  16.482  0.7003  0.2905  1.4578
  160DOPC  H13C19250   2.864   7.297  16.641  0.3480 -0.5873  0.2008
  160DOPC   C1419251   2.676   7.124  16.521  0.0314 -0.3891  0.1482
  160DOPC  H14A19252   2.718   7.067  16.439 -0.8306  2.4813 -2.4806
  160DOPC  H14B19253   2.720   7.096  16.615  0.5445 -0.3596 -0.0793
  160DOPC  H14C19254   2.568   7.125  16.525  0.0593  1.3038  1.2512
  160DOPC   C1519255   2.625   7.361  16.569  0.1970  0.1474  0.4963
  160DOPC  H15A19256   2.647   7.463  16.541  0.1403 -0.4887 -2.1285
  160DOPC  H15B19257   2.620   7.339  16.674  1.9089 -0.7652  0.4140
  160DOPC  H15C19258   2.524   7.347  16.533  0.3796 -0.1532  0.0797
  160DOPC   C1119259   2.584   7.322  16.260  0.2576  0.1572 -0.9077
  160DOPC  H11A19260   2.513   7.384  16.319  0.6147 -1.2097  1.0586
  160DOPC  H11B19261   2.606   7.370  16.162  2.4895  0.3902 -0.3398
  160DOPC     P19262   2.586   7.081  16.159 -0.5862 -0.1303  0.2130
  160DOPC   O1319263   2.583   6.949  16.234  0.0923  0.4347  0.2148
  160DOPC   O1419264   2.720   7.122  16.101 -0.3956  0.2409  0.2628
  160DOPC   O1219265   2.515   7.198  16.246  0.0051  0.1533  0.3405
  160DOPC   O1119266   2.489   7.080  16.033 -0.4488 -0.2677 -0.1626
  160DOPC    C119267   2.349   7.084  16.037 -0.2914 -0.3179 -0.5296
  160DOPC    HA19268   2.309   7.090  16.140  0.5669  1.3921 -0.2525
  160DOPC    HB19269   2.310   6.982  16.015 -0.9992 -0.5179  1.4370
  160DOPC    C219270   2.282   7.194  15.948 -0.6193  0.3315 -0.4333
  160DOPC    HS19271   2.172   7.179  15.952 -0.2987 -2.3553  0.2523
  160DOPC   O2119272   2.328   7.178  15.813  0.1842  0.1702  0.7006
  160DOPC   C2119273   2.292   7.064  15.747  0.1109 -0.1573  0.6505
  160DOPC   O2219274   2.213   6.982  15.783  0.3617 -0.5070 -0.2216
  160DOPC   C2219275   2.380   7.064  15.621 -0.2048 -0.5901  0.2156
  160DOPC   H2R19276   2.485   7.060  15.658  0.2859  0.1564 -1.0039
  160DOPC   H2S19277   2.363   7.163  15.573 -0.3762 -0.2054  1.0433
  160DOPC    C319278   2.321   7.336  15.997  0.7045 -0.0420 -0.4013
  160DOPC    HX19279   2.431   7.350  15.994  0.7102 -0.1948 -0.9736
  160DOPC    HY19280   2.295   7.345  16.105 -0.3616  0.3765 -0.6819
  160DOPC   O3119281   2.243   7.433  15.924  0.4792 -0.3744  0.1411
  160DOPC   C3119282   2.294   7.488  15.811  0.7001  0.5891 -0.2517
  160DOPC   O3219283   2.411   7.465  15.778 -0.1335  0.1058 -0.3735
  160DOPC   C3219284   2.187   7.570  15.728 -0.7231  0.0235 -0.3003
  160DOPC   H2X19285   2.159   7.655  15.794 -2.4217  0.7024 -1.8146
  160DOPC   H2Y19286   2.238   7.610  15.638  4.7308 -1.7237  1.6065
  160DOPC   C2319287   2.366   6.951  15.515 -0.7726  0.2061  0.1457
  160DOPC   H3R19288   2.391   6.851  15.557 -0.1826 -0.0051 -0.6775
  160DOPC   H3S19289   2.435   6.968  15.430 -0.5153  1.1104  0.5193
  160DOPC   C2419290   2.225   6.933  15.452  0.0700 -0.5401  0.1580
  160DOPC   H4R19291   2.197   7.038  15.427  1.2922  0.1969  1.6448
  160DOPC   H4S19292   2.153   6.904  15.532  2.9433 -0.5337  2.9654
  160DOPC   C2519293   2.210   6.861  15.315  0.0713  0.6508 -0.1030
  160DOPC   H5R19294   2.222   6.751  15.321 -1.0119  0.4220 -1.5896
  160DOPC   H5S19295   2.292   6.894  15.247 -0.2921  1.9546  0.0616
  160DOPC   C2619296   2.071   6.865  15.244 -0.3377 -0.1240  0.1460
  160DOPC   H6R19297   2.032   6.968  15.253  1.6566  0.8188 -1.2709
  160DOPC   H6S19298   2.006   6.794  15.301  0.5615 -0.0278  1.3263
  160DOPC   C2719299   2.066   6.846  15.095 -0.5881  0.6822  0.3395
  160DOPC   H7R19300   2.130   6.923  15.047 -0.8292  0.0308 -1.0828
  160DOPC   H7S19301   1.971   6.869  15.043  1.4546 -0.0796 -4.3191
  160DOPC   C2819302   2.135   6.715  15.056  0.4331 -0.9055  0.3604
  160DOPC   H8R19303   2.238   6.715  15.096 -0.2283 -1.2483  2.1828
  160DOPC   H8S19304   2.151   6.716  14.946 -1.8205 -0.7709 -0.0188
  160DOPC   C2919305   2.069   6.587  15.085  0.3187  0.2298  0.0364
  160DOPC   H9R19306   1.996   6.596  15.166 -0.4289  1.9091 -0.7842
  160DOPC  C21019307   2.061   6.472  15.013  0.0367 -0.2229  0.2523
  160DOPC  H10R19308   2.005   6.387  15.055 -1.4668  0.3274 -0.5732
  160DOPC  C21119309   2.141   6.444  14.889  0.1676  0.0185 -0.7112
  160DOPC  H11R19310   2.230   6.384  14.916 -0.6719 -0.1420  1.9592
  160DOPC  H11S19311   2.174   6.535  14.834 -2.2625  1.4038 -0.0387
  160DOPC  C21219312   2.041   6.383  14.790  0.2065 -0.1651 -0.2828
  160DOPC  H12R19313   1.964   6.462  14.777  0.6872  0.5711  1.1179
  160DOPC  H12S19314   1.980   6.302  14.837  1.1067  0.5870  2.3817
  160DOPC  C21319315   2.107   6.342  14.665 -0.5512 -0.4704  0.6107
  160DOPC  H13R19316   2.198   6.282  14.682 -1.4997 -1.8993  0.7581
  160DOPC  H13S19317   2.127   6.429  14.598 -2.0301 -1.6596 -1.5061
  160DOPC  C21419318   2.017   6.228  14.602 -1.0062 -0.2393 -0.0514
  160DOPC  H14R19319   1.914   6.268  14.601 -1.0709 -0.4091 -0.2047
  160DOPC  H14S19320   2.034   6.140  14.668  0.8106 -0.3599 -0.6198
  160DOPC  C21519321   2.066   6.196  14.462 -0.4343 -0.0934  0.1682
  160DOPC  H15R19322   2.077   6.290  14.405  0.0005 -0.0334  0.3478
  160DOPC  H15S19323   1.991   6.131  14.412 -1.2330  0.7799  0.2028
  160DOPC  C21619324   2.205   6.140  14.455 -0.3579  0.2265 -0.2386
  160DOPC  H16R19325   2.200   6.033  14.484 -0.2312  0.4231  0.5288
  160DOPC  H16S19326   2.273   6.178  14.534  0.4643 -1.8425  0.0858
  160DOPC  C21719327   2.275   6.158  14.322  0.1130  1.1913 -0.0226
  160DOPC  H17R19328   2.213   6.132  14.233  0.7953  0.3510 -0.2716
  160DOPC  H17S19329   2.366   6.094  14.318  0.4359  1.3591  2.6657
  160DOPC  C21819330   2.328   6.301  14.307  0.7910  0.1888  0.0823
  160DOPC  H18R19331   2.246   6.373  14.285  1.4189  1.5838  2.0300
  160DOPC  H18S19332   2.409   6.313  14.233 -0.1333 -1.1343 -1.2012
  160DOPC  H18T19333   2.361   6.344  14.404 -2.3180  0.7356  1.0309
  160DOPC   C3319334   2.057   7.490  15.691  0.5165  0.7109 -0.1191
  160DOPC   H3X19335   1.970   7.552  15.658  0.9767  0.3961 -2.0655
  160DOPC   H3Y19336   2.022   7.437  15.782  1.2896 -3.2160 -1.9203
  160DOPC   C3419337   2.071   7.377  15.585 -0.3048 -0.7759 -0.2395
  160DOPC   H4X19338   1.983   7.315  15.611 -0.0515 -1.6445 -1.3942
  160DOPC   H4Y19339   2.164   7.319  15.602 -0.4710 -1.9836 -2.9568
  160DOPC   C3519340   2.049   7.436  15.446 -0.6771  0.1969 -0.2388
  160DOPC   H5X19341   2.143   7.478  15.404 -1.8457  0.1865 -3.1430
  160DOPC   H5Y19342   1.974   7.518  15.446 -0.2614  0.5734 -0.1551
  160DOPC   C3619343   2.011   7.323  15.348 -0.4993  0.0628 -0.2206
  160DOPC   H6X19344   2.091   7.249  15.373  0.2808  1.4761  1.7368
  160DOPC   H6Y19345   1.910   7.287  15.375 -0.8468  0.1608 -1.3619
  160DOPC   C3719346   2.006   7.375  15.209  0.0776  0.0301  0.9733
  160DOPC   H7X19347   1.929   7.455  15.206  1.8796  1.8972  1.6326
  160DOPC   H7Y19348   2.096   7.435  15.186  0.0350 -0.3927 -0.3755
  160DOPC   C3819349   1.978   7.272  15.097 -0.1706  0.2842 -0.1247
  160DOPC   H8X19350   2.033   7.178  15.120 -1.7905 -0.5543  0.4470
  160DOPC   H8Y19351   2.025   7.316  15.007  1.5281 -1.2482 -0.0615
  160DOPC   C3919352   1.834   7.237  15.081  0.2660 -1.2099 -0.2246
  160DOPC   H9X19353   1.795   7.199  15.176  2.5280  2.3275  2.3528
  160DOPC  C31019354   1.761   7.273  14.975  0.3336 -0.4355  0.3787
  160DOPC  H10X19355   1.651   7.271  14.977  0.3229 -1.0629 -0.4095
  160DOPC  C31119356   1.815   7.334  14.844 -0.2164  0.0683 -0.1944
  160DOPC  H11X19357   1.904   7.285  14.799  0.8261  1.0419  0.7414
  160DOPC  H11Y19358   1.843   7.441  14.853  1.4933 -0.3785  0.1405
  160DOPC  C31219359   1.704   7.317  14.735  0.1269 -0.4405  0.3899
  160DOPC  H12X19360   1.638   7.404  14.759  0.7138  0.1671 -0.1601
  160DOPC  H12Y19361   1.643   7.224  14.738 -2.4368  1.0923 -1.1502
  160DOPC  C31319362   1.755   7.328  14.585  0.6348  0.3876  0.1929
  160DOPC  H13X19363   1.830   7.409  14.575  1.5784 -0.4219  0.5987
  160DOPC  H13Y19364   1.801   7.234  14.548 -0.2740 -0.4587  1.1404
  160DOPC  C31419365   1.634   7.365  14.494  0.3942 -0.3346  0.1694
  160DOPC  H14X19366   1.559   7.431  14.541  1.4498 -0.5616  2.3127
  160DOPC  H14Y19367   1.678   7.428  14.415 -1.7785 -1.1834 -1.8282
  160DOPC  C31519368   1.567   7.237  14.451  0.2203  0.4081  0.4046
  160DOPC  H15X19369   1.548   7.184  14.547 -3.1442 -1.3088 -1.0510
  160DOPC  H15Y19370   1.631   7.171  14.389 -0.1608  0.6225 -0.2232
  160DOPC  C31619371   1.441   7.265  14.369 -0.0251 -1.1452 -0.1646
  160DOPC  H16X19372   1.367   7.184  14.390 -1.0056 -0.6916 -1.6763
  160DOPC  H16Y19373   1.391   7.361  14.396  0.2945 -0.0236 -3.1787
  160DOPC  C31719374   1.467   7.265  14.220  0.0477  0.3231 -0.1163
  160DOPC  H17X19375   1.562   7.321  14.205  0.2191 -0.0272 -0.3562
  160DOPC  H17Y19376   1.492   7.162  14.187 -3.2207 -1.1327  1.4799
  160DOPC  C31819377   1.369   7.336  14.126  0.1794  0.5959  0.3855
  160DOPC  H18X19378   1.331   7.433  14.166 -1.2039  0.7704 -1.2270
  160DOPC  H18Y19379   1.410   7.369  14.028 -1.6719  3.2256  0.3920
  160DOPC  H18Z19380   1.280   7.270  14.111 -1.2711  2.4886  0.2526
  161DOPC     N19381   4.403   1.416  16.699 -0.1924  0.2166 -0.1058
  161DOPC   C1219382   4.285   1.317  16.685  0.2523  0.3688  0.1514
  161DOPC  H12A19383   4.199   1.360  16.733 -0.1120 -0.1898  0.0034
  161DOPC  H12B19384   4.323   1.227  16.733  3.8978  1.7762  0.2482
  161DOPC   C1319385   4.357   1.545  16.641 -0.1691  0.3577  0.2581
  161DOPC  H13A19386   4.302   1.531  16.550  1.0879 -1.4372 -0.2706
  161DOPC  H13B19387   4.275   1.578  16.704 -0.2743  1.0754 -0.2479
  161DOPC  H13C19388   4.425   1.628  16.636  0.1232  0.2571  1.8221
  161DOPC   C1419389   4.523   1.368  16.622  0.3010  0.3775  0.3762
  161DOPC  H14A19390   4.510   1.383  16.516  1.0456  0.9818  0.3576
  161DOPC  H14B19391   4.617   1.419  16.640  1.1252 -1.4591  1.6787
  161DOPC  H14C19392   4.547   1.266  16.648 -0.8524  0.0537  0.1848
  161DOPC   C1519393   4.438   1.442  16.843 -0.2531 -0.3582  0.6348
  161DOPC  H15A19394   4.474   1.354  16.894 -0.4585 -0.2828  0.9111
  161DOPC  H15B19395   4.356   1.479  16.903 -1.0443 -0.4241 -0.3678
  161DOPC  H15C19396   4.518   1.514  16.853  0.5549 -1.0773 -0.4457
  161DOPC   C1119397   4.241   1.296  16.539  0.5009 -0.6662  0.3860
  161DOPC  H11A19398   4.320   1.272  16.464 -1.3429 -0.7878 -1.6349
  161DOPC  H11B19399   4.185   1.200  16.537  0.0231 -0.3849 -0.5999
  161DOPC     P19400   4.009   1.409  16.481 -0.0494  0.1178  0.0849
  161DOPC   O1319401   3.974   1.529  16.403  0.6955  0.2544 -0.0018
  161DOPC   O1419402   3.937   1.375  16.606  0.7108 -0.0929 -0.7587
  161DOPC   O1219403   4.162   1.410  16.493  0.0358  0.0921  0.4666
  161DOPC   O1119404   3.983   1.281  16.391 -0.0609 -0.0526  0.4396
  161DOPC    C119405   4.072   1.253  16.279 -0.9342  0.1701 -0.4320
  161DOPC    HA19406   4.161   1.193  16.308  0.0974  0.9912 -1.7714
  161DOPC    HB19407   4.111   1.348  16.236 -0.0229 -0.6759 -1.5151
  161DOPC    C219408   4.000   1.194  16.162 -0.2105  0.4178  0.6317
  161DOPC    HS19409   4.067   1.194  16.074  1.5033 -1.1567  1.8647
  161DOPC   O2119410   3.881   1.279  16.136 -0.2156  0.0407  0.0627
  161DOPC   C2119411   3.909   1.383  16.060 -0.1115 -0.7225 -0.4571
  161DOPC   O2219412   4.019   1.421  16.026  0.2980 -0.2708 -0.3605
  161DOPC   C2219413   3.780   1.448  16.016  0.4293 -0.2800 -0.1577
  161DOPC   H2R19414   3.794   1.557  16.030 -2.2765  0.2175 -0.7836
  161DOPC   H2S19415   3.698   1.395  16.068  0.6648  0.3881  0.9334
  161DOPC    C319416   3.938   1.046  16.175 -0.1001 -0.6004 -0.0067
  161DOPC    HX19417   3.862   1.050  16.256  0.3982 -0.9777  0.4828
  161DOPC    HY19418   4.021   0.982  16.210 -0.1500 -0.5470  0.2128
  161DOPC   O3119419   3.870   1.000  16.057  0.3490 -0.0595 -0.0129
  161DOPC   C3119420   3.866   0.869  16.043  0.5618 -0.0367  0.2884
  161DOPC   O3219421   3.918   0.785  16.111 -0.2195 -0.4485 -0.6989
  161DOPC   C3219422   3.762   0.826  15.945 -0.3375  0.8434  0.7566
  161DOPC   H2X19423   3.741   0.718  15.956  1.2541  0.3716 -0.4068
  161DOPC   H2Y19424   3.668   0.877  15.975 -1.0450  0.9869 -1.4882
  161DOPC   C2319425   3.757   1.428  15.863 -0.3958  0.8199  0.0846
  161DOPC   H3R19426   3.856   1.426  15.813 -0.0684 -1.7858  0.6859
  161DOPC   H3S19427   3.687   1.508  15.829 -0.5042  0.3926 -0.7244
  161DOPC   C2419428   3.698   1.298  15.810 -0.2531 -0.4893  0.3990
  161DOPC   H4R19429   3.602   1.295  15.866 -0.7887 -2.2856 -0.5473
  161DOPC   H4S19430   3.760   1.210  15.836  0.6134 -1.0218 -2.9882
  161DOPC   C2519431   3.683   1.305  15.658 -0.2503 -0.5974 -0.3476
  161DOPC   H5R19432   3.770   1.349  15.604  0.5558 -3.2608 -1.4149
  161DOPC   H5S19433   3.602   1.376  15.631 -0.2541 -0.2692  0.5042
  161DOPC   C2619434   3.644   1.173  15.595  0.6656 -0.5213  0.1546
  161DOPC   H6R19435   3.544   1.147  15.638  0.7321 -0.7747  0.1585
  161DOPC   H6S19436   3.701   1.084  15.630 -1.6014 -1.9597  0.4310
  161DOPC   C2719437   3.630   1.182  15.447 -0.1190  0.3564  0.3008
  161DOPC   H7R19438   3.727   1.192  15.394 -0.6580  0.1480 -0.7487
  161DOPC   H7S19439   3.573   1.274  15.422 -0.0824  0.3249  0.0974
  161DOPC   C2819440   3.567   1.052  15.391 -0.0270  0.3145  0.1860
  161DOPC   H8R19441   3.639   0.970  15.412  1.6168  1.2722 -1.4269
  161DOPC   H8S19442   3.559   1.054  15.280  0.1862  0.4026  0.1707
  161DOPC   C2919443   3.437   1.003  15.441 -0.7848 -0.0296  0.0520
  161DOPC   H9R19444   3.452   0.967  15.544  0.6418 -0.3655 -0.2541
  161DOPC  C21019445   3.316   1.008  15.387  0.3556  0.0645 -0.8671
  161DOPC  H10R19446   3.231   0.963  15.440  0.6963 -0.7369 -0.9783
  161DOPC  C21119447   3.270   1.055  15.248 -0.1404 -0.6157 -0.2724
  161DOPC  H11R19448   3.353   1.066  15.175  0.3682  1.7573  0.5734
  161DOPC  H11S19449   3.225   1.156  15.255  1.8897  0.4535 -1.5427
  161DOPC  C21219450   3.161   0.960  15.192 -0.1578 -0.1173 -0.6616
  161DOPC  H12R19451   3.080   0.946  15.267  1.5101  0.4347  1.3456
  161DOPC  H12S19452   3.210   0.862  15.173  0.1342  0.2285 -1.7660
  161DOPC  C21319453   3.106   1.003  15.055  0.4824  0.3980  0.2459
  161DOPC  H13R19454   3.031   1.084  15.070  1.2953  0.7614  2.8590
  161DOPC  H13S19455   3.041   0.918  15.026  1.3182 -0.9589  2.1771
  161DOPC  C21419456   3.206   1.029  14.940 -0.4204 -0.6058 -0.3989
  161DOPC  H14R19457   3.274   0.941  14.934 -0.2054 -0.4842  0.1753
  161DOPC  H14S19458   3.271   1.118  14.955 -1.6195  0.4892 -1.4393
  161DOPC  C21519459   3.139   1.049  14.805  0.6638  0.3214 -0.2897
  161DOPC  H15R19460   3.073   1.139  14.806 -0.8846 -0.7636 -0.7437
  161DOPC  H15S19461   3.068   0.964  14.794 -0.6421  1.2498  0.6424
  161DOPC  C21619462   3.238   1.053  14.689 -0.3590 -0.3465 -0.4824
  161DOPC  H16R19463   3.300   0.961  14.703 -0.5287 -0.1708  1.8040
  161DOPC  H16S19464   3.310   1.136  14.696 -0.3712 -0.3789  0.0784
  161DOPC  C21719465   3.162   1.072  14.556 -0.2565 -0.0884 -1.1152
  161DOPC  H17R19466   3.102   0.980  14.540  0.8285 -1.2871  1.2167
  161DOPC  H17S19467   3.242   1.076  14.479  0.5436  3.1656 -0.2505
  161DOPC  C21819468   3.082   1.206  14.530 -0.0458  0.1034  0.4236
  161DOPC  H18R19469   3.060   1.210  14.421  2.7487  1.0813 -0.1825
  161DOPC  H18S19470   3.157   1.286  14.546  0.8345 -0.3800 -1.1299
  161DOPC  H18T19471   2.985   1.230  14.579 -1.9766 -0.9257 -2.5876
  161DOPC   C3319472   3.801   0.862  15.805  0.5222  0.2379 -0.3835
  161DOPC   H3X19473   3.824   0.969  15.788  1.5950  0.1256  0.3108
  161DOPC   H3Y19474   3.720   0.835  15.733 -0.1739 -1.4149  0.9287
  161DOPC   C3419475   3.934   0.799  15.755 -0.4196  0.8878 -0.0051
  161DOPC   H4X19476   4.013   0.855  15.809  0.4396  2.2418 -2.5272
  161DOPC   H4Y19477   3.941   0.816  15.645 -0.2046 -0.4757 -0.2217
  161DOPC   C3519478   3.956   0.655  15.787 -0.0177  0.8545 -0.0687
  161DOPC   H5X19479   3.952   0.637  15.896  1.4897  0.1011 -0.1116
  161DOPC   H5Y19480   4.057   0.631  15.748 -0.6087  0.5821 -1.5121
  161DOPC   C3619481   3.869   0.546  15.709  0.2346  0.1482 -0.3120
  161DOPC   H6X19482   3.905   0.451  15.754  0.9789 -0.5661 -2.3343
  161DOPC   H6Y19483   3.764   0.567  15.740  0.0902 -1.5836  0.4654
  161DOPC   C3719484   3.892   0.550  15.555 -0.6221 -0.8748  0.2010
  161DOPC   H7X19485   3.869   0.647  15.506  2.7045 -0.6250 -1.1494
  161DOPC   H7Y19486   4.000   0.539  15.533 -0.8901  0.3250 -2.0463
  161DOPC   C3819487   3.839   0.436  15.475  0.4694 -0.4695 -0.9652
  161DOPC   H8X19488   3.728   0.432  15.468  0.3479  1.1201 -0.3343
  161DOPC   H8Y19489   3.862   0.350  15.541  0.9667 -1.0017 -1.8100
  161DOPC   C3919490   3.889   0.422  15.341 -0.4037  0.1970  0.6903
  161DOPC   H9X19491   3.996   0.396  15.340 -0.4212  0.1077 -0.1585
  161DOPC  C31019492   3.824   0.457  15.225  0.0781 -0.3536  0.1560
  161DOPC  H10X19493   3.866   0.426  15.128 -1.7354  0.9117 -1.0990
  161DOPC  C31119494   3.691   0.529  15.215  0.3025 -0.2804 -0.3884
  161DOPC  H11X19495   3.710   0.637  15.197  1.6283 -0.3431  0.4972
  161DOPC  H11Y19496   3.634   0.526  15.311 -0.6386  2.1611 -0.8208
  161DOPC  C31219497   3.593   0.495  15.101  0.3620  0.1463  0.0570
  161DOPC  H12X19498   3.555   0.396  15.134  0.1081  0.1611 -0.1888
  161DOPC  H12Y19499   3.633   0.475  15.000 -0.4689  0.4854 -0.3462
  161DOPC  C31319500   3.467   0.583  15.096  0.1215 -1.2450  0.7040
  161DOPC  H13X19501   3.425   0.599  15.197  0.3460 -0.5949  0.7008
  161DOPC  H13Y19502   3.485   0.684  15.055 -0.7026 -1.3955 -0.0643
  161DOPC  C31419503   3.350   0.518  15.023 -0.1271  0.4581 -0.8597
  161DOPC  H14X19504   3.383   0.489  14.921  2.9796  2.6455 -0.6039
  161DOPC  H14Y19505   3.333   0.419  15.072  1.7924 -0.8887 -2.6971
  161DOPC  C31519506   3.215   0.600  15.004  0.0647  0.2698 -0.1368
  161DOPC  H15X19507   3.249   0.704  14.982  1.9559 -0.0804  0.8950
  161DOPC  H15Y19508   3.167   0.597  15.104  3.1105  3.4960  1.6608
  161DOPC  C31619509   3.113   0.555  14.901 -0.0491 -0.0478  0.2395
  161DOPC  H16X19510   3.177   0.542  14.811  1.3626  2.2278  0.8254
  161DOPC  H16Y19511   3.061   0.467  14.946  0.3915  0.5364  1.9600
  161DOPC  C31719512   3.001   0.662  14.877 -0.5534  0.1565 -0.4696
  161DOPC  H17X19513   3.052   0.758  14.853 -3.4064  1.1074 -3.4715
  161DOPC  H17Y19514   2.946   0.639  14.782  2.4468  0.5401 -2.4384
  161DOPC  C31819515   2.902   0.677  14.993 -0.7548 -0.0761  0.1791
  161DOPC  H18X19516   2.847   0.772  14.976  0.5096  0.2279 -3.1949
  161DOPC  H18Y19517   2.825   0.600  14.972 -1.4702  0.4383  0.8819
  161DOPC  H18Z19518   2.950   0.664  15.092  0.5370 -0.6872 -0.4887
  162DOPC     N19519   1.373   6.237  16.834  0.5376 -0.2304  0.6062
  162DOPC   C1219520   1.349   6.155  16.714  0.3419  0.5111  0.2593
  162DOPC  H12A19521   1.264   6.194  16.660 -0.2078 -3.2454 -1.8878
  162DOPC  H12B19522   1.313   6.058  16.743  2.0794 -0.7970 -1.6747
  162DOPC   C1319523   1.415   6.378  16.789  0.3907 -0.6207 -0.5647
  162DOPC  H13A19524   1.434   6.447  16.870  1.1177 -0.1097 -1.1502
  162DOPC  H13B19525   1.504   6.365  16.728  0.2139  2.2467 -1.5904
  162DOPC  H13C19526   1.347   6.427  16.721 -0.0318 -0.7047 -0.1999
  162DOPC   C1419527   1.486   6.179  16.910  0.0573 -0.7098 -1.1973
  162DOPC  H14A19528   1.467   6.076  16.933 -0.9869 -0.3008 -0.1061
  162DOPC  H14B19529   1.577   6.190  16.852 -0.6256  2.1830 -1.9117
  162DOPC  H14C19530   1.504   6.220  17.009  0.5672 -1.2646 -1.0544
  162DOPC   C1519531   1.255   6.247  16.922 -0.2099 -0.3393  0.6885
  162DOPC  H15A19532   1.206   6.152  16.931 -1.8174  0.4428  0.5410
  162DOPC  H15B19533   1.186   6.320  16.882 -0.6393 -0.7897  0.6063
  162DOPC  H15C19534   1.284   6.285  17.019  0.2428 -1.0636  0.8458
  162DOPC   C1119535   1.468   6.136  16.610  0.5684  0.4687  0.3460
  162DOPC  H11A19536   1.552   6.082  16.659 -0.4973 -1.5524  0.0424
  162DOPC  H11B19537   1.437   6.057  16.539  1.4594 -0.0455  0.5122
  162DOPC     P19538   1.447   6.307  16.409  0.5113 -0.0820  0.4253
  162DOPC   O1319539   1.516   6.421  16.351  0.0480 -0.4690 -0.5878
  162DOPC   O1419540   1.301   6.324  16.436  0.4152 -0.4146 -0.1475
  162DOPC   O1219541   1.509   6.257  16.546 -0.3410 -0.0836 -0.0095
  162DOPC   O1119542   1.457   6.184  16.305 -0.1606  0.1939 -0.0803
  162DOPC    C119543   1.583   6.132  16.263  0.6010 -0.0547 -0.6072
  162DOPC    HA19544   1.580   6.023  16.238  2.1346 -0.4422  0.6986
  162DOPC    HB19545   1.664   6.130  16.339  0.3663 -1.5434 -0.3526
  162DOPC    C219546   1.629   6.201  16.134 -0.0935  0.6497  0.7430
  162DOPC    HS19547   1.588   6.304  16.129 -0.7966  0.3237 -1.3026
  162DOPC   O2119548   1.576   6.120  16.022  0.2015  0.5897 -0.0693
  162DOPC   C2119549   1.448   6.143  15.998 -0.1191  0.1657 -0.1677
  162DOPC   O2219550   1.387   6.245  16.018  0.7346  0.3185  0.2988
  162DOPC   C2219551   1.379   6.019  15.937  0.0422 -0.2320  0.4796
  162DOPC   H2R19552   1.356   5.947  16.019  0.1239 -0.1732  0.5543
  162DOPC   H2S19553   1.436   5.967  15.857 -0.5997 -0.5048  0.1951
  162DOPC    C319554   1.784   6.214  16.124  0.8492  0.3261  0.5347
  162DOPC    HX19555   1.824   6.119  16.165 -1.4086 -0.5211  0.9680
  162DOPC    HY19556   1.826   6.299  16.182  0.9481  0.0656  0.8529
  162DOPC   O3119557   1.818   6.219  15.985 -0.3703  0.0373 -0.1655
  162DOPC   C3119558   1.824   6.339  15.934  0.3927 -0.1788 -0.2313
  162DOPC   O3219559   1.820   6.445  15.995 -0.1943 -0.3890 -0.3306
  162DOPC   C3219560   1.834   6.313  15.785 -0.1535 -0.8109  0.1311
  162DOPC   H2X19561   1.941   6.293  15.765  0.9789  2.6814  1.9007
  162DOPC   H2Y19562   1.772   6.224  15.757  0.0211 -1.4354  1.6555
  162DOPC   C2319563   1.243   6.047  15.868  1.0089 -0.5544  0.6380
  162DOPC   H3R19564   1.263   6.106  15.776  0.9709  0.7108  1.4157
  162DOPC   H3S19565   1.162   6.096  15.926  1.3094  0.5064  0.1874
  162DOPC   C2419566   1.177   5.909  15.817 -0.3813  0.0037 -0.0012
  162DOPC   H4R19567   1.084   5.920  15.757  0.5669  1.0062 -1.3228
  162DOPC   H4S19568   1.145   5.845  15.902 -0.5270  0.1558  0.0598
  162DOPC   C2519569   1.259   5.830  15.710 -0.4768 -0.2908  0.6955
  162DOPC   H5R19570   1.204   5.746  15.663  0.5023  0.1196 -1.2742
  162DOPC   H5S19571   1.347   5.786  15.762  2.2863  3.2574 -0.5515
  162DOPC   C2619572   1.304   5.926  15.602  0.4806  0.0169  0.5744
  162DOPC   H6R19573   1.391   5.988  15.634  0.1765  1.6828 -1.6409
  162DOPC   H6S19574   1.224   5.996  15.572  0.3264 -0.3594  0.1024
  162DOPC   C2719575   1.350   5.849  15.474 -0.1811  0.6456 -1.3421
  162DOPC   H7R19576   1.276   5.772  15.444  0.6228 -2.3548  3.4134
  162DOPC   H7S19577   1.442   5.803  15.516 -2.2206  0.4784  3.4884
  162DOPC   C2819578   1.390   5.932  15.347  0.0548  0.4844 -0.3013
  162DOPC   H8R19579   1.463   6.012  15.372  3.1623 -2.0667 -0.5274
  162DOPC   H8S19580   1.296   5.980  15.313 -0.5380 -0.6652 -0.3261
  162DOPC   C2919581   1.452   5.860  15.230 -0.5791  0.2419  0.8549
  162DOPC   H9R19582   1.550   5.815  15.255 -1.0417 -0.1679  1.9771
  162DOPC  C21019583   1.421   5.860  15.099  0.9397  0.1667 -0.5048
  162DOPC  H10R19584   1.471   5.798  15.023 -1.5422 -1.6795 -0.7386
  162DOPC  C21119585   1.293   5.918  15.048  0.0849 -0.2053 -0.5969
  162DOPC  H11R19586   1.263   6.019  15.082 -3.1445 -0.6140 -1.9130
  162DOPC  H11S19587   1.212   5.844  15.063  0.3958 -0.4960 -0.3182
  162DOPC  C21219588   1.289   5.951  14.896  0.0053 -0.3535 -0.4821
  162DOPC  H12R19589   1.323   5.863  14.837 -2.0488 -2.0480  0.7122
  162DOPC  H12S19590   1.368   6.027  14.878  0.5057 -0.2026  1.9804
  162DOPC  C21319591   1.145   5.995  14.856  0.2508 -0.1906 -0.3104
  162DOPC  H13R19592   1.118   6.072  14.931 -0.5877 -2.1848  1.5358
  162DOPC  H13S19593   1.068   5.918  14.876 -0.4099  0.1299 -1.4863
  162DOPC  C21419594   1.150   6.024  14.705  0.3397 -0.0717  0.0707
  162DOPC  H14R19595   1.254   6.039  14.670 -0.2911  1.7805 -1.1844
  162DOPC  H14S19596   1.097   6.121  14.691 -0.1386 -0.3705 -0.2457
  162DOPC  C21519597   1.086   5.920  14.610 -0.3362  0.2262  0.4413
  162DOPC  H15R19598   1.051   5.985  14.527 -0.8883 -0.4778  0.1188
  162DOPC  H15S19599   0.997   5.877  14.661  0.1526  0.3550  1.4426
  162DOPC  C21619600   1.182   5.815  14.564 -0.1903 -0.5066  0.1230
  162DOPC  H16R19601   1.230   5.754  14.643  1.1210  2.7120  1.9951
  162DOPC  H16S19602   1.269   5.869  14.522 -0.7070  0.9312  0.8437
  162DOPC  C21719603   1.113   5.714  14.466  0.4200 -0.9287 -0.7343
  162DOPC  H17R19604   1.093   5.780  14.379 -0.5126  1.2265  1.0135
  162DOPC  H17S19605   1.019   5.681  14.516  1.1090 -0.4006  0.9811
  162DOPC  C21819606   1.204   5.592  14.437 -0.6468  0.1018  0.1326
  162DOPC  H18R19607   1.171   5.542  14.344 -0.1099 -0.5339  0.2752
  162DOPC  H18S19608   1.189   5.522  14.522  0.0037  0.7858  0.8338
  162DOPC  H18T19609   1.313   5.616  14.446 -0.6110  0.7951 -1.7161
  162DOPC   C3319610   1.790   6.439  15.712 -0.5713  0.2078 -0.7225
  162DOPC   H3X19611   1.879   6.506  15.719  0.1999 -0.5653 -2.6345
  162DOPC   H3Y19612   1.708   6.491  15.767  0.4340  1.6156 -0.4711
  162DOPC   C3419613   1.751   6.430  15.564  0.7480  0.0062  0.0439
  162DOPC   H4X19614   1.831   6.369  15.516 -0.6792  0.5498 -3.3052
  162DOPC   H4Y19615   1.759   6.531  15.518  0.6967  1.1706  2.4371
  162DOPC   C3519616   1.612   6.367  15.543 -0.2108  0.4454  0.1982
  162DOPC   H5X19617   1.546   6.432  15.604 -0.6209 -1.4053  1.7989
  162DOPC   H5Y19618   1.611   6.269  15.594  2.6332  0.4232  0.3632
  162DOPC   C3619619   1.573   6.346  15.397 -0.8112  0.1910  0.1866
  162DOPC   H6X19620   1.504   6.260  15.384 -1.0972  0.5571 -0.7843
  162DOPC   H6Y19621   1.521   6.441  15.374 -0.6581  0.2178 -0.0387
  162DOPC   C3719622   1.697   6.306  15.311  0.8013 -0.7798 -0.1273
  162DOPC   H7X19623   1.776   6.384  15.312 -0.9320  1.2386 -3.2159
  162DOPC   H7Y19624   1.743   6.230  15.378  2.0062 -1.3377 -1.5300
  162DOPC   C3819625   1.669   6.243  15.174  0.0781  0.1334 -0.5788
  162DOPC   H8X19626   1.630   6.330  15.117  0.9745  2.7995  2.5551
  162DOPC   H8Y19627   1.594   6.162  15.192 -1.4039  1.2870 -1.3164
  162DOPC   C3919628   1.795   6.183  15.121 -0.2879 -0.1973 -0.5622
  162DOPC   H9X19629   1.888   6.207  15.174 -1.4573 -1.1857  2.1327
  162DOPC  C31019630   1.802   6.092  15.019 -0.0943  0.5786 -0.2408
  162DOPC  H10X19631   1.896   6.039  14.997 -0.6429 -0.2768 -0.5742
  162DOPC  C31119632   1.691   6.034  14.943  0.1037 -0.2787  0.2756
  162DOPC  H11X19633   1.598   6.093  14.947 -0.5475 -1.3463  2.3517
  162DOPC  H11Y19634   1.661   5.937  14.987 -0.3849  0.1051  0.8005
  162DOPC  C31219635   1.727   6.012  14.792  0.2939  0.3593 -0.2180
  162DOPC  H12X19636   1.775   6.107  14.760  0.4282  0.6911  0.9154
  162DOPC  H12Y19637   1.628   6.004  14.744 -0.2482  3.6249  0.1218
  162DOPC  C31319638   1.811   5.887  14.757 -0.2563 -0.2046 -0.5984
  162DOPC  H13X19639   1.902   5.885  14.822 -1.1322 -1.5921  0.6637
  162DOPC  H13Y19640   1.760   5.794  14.790  1.3568 -0.1582  2.3809
  162DOPC  C31419641   1.865   5.868  14.615 -0.1806 -0.1321 -0.2676
  162DOPC  H14X19642   1.773   5.860  14.554  0.4522  0.0319 -1.2776
  162DOPC  H14Y19643   1.926   5.957  14.586  1.6123 -0.3874  2.3615
  162DOPC  C31519644   1.953   5.746  14.585  0.5364  0.4614 -0.5258
  162DOPC  H15X19645   1.891   5.665  14.630  0.4370  0.6335 -0.3465
  162DOPC  H15Y19646   2.049   5.762  14.638  0.8341 -0.0825 -0.8897
  162DOPC  C31619647   1.988   5.719  14.432 -0.1189 -0.4167 -0.1615
  162DOPC  H16X19648   1.899   5.685  14.374  1.1817 -0.3635 -2.3107
  162DOPC  H16Y19649   2.021   5.811  14.380  2.3859 -0.3992  1.3023
  162DOPC  C31719650   2.097   5.613  14.416 -0.0818 -0.2308 -0.3610
  162DOPC  H17X19651   2.177   5.648  14.485 -2.1078 -0.4431  2.2130
  162DOPC  H17Y19652   2.073   5.508  14.445  2.2096 -0.2940  1.6558
  162DOPC  C31819653   2.173   5.603  14.285 -0.4142 -0.2564 -0.2715
  162DOPC  H18X19654   2.235   5.511  14.283  0.1744  0.1161  0.1994
  162DOPC  H18Y19655   2.106   5.593  14.197  0.0418 -1.1451 -0.5374
  162DOPC  H18Z19656   2.234   5.695  14.273 -0.7127  0.0384  0.3724
  163DOPC     N19657   7.216   3.541  16.391  0.1776 -1.1190  0.4912
  163DOPC   C1219658   7.179   3.455  16.267  0.9385 -0.0409 -0.5881
  163DOPC  H12A19659   7.239   3.365  16.267  0.5123 -0.3239 -0.5236
  163DOPC  H12B19660   7.206   3.506  16.176  0.7087  0.7037 -0.2460
  163DOPC   C1319661   7.363   3.583  16.388  1.4083  0.0974 -0.1666
  163DOPC  H13A19662   7.384   3.673  16.331 -0.0864  1.0313  0.6810
  163DOPC  H13B19663   7.381   3.619  16.489 -2.9634 -0.0012  0.8188
  163DOPC  H13C19664   7.430   3.505  16.357  0.8643 -0.1962 -0.6082
  163DOPC   C1419665   7.206   3.454  16.508  0.6290  0.0361 -1.0554
  163DOPC  H14A19666   7.295   3.394  16.520  0.3947 -0.1373 -0.1244
  163DOPC  H14B19667   7.190   3.512  16.598 -3.6074 -0.9670 -0.9758
  163DOPC  H14C19668   7.120   3.391  16.492 -1.3585  1.9320  1.2216
  163DOPC   C1519669   7.126   3.661  16.402  0.5843  0.2499  0.3500
  163DOPC  H15A19670   7.022   3.632  16.395  0.3250  1.1714  0.1712
  163DOPC  H15B19671   7.133   3.730  16.319 -2.7822  0.5414  0.1623
  163DOPC  H15C19672   7.145   3.714  16.494  0.1042  2.6963 -0.8613
  163DOPC   C1119673   7.031   3.410  16.263 -0.2859 -0.2193 -0.1824
  163DOPC  H11A19674   6.965   3.493  16.297 -0.7005  0.0656 -1.6206
  163DOPC  H11B19675   7.003   3.387  16.158  0.2454 -1.7427 -0.0167
  163DOPC     P19676   7.043   3.159  16.303 -0.2671 -0.1515 -0.1669
  163DOPC   O1319677   7.052   3.069  16.421  0.3640  0.0521 -0.5194
  163DOPC   O1419678   7.159   3.161  16.213 -0.7433 -0.0458  0.3030
  163DOPC   O1219679   7.013   3.299  16.351 -0.1296 -0.5393 -0.6654
  163DOPC   O1119680   6.909   3.125  16.225 -0.1687  0.8883  0.5567
  163DOPC    C119681   6.893   2.996  16.171 -0.0997  0.0090  0.1710
  163DOPC    HA19682   6.787   2.963  16.169  0.0312 -0.6271  1.9566
  163DOPC    HB19683   6.954   2.917  16.220  2.9337  1.9971 -0.0954
  163DOPC    C219684   6.955   2.993  16.029 -0.0337 -0.5510 -0.4029
  163DOPC    HS19685   7.060   3.023  16.051 -0.6010  0.0195  1.7829
  163DOPC   O2119686   6.890   3.084  15.947 -0.3318 -0.7701 -0.1764
  163DOPC   C2119687   6.975   3.175  15.890  0.0801 -0.4831 -0.4351
  163DOPC   O2219688   7.096   3.172  15.905  0.0222  0.3098 -0.0952
  163DOPC   C2219689   6.901   3.270  15.802 -0.0590 -0.0037 -0.7942
  163DOPC   H2R19690   6.929   3.370  15.840 -1.7462 -0.9384  3.4514
  163DOPC   H2S19691   6.790   3.263  15.804 -0.3091  2.8322  1.9286
  163DOPC    C319692   6.959   2.850  15.967 -0.3718  1.3341 -0.0767
  163DOPC    HX19693   6.851   2.828  15.956  0.2343 -0.6149 -3.1987
  163DOPC    HY19694   7.010   2.776  16.032 -1.2979  0.1486 -0.6751
  163DOPC   O3119695   7.031   2.859  15.843  0.0602  0.1806 -0.3204
  163DOPC   C3119696   7.163   2.866  15.850 -0.1601 -0.0558  0.5418
  163DOPC   O3219697   7.226   2.855  15.955  0.1599  0.0261  0.1052
  163DOPC   C3219698   7.216   2.926  15.710  0.6074  0.3428 -0.6383
  163DOPC   H2X19699   7.189   2.861  15.624  0.3374  0.2553 -0.4908
  163DOPC   H2Y19700   7.157   3.019  15.695 -1.0448 -0.7659 -1.3858
  163DOPC   C2319701   6.937   3.266  15.649 -0.3145 -0.1715  0.0192
  163DOPC   H3R19702   7.044   3.247  15.624 -0.4189 -0.9691  0.1343
  163DOPC   H3S19703   6.905   3.359  15.598 -0.2870 -0.9923 -1.5464
  163DOPC   C2419704   6.865   3.154  15.574 -0.3041 -0.2947 -0.7409
  163DOPC   H4R19705   6.757   3.163  15.597  0.2683 -1.5869  3.2389
  163DOPC   H4S19706   6.905   3.055  15.607  2.1305  0.0133 -2.4912
  163DOPC   C2519707   6.876   3.145  15.420  0.0446  0.8986 -0.1512
  163DOPC   H5R19708   6.869   3.250  15.385 -0.8857  0.7351 -0.5043
  163DOPC   H5S19709   6.787   3.091  15.380  1.4344 -2.6354  1.0867
  163DOPC   C2619710   7.002   3.079  15.368 -0.2974 -0.3289  0.0085
  163DOPC   H6R19711   7.013   2.980  15.416  0.1909  0.6198  1.9808
  163DOPC   H6S19712   7.091   3.141  15.395  0.0355 -1.6871  2.2570
  163DOPC   C2719713   7.011   3.059  15.214 -0.0700  0.4886  0.2475
  163DOPC   H7R19714   6.976   3.144  15.150 -1.6007 -1.1788 -1.2424
  163DOPC   H7S19715   6.949   2.969  15.193  2.3079 -1.8320  2.5784
  163DOPC   C2819716   7.151   3.018  15.163 -0.4599 -0.0373 -0.3033
  163DOPC   H8R19717   7.182   2.938  15.234 -0.8126 -0.6744 -0.8499
  163DOPC   H8S19718   7.219   3.106  15.165 -2.5666  1.6811  2.3095
  163DOPC   C2919719   7.145   2.958  15.029 -0.1144  0.8741  0.2445
  163DOPC   H9R19720   7.132   2.849  15.035  2.2674  0.4093 -1.7025
  163DOPC  C21019721   7.157   3.017  14.906 -0.6272 -0.4440  0.5597
  163DOPC  H10R19722   7.180   2.951  14.821 -1.7321  2.3628 -2.1142
  163DOPC  C21119723   7.180   3.164  14.875 -0.1427  0.2812 -0.0456
  163DOPC  H11R19724   7.223   3.214  14.965  0.9353  2.0396 -1.4923
  163DOPC  H11S19725   7.085   3.219  14.861 -0.1271  0.2412 -0.3082
  163DOPC  C21219726   7.269   3.180  14.752 -0.4965 -0.4018  0.5015
  163DOPC  H12R19727   7.243   3.113  14.668 -1.3467 -0.6189  0.9255
  163DOPC  H12S19728   7.374   3.173  14.786  0.0553  1.8681 -0.4952
  163DOPC  C21319729   7.263   3.324  14.704 -0.4677  0.2271 -0.3867
  163DOPC  H13R19730   7.318   3.393  14.771 -1.7842  1.1478 -0.2149
  163DOPC  H13S19731   7.157   3.356  14.700 -0.7137 -0.5794 -0.5573
  163DOPC  C21419732   7.321   3.357  14.569  0.2203  0.3690  0.3904
  163DOPC  H14R19733   7.263   3.310  14.487 -0.4030  0.1510  0.9463
  163DOPC  H14S19734   7.426   3.323  14.555 -0.1983 -0.5593 -0.6627
  163DOPC  C21519735   7.320   3.515  14.553  0.1843 -0.2658 -0.0178
  163DOPC  H15R19736   7.397   3.569  14.611  1.2619 -0.6287 -1.0762
  163DOPC  H15S19737   7.220   3.559  14.576 -0.1981 -0.4252 -1.3066
  163DOPC  C21619738   7.342   3.543  14.401  0.4574  0.4071 -0.3307
  163DOPC  H16R19739   7.264   3.486  14.346  0.1808 -0.1207  0.6002
  163DOPC  H16S19740   7.446   3.511  14.376  0.5867  1.3096 -1.0365
  163DOPC  C21719741   7.325   3.695  14.378 -0.5074  0.1697 -0.5847
  163DOPC  H17R19742   7.415   3.744  14.420 -1.9262  3.2245 -0.8421
  163DOPC  H17S19743   7.239   3.732  14.437 -0.3112 -0.7511  0.2948
  163DOPC  C21819744   7.302   3.731  14.232 -0.4308  0.1505 -0.2510
  163DOPC  H18R19745   7.212   3.679  14.192 -0.0766 -0.2230 -0.5676
  163DOPC  H18S19746   7.387   3.695  14.171 -0.0838 -1.6805  1.2282
  163DOPC  H18T19747   7.292   3.841  14.223 -0.5751  0.1028 -0.6808
  163DOPC   C3319748   7.362   2.970  15.708  0.0600  0.4521  0.1057
  163DOPC   H3X19749   7.423   2.880  15.689  0.9706  0.9815  0.4891
  163DOPC   H3Y19750   7.397   2.994  15.810  0.0202  0.7122  0.0610
  163DOPC   C3419751   7.398   3.090  15.618  0.9627  0.0790 -0.0949
  163DOPC   H4X19752   7.504   3.108  15.645  0.8913 -0.1114  0.3204
  163DOPC   H4Y19753   7.335   3.170  15.663  0.0452 -0.4914 -0.3356
  163DOPC   C3519754   7.377   3.069  15.470 -0.2471 -0.1697  0.3373
  163DOPC   H5X19755   7.368   3.165  15.417  2.1905  0.7948  1.4956
  163DOPC   H5Y19756   7.286   3.007  15.454 -0.1877 -0.4293  0.9537
  163DOPC   C3619757   7.490   2.984  15.411 -0.2814 -0.3831  0.2106
  163DOPC   H6X19758   7.488   2.880  15.450  3.2913 -1.0944 -1.1527
  163DOPC   H6Y19759   7.459   2.987  15.304 -0.1562  2.5298  0.1594
  163DOPC   C3719760   7.637   3.039  15.412  0.1634  0.4617  0.2133
  163DOPC   H7X19761   7.647   3.133  15.353  3.5543  1.4234  2.0397
  163DOPC   H7Y19762   7.659   3.057  15.519 -1.2335  0.6995  0.4699
  163DOPC   C3819763   7.733   2.937  15.354  0.2349  0.6869 -0.4030
  163DOPC   H8X19764   7.700   2.840  15.395 -1.0359  0.2879 -2.2293
  163DOPC   H8Y19765   7.835   2.945  15.399 -0.1641 -0.4208  0.7579
  163DOPC   C3919766   7.749   2.938  15.209 -0.3025  0.3283  0.1624
  163DOPC   H9X19767   7.763   3.038  15.164 -0.1819  1.2124  2.0790
  163DOPC  C31019768   7.738   2.828  15.130 -0.2957 -0.8557  0.5552
  163DOPC  H10X19769   7.755   2.849  15.023  0.4458 -1.4275  0.5596
  163DOPC  C31119770   7.714   2.686  15.166  0.4448  0.4467 -0.1445
  163DOPC  H11X19771   7.615   2.654  15.128 -0.5161  1.5277  1.3452
  163DOPC  H11Y19772   7.711   2.667  15.276 -1.8190  4.1879  0.6043
  163DOPC  C31219773   7.821   2.592  15.110 -0.0637 -0.6452 -0.3869
  163DOPC  H12X19774   7.917   2.603  15.166 -2.1303  1.8621  3.0266
  163DOPC  H12Y19775   7.827   2.625  15.004  1.3719  3.7148  0.8488
  163DOPC  C31319776   7.766   2.447  15.137  0.1199  0.1183 -0.5162
  163DOPC  H13X19777   7.667   2.460  15.185 -0.0210 -1.9623 -0.1363
  163DOPC  H13Y19778   7.733   2.405  15.040 -0.1893 -3.2719  0.9081
  163DOPC  C31419779   7.858   2.356  15.213 -0.5341  0.1574  0.4600
  163DOPC  H14X19780   7.956   2.339  15.164 -1.2389  1.3642 -1.4970
  163DOPC  H14Y19781   7.882   2.395  15.314 -0.4667  0.4533  0.3301
  163DOPC  C31519782   7.802   2.209  15.220  0.0158  0.0870 -0.5369
  163DOPC  H15X19783   7.804   2.171  15.115 -0.9825 -0.3417 -0.4151
  163DOPC  H15Y19784   7.695   2.209  15.252 -0.2892 -1.0833 -1.4575
  163DOPC  C31619785   7.899   2.124  15.301 -0.0326  0.7119 -0.1417
  163DOPC  H16X19786   7.994   2.107  15.246 -0.1725 -1.2900  0.1579
  163DOPC  H16Y19787   7.924   2.176  15.397 -1.2152  1.9480 -0.4756
  163DOPC  C31719788   7.857   1.976  15.326  0.1726 -0.1573  1.1182
  163DOPC  H17X19789   7.769   1.977  15.394 -0.2823  2.2380  0.6119
  163DOPC  H17Y19790   7.813   1.948  15.228 -1.3419  0.6339  1.5383
  163DOPC  C31819791   7.964   1.885  15.388  0.8375  0.2160  0.6551
  163DOPC  H18X19792   7.925   1.784  15.417 -1.0148  0.7503  0.1701
  163DOPC  H18Y19793   8.049   1.863  15.320  0.5009  2.1179 -0.4508
  163DOPC  H18Z19794   8.018   1.942  15.466  0.9678 -0.1330  0.8221
  164DOPC     N19795   0.795   0.107  16.570 -0.0547  0.2222  0.2752
  164DOPC   C1219796   0.759   0.255  16.561  0.4736 -0.0961 -0.1786
  164DOPC  H12A19797   0.653   0.267  16.574  0.2924 -3.2184  2.5639
  164DOPC  H12B19798   0.753   0.276  16.455 -1.7416  0.4947  0.0203
  164DOPC   C1319799   0.928   0.065  16.517 -0.3274  0.0137 -0.3303
  164DOPC  H13A19800   0.931   0.068  16.409 -0.4778  1.3014 -0.3200
  164DOPC  H13B19801   1.012   0.123  16.552  2.5156 -4.5771  1.2595
  164DOPC  H13C19802   0.948  -0.037  16.546 -0.6651  1.0566  4.3027
  164DOPC   C1419803   0.686   0.031  16.503 -0.1489 -0.4509  0.0554
  164DOPC  H14A19804   0.667   0.064  16.402 -0.6030  0.7618  0.5272
  164DOPC  H14B19805   0.696  -0.077  16.510  0.2950 -0.5711 -1.8583
  164DOPC  H14C19806   0.592   0.043  16.555 -1.5273  2.0982 -2.7065
  164DOPC   C1519807   0.795   0.065  16.712 -0.4879 -0.5043 -0.0417
  164DOPC  H15A19808   0.694   0.081  16.746 -0.7730  0.8790 -1.4215
  164DOPC  H15B19809   0.859   0.126  16.774 -0.6129  1.5000 -1.8010
  164DOPC  H15C19810   0.821  -0.040  16.712  1.9352  0.0129  1.2171
  164DOPC   C1119811   0.835   0.361  16.646  0.7423  0.2290  0.5760
  164DOPC  H11A19812   0.805   0.462  16.613 -1.7040 -0.0242  1.7752
  164DOPC  H11B19813   0.794   0.342  16.748  0.8956 -1.6433  0.3312
  164DOPC     P19814   1.081   0.438  16.580 -0.2956 -0.1510  0.4201
  164DOPC   O1319815   1.200   0.363  16.534 -0.4250  0.5929  0.3121
  164DOPC   O1419816   1.111   0.546  16.678  0.0017 -0.2998 -0.1952
  164DOPC   O1219817   0.980   0.336  16.648  0.1883 -0.0304  0.6412
  164DOPC   O1119818   0.992   0.503  16.463 -0.1127  0.8383 -0.5041
  164DOPC    C119819   0.952   0.418  16.355 -0.2442  0.4401 -0.1387
  164DOPC    HA19820   0.847   0.448  16.333 -0.5479 -0.3570  0.1850
  164DOPC    HB19821   0.944   0.311  16.382 -0.3674  0.0631 -1.5990
  164DOPC    C219822   1.048   0.441  16.228 -0.5312 -0.8962  0.1818
  164DOPC    HS19823   1.150   0.407  16.257  1.0504  1.9169 -1.5908
  164DOPC   O2119824   1.043   0.582  16.192  0.7369  0.2401  0.4282
  164DOPC   C2119825   1.147   0.624  16.129 -0.2503  0.0245  0.3749
  164DOPC   O2219826   1.252   0.564  16.109  0.7730  0.4001 -0.0393
  164DOPC   C2219827   1.115   0.765  16.073  0.3856 -0.0810 -0.0156
  164DOPC   H2R19828   1.212   0.819  16.077  0.6604 -0.2811 -2.4190
  164DOPC   H2S19829   1.039   0.809  16.141 -0.5580 -0.7241 -0.6350
  164DOPC    C319830   1.003   0.357  16.105 -0.1555  0.6648 -0.1590
  164DOPC    HX19831   0.902   0.393  16.075  0.3011  2.2814  0.1686
  164DOPC    HY19832   1.005   0.247  16.123  2.3130  0.6371 -0.2949
  164DOPC   O3119833   1.087   0.382  15.994 -0.0383  0.2743  0.4312
  164DOPC   C3119834   1.200   0.311  15.981  1.0712 -0.0330 -0.4571
  164DOPC   O3219835   1.232   0.227  16.061  0.1533  0.0154 -0.0683
  164DOPC   C3219836   1.293   0.352  15.863 -0.3408 -0.0209 -0.2193
  164DOPC   H2X19837   1.225   0.360  15.775  0.9303 -0.5957 -1.2800
  164DOPC   H2Y19838   1.331   0.452  15.893 -1.1859  0.8169 -1.7587
  164DOPC   C2319839   1.054   0.753  15.940  0.5029 -0.5285 -0.5806
  164DOPC   H3R19840   0.951   0.712  15.935  0.4525 -0.3519 -1.0372
  164DOPC   H3S19841   1.120   0.682  15.884  1.7845  0.0770  0.1173
  164DOPC   C2419842   1.061   0.880  15.858  0.1229  0.3435  0.5635
  164DOPC   H4R19843   1.165   0.909  15.832  0.1650  0.1068  0.4636
  164DOPC   H4S19844   1.020   0.962  15.921 -0.7982 -0.1103  0.5698
  164DOPC   C2519845   0.980   0.889  15.730  0.2135  0.0596 -0.3511
  164DOPC   H5R19846   0.966   0.996  15.703  0.6512  0.5792  1.3616
  164DOPC   H5S19847   0.876   0.853  15.744 -0.4572  0.8406 -2.8281
  164DOPC   C2619848   1.058   0.840  15.606  0.1456 -0.5702  0.1997
  164DOPC   H6R19849   1.167   0.855  15.622 -0.0885  0.6651  0.8130
  164DOPC   H6S19850   1.027   0.899  15.517  1.7367 -2.1898 -1.4953
  164DOPC   C2719851   1.020   0.695  15.567 -0.0964  0.1935  0.6726
  164DOPC   H7R19852   0.913   0.683  15.541 -0.2432  2.1128  0.1956
  164DOPC   H7S19853   1.048   0.625  15.648  1.9668  0.8586  0.6061
  164DOPC   C2819854   1.093   0.654  15.438  0.3674  0.3847 -0.3314
  164DOPC   H8R19855   1.201   0.670  15.461 -0.0134  1.0247  1.1082
  164DOPC   H8S19856   1.069   0.731  15.361  0.8477  0.2674 -0.6047
  164DOPC   C2919857   1.063   0.510  15.402  0.6821  0.0486 -0.2901
  164DOPC   H9R19858   1.080   0.445  15.489 -1.7547 -0.1335  0.1414
  164DOPC  C21019859   1.014   0.456  15.284  0.0199 -0.5980  0.8669
  164DOPC  H10R19860   1.020   0.348  15.264 -0.4655 -0.4484 -0.1371
  164DOPC  C21119861   0.979   0.537  15.160  0.1959 -0.1825  0.0431
  164DOPC  H11R19862   0.985   0.646  15.178  2.3719 -0.2287 -0.1817
  164DOPC  H11S19863   0.874   0.514  15.131 -0.7549  1.5100  1.8784
  164DOPC  C21219864   1.063   0.496  15.037  0.0195  0.6307 -0.1295
  164DOPC  H12R19865   1.044   0.387  15.023  0.1463  0.1042  3.0966
  164DOPC  H12S19866   1.171   0.504  15.063 -0.1486  0.3017  0.7004
  164DOPC  C21319867   1.031   0.577  14.909  0.6113  0.0397 -0.3659
  164DOPC  H13R19868   1.109   0.582  14.830  0.9203  0.8029 -0.0233
  164DOPC  H13S19869   1.027   0.684  14.938  1.0129  0.0297 -0.2737
  164DOPC  C21419870   0.909   0.536  14.831 -0.1075 -0.4884 -0.0330
  164DOPC  H14R19871   0.832   0.569  14.904 -1.0620  0.8057 -1.5689
  164DOPC  H14S19872   0.907   0.426  14.817  3.8473 -0.5041 -1.9390
  164DOPC  C21519873   0.879   0.601  14.698 -0.5884 -0.6191  0.6591
  164DOPC  H15R19874   0.886   0.708  14.727  1.0680  0.1356 -2.0866
  164DOPC  H15S19875   0.774   0.583  14.667  0.2237 -5.2135 -0.1399
  164DOPC  C21619876   0.980   0.565  14.579  0.3130 -0.4162  1.0309
  164DOPC  H16R19877   1.066   0.636  14.575 -1.4313  1.7751 -1.8332
  164DOPC  H16S19878   0.931   0.582  14.481  0.8844  1.8013  1.0858
  164DOPC  C21719879   1.037   0.424  14.584  0.0727  0.2132 -0.6683
  164DOPC  H17R19880   0.950   0.355  14.590 -0.9250  1.5340  0.9632
  164DOPC  H17S19881   1.093   0.406  14.679 -0.4391 -0.6380 -0.5195
  164DOPC  C21819882   1.123   0.399  14.465  0.7553  0.7380  0.4263
  164DOPC  H18R19883   1.148   0.291  14.462 -0.0705  0.5601 -1.5400
  164DOPC  H18S19884   1.223   0.446  14.476  1.6099 -0.3468 -1.9516
  164DOPC  H18T19885   1.065   0.422  14.373  1.2244  2.6761  0.5631
  164DOPC   C3319886   1.401   0.253  15.829  0.3257  0.8933  0.3677
  164DOPC   H3X19887   1.364   0.149  15.838  3.1947 -0.0677  2.6117
  164DOPC   H3Y19888   1.483   0.260  15.904  0.1950 -0.8602  0.7115
  164DOPC   C3419889   1.474   0.277  15.698 -0.5696  1.2931  0.1934
  164DOPC   H4X19890   1.569   0.220  15.698 -0.5306  1.3536 -0.1073
  164DOPC   H4Y19891   1.509   0.382  15.697  1.4171  0.6753  0.7274
  164DOPC   C3519892   1.397   0.246  15.567  0.2243 -0.0891 -0.3806
  164DOPC   H5X19893   1.301   0.303  15.561  1.8388  2.8999  0.2755
  164DOPC   H5Y19894   1.378   0.137  15.572  0.7440 -0.1415  0.5519
  164DOPC   C3619895   1.477   0.265  15.433 -0.5584 -0.2449  0.1665
  164DOPC   H6X19896   1.574   0.307  15.467  1.1238 -1.9523 -2.2355
  164DOPC   H6Y19897   1.495   0.164  15.391 -0.4321 -1.1118  2.1828
  164DOPC   C3719898   1.434   0.362  15.322 -0.1432 -0.0968  0.5427
  164DOPC   H7X19899   1.328   0.349  15.292 -0.2098  1.2236  0.1633
  164DOPC   H7Y19900   1.448   0.465  15.361 -2.6494  0.5516 -0.0729
  164DOPC   C3819901   1.515   0.345  15.194 -0.6173 -0.4298  0.0585
  164DOPC   H8X19902   1.511   0.241  15.154  1.2896  0.3162 -2.3187
  164DOPC   H8Y19903   1.622   0.366  15.216 -0.1965 -1.6808 -0.6773
  164DOPC   C3919904   1.459   0.442  15.085  0.4203  1.1837  0.5726
  164DOPC   H9X19905   1.454   0.547  15.117  2.1122  0.4976  3.5295
  164DOPC  C31019906   1.412   0.398  14.968  0.3149 -0.0289  0.4269
  164DOPC  H10X19907   1.382   0.461  14.883 -1.3956 -2.9269 -1.2613
  164DOPC  C31119908   1.417   0.261  14.911  0.3959  0.3815 -0.0455
  164DOPC  H11X19909   1.347   0.204  14.976 -0.9709  1.6403 -0.3671
  164DOPC  H11Y19910   1.517   0.215  14.924 -0.0302 -0.3068  0.9904
  164DOPC  C31219911   1.381   0.256  14.762 -0.2264 -0.8443  0.2649
  164DOPC  H12X19912   1.273   0.283  14.750 -0.2002 -0.2620  1.2191
  164DOPC  H12Y19913   1.385   0.153  14.722  0.3883  0.2743 -2.8373
  164DOPC  C31319914   1.468   0.345  14.666  0.1916 -0.3643  0.3768
  164DOPC  H13X19915   1.403   0.433  14.648 -0.3324 -0.3677  2.0047
  164DOPC  H13Y19916   1.561   0.387  14.709  0.6780 -0.6419 -0.3975
  164DOPC  C31419917   1.491   0.275  14.535  0.3295 -0.1799  0.4508
  164DOPC  H14X19918   1.540   0.339  14.458  4.5262 -3.6979 -0.1858
  164DOPC  H14Y19919   1.400   0.238  14.484  2.7048 -1.9112 -2.9324
  164DOPC  C31519920   1.594   0.168  14.549  0.0622  0.2254 -0.0983
  164DOPC  H15X19921   1.548   0.082  14.602  0.2900  1.1581  1.6846
  164DOPC  H15Y19922   1.681   0.203  14.609 -0.5178  1.1700  0.2111
  164DOPC  C31619923   1.639   0.124  14.412 -0.0746  0.9839  0.1912
  164DOPC  H16X19924   1.696   0.208  14.368  0.1902  1.0453  0.6356
  164DOPC  H16Y19925   1.715   0.043  14.422 -3.8281 -3.0588 -0.7681
  164DOPC  C31719926   1.530   0.064  14.320 -0.7307 -0.3739 -0.5455
  164DOPC  H17X19927   1.482  -0.029  14.358 -1.3766  1.6448  4.3748
  164DOPC  H17Y19928   1.450   0.141  14.314  0.3401  0.9150  0.9336
  164DOPC  C31819929   1.580   0.034  14.180  0.5446  0.0190  0.2391
  164DOPC  H18X19930   1.623   0.124  14.131  1.4024 -1.1175 -1.1793
  164DOPC  H18Y19931   1.659  -0.042  14.200 -1.1592 -1.5443  1.3428
  164DOPC  H18Z19932   1.495  -0.004  14.120  1.0118  0.2510 -0.5804
  165DOPC     N19933   6.301   0.867  16.379  0.2013 -0.0245 -0.5349
  165DOPC   C1219934   6.219   0.998  16.376  0.0805  1.1069  0.1320
  165DOPC  H12A19935   6.279   1.085  16.395  1.5906  0.5082 -1.5994
  165DOPC  H12B19936   6.149   0.987  16.458  0.4749  0.6697  0.4153
  165DOPC   C1319937   6.367   0.865  16.516  0.0270 -0.2705 -0.5793
  165DOPC  H13A19938   6.404   0.766  16.536 -2.2680 -1.2337 -0.8766
  165DOPC  H13B19939   6.450   0.935  16.512 -0.2349  0.0186 -0.9969
  165DOPC  H13C19940   6.304   0.897  16.599 -0.3469  0.4512 -1.1245
  165DOPC   C1419941   6.407   0.868  16.269  0.8438 -0.0214 -0.0649
  165DOPC  H14A19942   6.357   0.855  16.174 -1.6753  0.4500  1.1218
  165DOPC  H14B19943   6.464   0.960  16.271  1.2271 -0.2149 -1.1480
  165DOPC  H14C19944   6.466   0.779  16.262 -2.6912 -2.5192 -0.8880
  165DOPC   C1519945   6.225   0.744  16.363  0.0249 -1.0647  0.2020
  165DOPC  H15A19946   6.282   0.656  16.337  0.1039 -0.4374 -1.9498
  165DOPC  H15B19947   6.157   0.754  16.280  0.6053  0.6162 -0.0981
  165DOPC  H15C19948   6.156   0.725  16.445  0.0988  0.0780  0.5430
  165DOPC   C1119949   6.131   1.030  16.250  0.5189 -0.2259  0.0955
  165DOPC  H11A19950   6.087   1.129  16.273  0.1272 -0.4192  0.1767
  165DOPC  H11B19951   6.199   1.044  16.163 -1.8145  2.4602 -1.4431
  165DOPC     P19952   5.913   0.900  16.305 -0.1168  0.2432 -0.4180
  165DOPC   O1319953   5.915   1.012  16.408  0.0347  0.2720  0.0043
  165DOPC   O1419954   5.905   0.762  16.355  0.1478  0.0209 -0.1063
  165DOPC   O1219955   6.035   0.932  16.211 -0.0956  0.1234 -0.2748
  165DOPC   O1119956   5.793   0.925  16.210  0.6331 -0.2036 -0.2743
  165DOPC    C119957   5.796   0.992  16.081  0.5849  0.1672  0.7674
  165DOPC    HA19958   5.868   1.076  16.087 -0.1083  0.9348 -0.9176
  165DOPC    HB19959   5.695   1.031  16.057  0.4876 -0.7498 -0.4156
  165DOPC    C219960   5.830   0.902  15.959 -0.9755 -0.2174  0.2325
  165DOPC    HS19961   5.938   0.875  15.966 -1.3098 -2.0445 -1.0356
  165DOPC   O2119962   5.813   0.961  15.834 -0.3986 -0.2041 -0.3545
  165DOPC   C2119963   5.860   1.082  15.797  0.0479 -0.2077 -0.4612
  165DOPC   O2219964   5.947   1.145  15.852  0.1506 -0.2613 -0.0889
  165DOPC   C2219965   5.806   1.123  15.657 -0.2925 -0.9573  0.4697
  165DOPC   H2R19966   5.728   1.203  15.658  0.7026  0.1659 -2.0288
  165DOPC   H2S19967   5.757   1.040  15.602 -2.5293  0.2400  0.5140
  165DOPC    C319968   5.749   0.769  15.965 -0.4659  0.4317 -0.1403
  165DOPC    HX19969   5.641   0.784  15.940 -0.7011 -0.3504  0.3761
  165DOPC    HY19970   5.754   0.730  16.069 -0.2048  1.7472  0.3558
  165DOPC   O3119971   5.799   0.670  15.879 -0.4493  0.4615  0.0366
  165DOPC   C3119972   5.915   0.620  15.916 -0.7143  0.2907 -0.6004
  165DOPC   O3219973   5.965   0.634  16.026  0.6069 -0.6062  0.2412
  165DOPC   C3219974   5.970   0.523  15.805 -0.0394 -0.8374 -0.5436
  165DOPC   H2X19975   5.973   0.424  15.855  0.0276 -0.4813  0.1673
  165DOPC   H2Y19976   5.901   0.523  15.717 -0.5161 -1.2578 -0.1703
  165DOPC   C2319977   5.925   1.183  15.575  0.8381 -0.2497 -0.3740
  165DOPC   H3R19978   6.000   1.101  15.574  1.0224 -0.1362  1.5082
  165DOPC   H3S19979   5.972   1.261  15.638 -0.2050 -0.2457  0.4284
  165DOPC   C2419980   5.901   1.233  15.433 -0.5213 -0.0168  0.4993
  165DOPC   H4R19981   5.838   1.324  15.427  1.5974  1.4298 -1.5411
  165DOPC   H4S19982   5.854   1.152  15.374 -0.5103  0.0516  0.3978
  165DOPC   C2519983   6.031   1.269  15.357 -0.0174 -0.0614  0.1349
  165DOPC   H5R19984   6.105   1.314  15.426 -2.3812  0.6770  2.3440
  165DOPC   H5S19985   6.004   1.348  15.284  0.7576  0.3523  0.2878
  165DOPC   C2619986   6.095   1.148  15.293  0.3635  0.4994  0.7305
  165DOPC   H6R19987   6.032   1.094  15.219  2.1736  1.4840 -1.6668
  165DOPC   H6S19988   6.115   1.065  15.364 -0.6387 -0.8963 -0.5575
  165DOPC   C2719989   6.234   1.192  15.229 -0.1631  0.0598  0.5264
  165DOPC   H7R19990   6.283   1.247  15.311 -0.9346  2.0270 -0.2795
  165DOPC   H7S19991   6.213   1.261  15.144 -1.2922 -0.5947  0.2523
  165DOPC   C2819992   6.318   1.074  15.193  0.6792  0.3207 -0.2216
  165DOPC   H8R19993   6.305   1.000  15.275 -0.8843  1.0193  0.1824
  165DOPC   H8S19994   6.424   1.105  15.182  1.0429 -1.5602 -2.8395
  165DOPC   C2919995   6.269   1.034  15.060 -0.7958 -0.0676  0.7539
  165DOPC   H9R19996   6.290   1.103  14.976  0.9739 -2.2371 -0.6926
  165DOPC  C21019997   6.212   0.920  15.021  0.2638  0.4944 -0.0503
  165DOPC  H10R19998   6.181   0.910  14.916 -1.7354  1.6250  0.3949
  165DOPC  C21119999   6.186   0.811  15.120 -0.7135  0.0525 -0.1895
  165DOPC  H11R20000   6.091   0.754  15.106 -1.2923  0.8993  0.2355
  165DOPC  H11S20001   6.180   0.864  15.217 -0.6859  0.2044 -0.2719
  165DOPC  C21220002   6.314   0.713  15.119  0.1365 -0.6948  0.2480
  165DOPC  H12R20003   6.402   0.779  15.105  0.0686 -0.6981 -0.1954
  165DOPC  H12S20004   6.307   0.648  15.030  0.8067  3.1152 -2.8278
  165DOPC  C21320005   6.323   0.610  15.232 -0.7535  0.8625 -0.3707
  165DOPC  H13R20006   6.374   0.661  15.317 -0.9980  1.7199 -0.7317
  165DOPC  H13S20007   6.382   0.518  15.210 -0.6996  0.6403  0.6653
  165DOPC  C21420008   6.191   0.548  15.282  0.0814 -0.2798 -0.4262
  165DOPC  H14R20009   6.117   0.533  15.201  0.3098  0.2763 -0.7466
  165DOPC  H14S20010   6.132   0.616  15.347 -2.4926 -1.5077 -1.3278
  165DOPC  C21520011   6.205   0.410  15.354  0.1840 -0.4423 -0.7178
  165DOPC  H15R20012   6.274   0.432  15.438 -0.6633  1.3775 -0.4506
  165DOPC  H15S20013   6.251   0.339  15.283  0.3504 -2.2009  1.0642
  165DOPC  C21620014   6.061   0.387  15.399 -0.9351 -0.2764 -0.3393
  165DOPC  H16R20015   5.997   0.350  15.316 -2.5480  1.4274  0.0727
  165DOPC  H16S20016   6.014   0.480  15.436  0.6625  0.1754  0.6425
  165DOPC  C21720017   6.047   0.272  15.505 -0.6607 -0.6420 -0.3470
  165DOPC  H17R20018   6.115   0.305  15.587  0.5805 -0.3992 -1.4431
  165DOPC  H17S20019   6.095   0.177  15.473 -0.9831 -0.9430  0.0482
  165DOPC  C21820020   5.906   0.250  15.555 -0.1257 -0.5882  0.4250
  165DOPC  H18R20021   5.836   0.248  15.468  0.8134  1.6238 -0.4575
  165DOPC  H18S20022   5.869   0.340  15.608  0.4965  0.0740 -0.2394
  165DOPC  H18T20023   5.893   0.161  15.620 -1.4620 -0.1410  0.8009
  165DOPC   C3320024   6.114   0.558  15.760  0.2560  0.1198 -0.7408
  165DOPC   H3X20025   6.136   0.496  15.670  1.6626 -0.3909 -0.0742
  165DOPC   H3Y20026   6.193   0.537  15.836 -1.8575 -0.6265  1.3549
  165DOPC   C3420027   6.132   0.708  15.720 -0.5498  0.3097  0.6087
  165DOPC   H4X20028   6.132   0.776  15.807  1.4689  0.4883  0.5015
  165DOPC   H4Y20029   6.060   0.746  15.644  1.7087  1.2537 -1.1592
  165DOPC   C3520030   6.265   0.745  15.652 -0.1251  0.1991  0.6480
  165DOPC   H5X20031   6.280   0.695  15.554  0.1695 -2.1625  1.8378
  165DOPC   H5Y20032   6.343   0.699  15.715  0.6834 -1.9738 -1.7636
  165DOPC   C3620033   6.273   0.896  15.628 -0.1986  0.0627 -0.0694
  165DOPC   H6X20034   6.189   0.933  15.565  0.3037  0.9765 -0.2302
  165DOPC   H6Y20035   6.267   0.943  15.729 -0.9692 -2.1322  0.9552
  165DOPC   C3720036   6.405   0.939  15.567 -0.2764  0.0409  0.2464
  165DOPC   H7X20037   6.422   0.886  15.470  2.8936 -0.5182  0.9758
  165DOPC   H7Y20038   6.490   0.910  15.632  1.2462  2.1530 -0.6661
  165DOPC   C3820039   6.425   1.092  15.540  0.4001  0.8559 -0.0703
  165DOPC   H8X20040   6.325   1.130  15.510  0.5489  0.6484 -0.8365
  165DOPC   H8Y20041   6.498   1.113  15.459  2.1637  0.4804  1.3545
  165DOPC   C3920042   6.472   1.176  15.657  0.4457 -0.0752 -0.1163
  165DOPC   H9X20043   6.471   1.133  15.759  0.0641  0.7978  0.2537
  165DOPC  C31020044   6.500   1.312  15.648 -0.8429  0.8902  0.0125
  165DOPC  H10X20045   6.535   1.362  15.739  1.1284 -0.2790 -0.0559
  165DOPC  C31120046   6.490   1.399  15.530  0.4886  0.1075  0.4961
  165DOPC  H11X20047   6.424   1.351  15.455  1.1049  0.9111 -0.5764
  165DOPC  H11Y20048   6.593   1.411  15.491  0.7336  0.3065  1.1768
  165DOPC  C31220049   6.432   1.543  15.550  0.6022  0.5335  0.4002
  165DOPC  H12X20050   6.331   1.546  15.598  0.7108  2.8865  0.5636
  165DOPC  H12Y20051   6.433   1.596  15.453  4.4633 -0.0832 -0.0375
  165DOPC  C31320052   6.532   1.638  15.628  0.4054 -0.2728  0.6306
  165DOPC  H13X20053   6.464   1.722  15.655 -1.8573 -1.5037 -0.9481
  165DOPC  H13Y20054   6.567   1.593  15.724  1.5194 -1.0554 -0.1290
  165DOPC  C31420055   6.637   1.691  15.537 -0.0674  0.3511 -0.3317
  165DOPC  H14X20056   6.710   1.608  15.525  1.3004  1.3081  0.9681
  165DOPC  H14Y20057   6.590   1.714  15.439  1.0390  0.1829 -0.9180
  165DOPC  C31520058   6.711   1.805  15.604  0.1978  0.0845 -0.3899
  165DOPC  H15X20059   6.634   1.864  15.659  2.0023  2.5550 -0.3457
  165DOPC  H15Y20060   6.753   1.873  15.527 -0.4145 -1.2320 -1.9422
  165DOPC  C31620061   6.816   1.752  15.707 -0.0839  0.5375  0.0628
  165DOPC  H16X20062   6.778   1.665  15.766  0.5104  0.8570  0.9402
  165DOPC  H16Y20063   6.907   1.724  15.650 -0.2204 -0.0273  0.1177
  165DOPC  C31720064   6.861   1.868  15.797 -0.1621  0.1580  0.6957
  165DOPC  H17X20065   6.953   1.844  15.854  0.1110 -0.6131 -0.0514
  165DOPC  H17Y20066   6.890   1.952  15.730 -1.0095  0.1090  0.2459
  165DOPC  C31820067   6.760   1.912  15.905 -0.1798 -0.3260  0.3453
  165DOPC  H18X20068   6.704   2.006  15.884  1.4582 -0.0204 -3.4024
  165DOPC  H18Y20069   6.690   1.826  15.919  0.4057 -0.9003 -0.2080
  165DOPC  H18Z20070   6.815   1.932  16.000  0.5577 -2.9536  0.5416
  166DOPC     N20071   7.649   2.547  16.143 -0.1889 -0.3129  0.1187
  166DOPC   C1220072   7.735   2.454  16.232 -0.6809  0.4554 -0.1285
  166DOPC  H12A20073   7.668   2.379  16.272  1.7846 -0.9724  1.6338
  166DOPC  H12B20074   7.781   2.508  16.314  3.2062  0.2245 -1.9253
  166DOPC   C1320075   7.548   2.606  16.230 -0.5466 -0.7948 -0.0777
  166DOPC  H13A20076   7.477   2.667  16.177  0.9684 -0.1219 -1.4219
  166DOPC  H13B20077   7.493   2.548  16.304 -1.5503  1.7060  1.2644
  166DOPC  H13C20078   7.591   2.678  16.298 -0.9001  1.0797 -1.7802
  166DOPC   C1420079   7.576   2.465  16.035 -0.2920 -0.4778 -0.9065
  166DOPC  H14A20080   7.518   2.385  16.077 -0.2168 -0.0198  0.1037
  166DOPC  H14B20081   7.522   2.530  15.967  2.1481  1.0646 -1.5146
  166DOPC  H14C20082   7.656   2.414  15.983  1.3753  0.2422  0.8117
  166DOPC   C1520083   7.728   2.664  16.080 -0.1550  0.0557  0.5193
  166DOPC  H15A20084   7.672   2.705  15.998  0.6139  0.1702  0.0419
  166DOPC  H15B20085   7.826   2.631  16.047 -1.2652 -1.2015 -1.7230
  166DOPC  H15C20086   7.731   2.740  16.157  1.3443  1.1968 -0.6141
  166DOPC   C1120087   7.851   2.373  16.160 -0.7308  0.0101  0.5773
  166DOPC  H11A20088   7.921   2.455  16.131  1.3973 -1.9942 -0.2359
  166DOPC  H11B20089   7.911   2.312  16.231  1.7092  2.3297  0.6658
  166DOPC     P20090   7.725   2.162  16.078  0.4484  0.6424  0.0676
  166DOPC   O1320091   7.596   2.193  16.141 -0.2937  0.4217  0.3634
  166DOPC   O1420092   7.810   2.075  16.161  0.7583 -0.0815  0.5182
  166DOPC   O1220093   7.812   2.290  16.048  0.2027  0.3447 -0.1782
  166DOPC   O1120094   7.697   2.092  15.942  0.4642  0.5874  0.0128
  166DOPC    C120095   7.785   2.100  15.832 -0.3964 -0.3504  0.8069
  166DOPC    HA20096   7.884   2.065  15.870  1.0875  1.7831 -0.8472
  166DOPC    HB20097   7.781   2.199  15.784  0.9204 -0.0507  1.2528
  166DOPC    C220098   7.751   1.995  15.723 -0.2088  0.3735  0.1759
  166DOPC    HS20099   7.822   2.020  15.641  0.6772  0.1041  0.8569
  166DOPC   O2120100   7.616   2.005  15.679  0.3023  0.0669  0.0922
  166DOPC   C2120101   7.590   2.106  15.602 -0.3220  0.9107 -0.2149
  166DOPC   O2220102   7.680   2.184  15.569  0.2714  0.1144 -0.2352
  166DOPC   C2220103   7.446   2.117  15.567  0.0929 -0.7814 -0.0085
  166DOPC   H2R20104   7.386   2.144  15.656  1.1400  2.0828 -0.0728
  166DOPC   H2S20105   7.401   2.022  15.530  1.7045 -1.7403  0.3721
  166DOPC    C320106   7.780   1.849  15.764 -0.1134 -0.7808  0.5045
  166DOPC    HX20107   7.709   1.819  15.843 -0.1441  0.2446  0.8785
  166DOPC    HY20108   7.886   1.839  15.796 -0.0243  0.1994  0.5465
  166DOPC   O3120109   7.780   1.767  15.649 -0.3529  0.2076 -0.0717
  166DOPC   C3120110   7.717   1.656  15.653  0.9481 -0.7813  0.1136
  166DOPC   O3220111   7.671   1.599  15.749 -0.0830 -0.2248  0.1880
  166DOPC   C3220112   7.714   1.587  15.514  0.0500 -0.4004 -0.7784
  166DOPC   H2X20113   7.816   1.603  15.473  0.4023 -2.0073 -0.5826
  166DOPC   H2Y20114   7.725   1.479  15.534  4.4986  0.2189  1.4029
  166DOPC   C2320115   7.414   2.216  15.450  0.7417  0.2030  0.0884
  166DOPC   H3R20116   7.504   2.208  15.385  2.5769 -2.0087  2.6451
  166DOPC   H3S20117   7.416   2.318  15.496 -0.5575  1.0632 -1.6259
  166DOPC   C2420118   7.280   2.194  15.377  1.1774 -0.3224 -0.0779
  166DOPC   H4R20119   7.199   2.192  15.452  2.3016 -1.9420  1.1567
  166DOPC   H4S20120   7.288   2.102  15.314  1.9847  0.9691 -1.9840
  166DOPC   C2520121   7.250   2.317  15.290  0.3822  0.2428  0.4032
  166DOPC   H5R20122   7.263   2.404  15.358  0.1087  0.8598 -0.3221
  166DOPC   H5S20123   7.146   2.308  15.253  0.6616  0.3419 -0.4283
  166DOPC   C2620124   7.338   2.320  15.160  0.0633 -0.0337 -0.3389
  166DOPC   H6R20125   7.327   2.214  15.127 -0.1604  0.4510 -1.8771
  166DOPC   H6S20126   7.446   2.334  15.186  0.2524 -0.7270 -0.7206
  166DOPC   C2720127   7.284   2.423  15.061  0.7200 -0.2555  0.7067
  166DOPC   H7R20128   7.284   2.526  15.102 -1.3575  0.6553 -1.3673
  166DOPC   H7S20129   7.181   2.385  15.043  1.2327 -0.0993 -3.5183
  166DOPC   C2820130   7.340   2.421  14.918 -0.2368 -0.2572 -0.0232
  166DOPC   H8R20131   7.310   2.330  14.862  1.3542 -0.2909 -0.8916
  166DOPC   H8S20132   7.450   2.407  14.928  0.2739  0.3747 -3.3166
  166DOPC   C2920133   7.299   2.548  14.839 -0.2684 -0.6768 -0.2215
  166DOPC   H9R20134   7.342   2.636  14.890 -2.3010 -0.4640  1.2456
  166DOPC  C21020135   7.216   2.565  14.741  1.3945 -0.1403  0.9061
  166DOPC  H10R20136   7.207   2.667  14.699 -0.4005 -0.3449  0.7468
  166DOPC  C21120137   7.151   2.443  14.665 -0.1365 -0.5633  0.4108
  166DOPC  H11R20138   7.159   2.348  14.722 -0.1901 -1.0013 -0.2994
  166DOPC  H11S20139   7.205   2.422  14.570  0.5302  0.0923  0.6365
  166DOPC  C21220140   7.001   2.464  14.649  0.3976 -0.0477  0.1994
  166DOPC  H12R20141   6.988   2.540  14.569 -0.4981 -0.0372  0.3429
  166DOPC  H12S20142   6.960   2.478  14.751 -1.7826 -0.1545 -0.6168
  166DOPC  C21320143   6.927   2.342  14.592 -0.2976  0.9162 -0.2786
  166DOPC  H13R20144   6.899   2.262  14.665 -0.6568  0.2922 -1.0914
  166DOPC  H13S20145   6.981   2.295  14.507 -1.3715 -0.2839 -0.3295
  166DOPC  C21420146   6.791   2.384  14.534 -0.3089  0.3434  0.0055
  166DOPC  H14R20147   6.752   2.296  14.477  0.3572 -0.6212  1.0010
  166DOPC  H14S20148   6.817   2.466  14.464  1.3416  0.2094  0.4290
  166DOPC  C21520149   6.696   2.439  14.634 -0.2375  0.0190 -0.2073
  166DOPC  H15R20150   6.615   2.475  14.567  0.1483 -2.9786 -2.5020
  166DOPC  H15S20151   6.733   2.530  14.686 -0.7528 -0.4249  0.9533
  166DOPC  C21620152   6.624   2.347  14.722 -0.2090  1.4507 -0.3441
  166DOPC  H16R20153   6.685   2.295  14.799  0.7322 -1.3908 -2.8122
  166DOPC  H16S20154   6.585   2.256  14.671 -1.1478  0.9504  1.2049
  166DOPC  C21720155   6.513   2.411  14.805 -0.0581  0.1813 -0.1405
  166DOPC  H17R20156   6.471   2.494  14.745 -0.1139  0.8033  0.7593
  166DOPC  H17S20157   6.553   2.463  14.894  1.3322 -2.6000  1.0097
  166DOPC  C21820158   6.403   2.314  14.863  0.3394 -0.9237  0.0760
  166DOPC  H18R20159   6.340   2.374  14.933 -0.4066 -1.1766 -0.3670
  166DOPC  H18S20160   6.443   2.231  14.925 -0.5188 -0.1967  1.6727
  166DOPC  H18T20161   6.339   2.282  14.778 -1.2861 -0.1574  0.9693
  166DOPC   C3320162   7.590   1.595  15.429  0.0278 -0.5111 -0.9462
  166DOPC   H3X20163   7.513   1.567  15.503  2.6401 -0.4459  2.0409
  166DOPC   H3Y20164   7.597   1.515  15.352 -3.4163 -0.7896 -1.1143
  166DOPC   C3420165   7.574   1.737  15.368 -0.5401  0.1859  0.0428
  166DOPC   H4X20166   7.656   1.752  15.295 -0.3883  0.1909  0.2124
  166DOPC   H4Y20167   7.593   1.807  15.453 -0.3189  0.0070  0.1405
  166DOPC   C3520168   7.439   1.753  15.299  0.8982  0.6004 -0.0018
  166DOPC   H5X20169   7.445   1.680  15.216  1.6090 -0.3249  0.8458
  166DOPC   H5Y20170   7.434   1.857  15.259 -1.0237  0.8662  0.8010
  166DOPC   C3620171   7.307   1.717  15.381  0.4664 -0.6534 -0.0762
  166DOPC   H6X20172   7.309   1.610  15.410 -0.1928 -0.6640 -0.0448
  166DOPC   H6Y20173   7.306   1.772  15.478 -4.1356 -0.5532  0.0725
  166DOPC   C3720174   7.172   1.761  15.320  0.1854  0.1509  0.4698
  166DOPC   H7X20175   7.097   1.739  15.398  0.2352 -2.2647 -0.0856
  166DOPC   H7Y20176   7.165   1.870  15.298 -0.6238 -0.0716 -0.4663
  166DOPC   C3820177   7.148   1.678  15.197 -0.8012  0.2666 -0.3245
  166DOPC   H8X20178   7.165   1.570  15.217 -0.1090  0.4210 -0.0307
  166DOPC   H8Y20179   7.229   1.700  15.124 -0.4059 -1.0234 -0.3070
  166DOPC   C3920180   7.012   1.700  15.151 -0.9165  0.6719  0.2114
  166DOPC   H9X20181   6.942   1.651  15.222  1.4076 -2.3733  0.6226
  166DOPC  C31020182   6.970   1.775  15.045 -0.4230 -0.1299 -0.1358
  166DOPC  H10X20183   6.862   1.795  15.047 -0.4168 -0.1301  0.5270
  166DOPC  C31120184   7.046   1.847  14.935 -0.4110 -0.3438  0.5423
  166DOPC  H11X20185   7.004   1.829  14.834 -0.3822 -2.9504  0.9149
  166DOPC  H11Y20186   7.152   1.813  14.940 -0.3346 -0.1338  0.3361
  166DOPC  C31220187   7.070   2.001  14.956 -1.3854 -0.3481 -0.5854
  166DOPC  H12X20188   7.125   2.046  14.871  0.7556 -1.7876 -0.0436
  166DOPC  H12Y20189   7.137   2.010  15.043  0.6186 -1.5545 -1.9259
  166DOPC  C31320190   6.946   2.095  14.972  0.1755  0.3416 -0.1978
  166DOPC  H13X20191   6.967   2.203  14.986 -0.4692  0.2486  1.6862
  166DOPC  H13Y20192   6.890   2.092  14.875  0.1594 -0.0855 -0.1782
  166DOPC  C31420193   6.842   2.058  15.080 -0.1643 -0.7290  0.3526
  166DOPC  H14X20194   6.759   1.998  15.037 -1.9111 -0.1441  2.6866
  166DOPC  H14Y20195   6.881   1.985  15.154 -1.5136 -1.9772 -0.1140
  166DOPC  C31520196   6.777   2.177  15.142 -0.1497 -0.8637 -0.4372
  166DOPC  H15X20197   6.754   2.248  15.059  0.5139 -2.0348 -1.6679
  166DOPC  H15Y20198   6.847   2.238  15.203  0.3711 -1.5306 -0.3639
  166DOPC  C31620199   6.647   2.140  15.214 -0.3153  0.3135  0.6426
  166DOPC  H16X20200   6.561   2.136  15.143 -0.2954 -0.4546  0.6617
  166DOPC  H16Y20201   6.658   2.042  15.264  2.0537  1.4499  2.5553
  166DOPC  C31720202   6.613   2.246  15.317 -0.1676  0.6478 -0.5188
  166DOPC  H17X20203   6.557   2.191  15.396  0.3663  0.3835 -0.3165
  166DOPC  H17Y20204   6.701   2.297  15.363 -0.8809  2.2325 -0.8412
  166DOPC  C31820205   6.533   2.363  15.266  0.1989  1.1655 -0.1119
  166DOPC  H18X20206   6.497   2.420  15.353 -0.8904  0.6922 -0.2367
  166DOPC  H18Y20207   6.601   2.422  15.201  1.0086  0.0459 -0.3379
  166DOPC  H18Z20208   6.444   2.337  15.206 -0.7651 -0.0300  1.7458
  167DOPC     N20209   6.878   1.299  16.653  0.5216  0.5203 -0.9107
  167DOPC   C1220210   6.969   1.283  16.535 -0.4255 -0.2604 -0.1715
  167DOPC  H12A20211   7.018   1.186  16.536  1.1912  0.5221  0.6043
  167DOPC  H12B20212   7.050   1.354  16.543  2.2829 -3.0100 -1.0424
  167DOPC   C1320213   6.838   1.442  16.677 -0.2730 -0.2737 -0.4578
  167DOPC  H13A20214   6.787   1.484  16.592 -1.8367  0.1923  0.6829
  167DOPC  H13B20215   6.779   1.462  16.765  0.9246  0.3260  0.2343
  167DOPC  H13C20216   6.922   1.508  16.697 -0.7200  0.4143 -0.8188
  167DOPC   C1420217   6.934   1.244  16.784 -0.2556 -0.4557 -0.1028
  167DOPC  H14A20218   6.978   1.147  16.772  0.6657 -0.3018  1.6761
  167DOPC  H14B20219   7.006   1.317  16.817  1.6824 -0.8159 -3.1617
  167DOPC  H14C20220   6.859   1.245  16.862  0.6846  1.3413  0.8581
  167DOPC   C1520221   6.748   1.227  16.628  0.6260 -0.2105 -0.4663
  167DOPC  H15A20222   6.674   1.247  16.704  0.3217 -0.1675 -0.7675
  167DOPC  H15B20223   6.760   1.121  16.611 -0.7238 -0.7895  1.7671
  167DOPC  H15C20224   6.709   1.268  16.535 -0.2268  1.3180  0.5228
  167DOPC   C1120225   6.911   1.305  16.391 -0.1298 -0.6329  0.1840
  167DOPC  H11A20226   6.986   1.280  16.312  1.9657  0.4027  1.7398
  167DOPC  H11B20227   6.827   1.237  16.367 -0.6188  0.4151 -1.1489
  167DOPC     P20228   6.969   1.563  16.348 -0.2419 -0.1576  0.3630
  167DOPC   O1320229   7.095   1.548  16.423  0.1783  0.6390 -0.1617
  167DOPC   O1420230   6.887   1.685  16.382  0.0793  0.4641 -0.6635
  167DOPC   O1220231   6.872   1.441  16.370 -0.3759  0.0396 -0.1590
  167DOPC   O1120232   7.001   1.574  16.195 -0.0029  0.3219 -0.4321
  167DOPC    C120233   6.898   1.590  16.099 -0.3146 -0.0220  0.9505
  167DOPC    HA20234   6.921   1.688  16.052  2.0169 -1.6234 -1.4997
  167DOPC    HB20235   6.801   1.595  16.153  0.5833  0.4225  2.5945
  167DOPC    C220236   6.908   1.483  15.998  0.0454  0.7642 -0.4842
  167DOPC    HS20237   6.963   1.403  16.053 -1.4815  0.8769  1.3203
  167DOPC   O2120238   6.983   1.534  15.885  0.3208 -0.1749 -0.3859
  167DOPC   C2120239   7.103   1.478  15.866 -0.0345  0.2069 -0.6152
  167DOPC   O2220240   7.149   1.388  15.933 -0.1004 -0.5103 -0.0331
  167DOPC   C2220241   7.171   1.537  15.740 -0.3084  0.7047  0.2270
  167DOPC   H2R20242   7.279   1.539  15.762 -0.5771 -0.5636  1.8478
  167DOPC   H2S20243   7.130   1.638  15.719  1.5174  1.4763  0.2561
  167DOPC    C320244   6.776   1.420  15.956  0.5844 -0.2117 -0.4199
  167DOPC    HX20245   6.721   1.494  15.894 -0.4077 -1.3195 -0.9005
  167DOPC    HY20246   6.703   1.395  16.035 -0.6099  0.3690 -1.3084
  167DOPC   O3120247   6.802   1.301  15.871  0.4562  0.0427  0.8159
  167DOPC   C3120248   6.825   1.185  15.936 -0.9289  0.1226 -0.3404
  167DOPC   O3220249   6.823   1.177  16.058 -0.2106  0.1379 -1.1602
  167DOPC   C3220250   6.841   1.066  15.847 -0.5808 -0.2028 -0.1153
  167DOPC   H2X20251   6.923   1.004  15.888  1.3128  1.4636 -1.2071
  167DOPC   H2Y20252   6.754   0.998  15.849  0.1550 -1.1683 -0.3678
  167DOPC   C2320253   7.149   1.439  15.619 -0.5347  0.0051  0.3561
  167DOPC   H3R20254   7.152   1.337  15.663 -1.3220  0.5730  1.8033
  167DOPC   H3S20255   7.228   1.451  15.542 -0.6536  2.2219  0.4974
  167DOPC   C2420256   7.012   1.448  15.548  0.1256  0.0346  0.4587
  167DOPC   H4R20257   7.006   1.542  15.489 -3.8105  1.0390  2.1583
  167DOPC   H4S20258   6.932   1.455  15.625 -0.0291 -1.8686  0.5241
  167DOPC   C2520259   6.987   1.333  15.444 -0.4748 -0.1811  0.2054
  167DOPC   H5R20260   6.978   1.230  15.486 -0.4533  0.3352  1.5069
  167DOPC   H5S20261   7.067   1.327  15.367  0.1379  0.7282  0.7549
  167DOPC   C2620262   6.868   1.373  15.358 -0.2949  0.1132 -0.2502
  167DOPC   H6R20263   6.891   1.476  15.324 -0.7038 -0.0547 -1.0655
  167DOPC   H6S20264   6.785   1.372  15.431  0.1582  0.1376  0.2659
  167DOPC   C2720265   6.831   1.295  15.234  0.0650 -0.1850 -0.3940
  167DOPC   H7R20266   6.772   1.205  15.263 -0.9336 -0.0173 -1.8204
  167DOPC   H7S20267   6.924   1.259  15.186 -0.6792 -2.3857 -0.3126
  167DOPC   C2820268   6.757   1.384  15.132  0.7415 -0.0826 -0.4768
  167DOPC   H8R20269   6.767   1.330  15.036  1.9788  2.3293 -1.7775
  167DOPC   H8S20270   6.812   1.480  15.128  1.2777 -0.3810 -0.4265
  167DOPC   C2920271   6.616   1.407  15.173 -0.3472 -0.2407 -0.9833
  167DOPC   H9R20272   6.602   1.395  15.282 -1.8089  1.9110 -0.8770
  167DOPC  C21020273   6.506   1.424  15.099  0.0953  0.0200  0.3998
  167DOPC  H10R20274   6.405   1.427  15.143 -0.7311 -3.1094 -1.0609
  167DOPC  C21120275   6.506   1.445  14.948  0.2386  0.5760 -0.3205
  167DOPC  H11R20276   6.602   1.478  14.902 -0.0972  0.3364 -1.2124
  167DOPC  H11S20277   6.425   1.517  14.926 -2.1711 -1.7688  0.2664
  167DOPC  C21220278   6.449   1.318  14.878 -0.6631  0.3604  0.0216
  167DOPC  H12R20279   6.526   1.237  14.881 -0.2166  0.5245 -3.2769
  167DOPC  H12S20280   6.352   1.298  14.927 -0.3090  0.6336  0.8472
  167DOPC  C21320281   6.426   1.332  14.724 -0.4141 -0.1822 -0.3186
  167DOPC  H13R20282   6.435   1.232  14.676 -2.0456 -0.0858 -0.8938
  167DOPC  H13S20283   6.509   1.395  14.686  0.3834 -1.5925 -1.0097
  167DOPC  C21420284   6.296   1.400  14.689  0.1397 -0.1184 -0.0691
  167DOPC  H14R20285   6.311   1.508  14.709  1.6760  0.2048 -2.6462
  167DOPC  H14S20286   6.213   1.366  14.755  0.2865 -1.5784 -0.6002
  167DOPC  C21520287   6.251   1.389  14.541  0.0210 -0.1862 -0.5333
  167DOPC  H15R20288   6.324   1.426  14.466  1.5584 -0.2135  0.9027
  167DOPC  H15S20289   6.158   1.450  14.530 -0.3126 -0.9539 -2.2762
  167DOPC  C21620290   6.222   1.244  14.492  1.1913  0.2490 -0.0836
  167DOPC  H16R20291   6.146   1.202  14.562  2.0933  1.0790  1.4396
  167DOPC  H16S20292   6.312   1.185  14.518 -0.6016 -2.1849  1.1224
  167DOPC  C21720293   6.167   1.234  14.349 -0.4854 -0.0371 -0.0475
  167DOPC  H17R20294   6.075   1.297  14.346 -0.4213  0.0541 -0.1227
  167DOPC  H17S20295   6.128   1.137  14.312 -1.2576  1.2801 -3.0233
  167DOPC  C21820296   6.253   1.283  14.233 -0.6144  0.0149  0.3936
  167DOPC  H18R20297   6.343   1.220  14.217 -1.3444 -0.5159 -1.9237
  167DOPC  H18S20298   6.286   1.389  14.246  0.1409 -0.2087  0.3554
  167DOPC  H18T20299   6.198   1.274  14.137  2.5017  0.2257 -1.5564
  167DOPC   C3320300   6.882   1.100  15.701 -0.4451 -0.2703 -0.9367
  167DOPC   H3X20301   6.966   1.173  15.710 -0.0544 -0.8439  0.2098
  167DOPC   H3Y20302   6.796   1.150  15.652  0.9404  1.3466 -1.8295
  167DOPC   C3420303   6.938   0.979  15.634  0.5781 -0.0888 -0.2659
  167DOPC   H4X20304   6.984   0.921  15.717 -0.9267 -0.3078  0.4480
  167DOPC   H4Y20305   7.024   0.989  15.564  0.0740 -1.5986 -1.1513
  167DOPC   C3520306   6.836   0.887  15.559  0.2523 -0.6336  0.0106
  167DOPC   H5X20307   6.748   0.864  15.623 -1.3333  0.6837 -1.5471
  167DOPC   H5Y20308   6.887   0.792  15.534  2.0525 -0.0567  1.3423
  167DOPC   C3620309   6.783   0.942  15.426 -0.2986  0.5153  0.5418
  167DOPC   H6X20310   6.686   0.995  15.441  0.3058  1.7854  0.0883
  167DOPC   H6Y20311   6.844   1.025  15.386  0.3352  0.4577  1.3724
  167DOPC   C3720312   6.762   0.828  15.318 -0.2498 -0.0247  0.0279
  167DOPC   H7X20313   6.859   0.800  15.272  0.1331  2.3228 -0.7357
  167DOPC   H7Y20314   6.724   0.735  15.366 -0.7324  0.1724  0.0271
  167DOPC   C3820315   6.669   0.850  15.197  0.1239 -0.1095  0.2946
  167DOPC   H8X20316   6.564   0.877  15.220  0.2253  0.7945 -0.2351
  167DOPC   H8Y20317   6.675   0.757  15.137 -0.1903 -0.2112  0.4206
  167DOPC   C3920318   6.724   0.953  15.107 -0.8704 -0.0187 -0.8311
  167DOPC   H9X20319   6.786   1.033  15.152  1.7507 -2.1722 -0.3772
  167DOPC  C31020320   6.714   0.954  14.971 -0.1691  0.7095 -0.2140
  167DOPC  H10X20321   6.770   1.030  14.915  1.9940  1.9146  3.3080
  167DOPC  C31120322   6.639   0.860  14.884 -0.0089 -0.1647  0.2092
  167DOPC  H11X20323   6.590   0.921  14.806 -0.4987  2.2536  2.2553
  167DOPC  H11Y20324   6.556   0.817  14.945 -0.9909 -0.4729 -1.3140
  167DOPC  C31220325   6.722   0.743  14.837  0.3406  0.0005  1.0170
  167DOPC  H12X20326   6.771   0.700  14.927  1.8583 -1.5991 -0.4903
  167DOPC  H12Y20327   6.797   0.776  14.761 -2.3313  0.0394 -1.7648
  167DOPC  C31320328   6.634   0.641  14.760 -0.0150  0.3085 -0.3651
  167DOPC  H13X20329   6.567   0.596  14.836  1.8401  0.9329  1.7133
  167DOPC  H13Y20330   6.560   0.683  14.688 -1.2455 -2.0938 -0.6154
  167DOPC  C31420331   6.717   0.529  14.698 -0.0227 -0.2571  0.1196
  167DOPC  H14X20332   6.807   0.578  14.656 -0.0591  1.5382  1.9524
  167DOPC  H14Y20333   6.758   0.465  14.779 -0.2113  0.2113  0.5975
  167DOPC  C31520334   6.649   0.440  14.598  0.2194  0.4741  0.3620
  167DOPC  H15X20335   6.571   0.381  14.651 -0.8091  0.2582 -1.3122
  167DOPC  H15Y20336   6.725   0.368  14.561  1.0150 -0.2084  3.0828
  167DOPC  C31620337   6.591   0.525  14.480 -0.9006  0.7056  0.3299
  167DOPC  H16X20338   6.524   0.606  14.514 -2.9618 -0.3975 -0.8773
  167DOPC  H16Y20339   6.680   0.559  14.421 -0.7279 -0.4521 -0.1142
  167DOPC  C31720340   6.504   0.449  14.373  0.2944  0.2978 -0.4058
  167DOPC  H17X20341   6.498   0.520  14.288  3.2729  0.0634 -0.9192
  167DOPC  H17Y20342   6.565   0.364  14.336  0.4865  0.3775 -0.2784
  167DOPC  C31820343   6.360   0.405  14.419 -0.0132 -0.6288 -0.5347
  167DOPC  H18X20344   6.308   0.498  14.451 -2.2948 -2.4182  1.3925
  167DOPC  H18Y20345   6.302   0.346  14.344  0.0179 -1.7800  0.3096
  167DOPC  H18Z20346   6.374   0.337  14.506  2.3730  0.0576 -0.3213
  168DOPC     N20347   2.373   0.583  16.350  0.1055 -0.4128 -0.4603
  168DOPC   C1220348   2.220   0.564  16.344 -0.9621  0.4719 -0.5530
  168DOPC  H12A20349   2.171   0.579  16.439 -0.0787  0.2475 -0.0616
  168DOPC  H12B20350   2.210   0.462  16.312  3.4707 -0.7192  1.1191
  168DOPC   C1320351   2.436   0.549  16.224  0.1189 -0.6824 -0.0646
  168DOPC  H13A20352   2.431   0.443  16.203  1.9245 -0.9514  0.6822
  168DOPC  H13B20353   2.407   0.608  16.138 -1.0428  2.3893  2.2836
  168DOPC  H13C20354   2.541   0.572  16.233 -0.1688  0.1133  1.4453
  168DOPC   C1420355   2.432   0.492  16.454  0.7449  0.1836 -0.1933
  168DOPC  H14A20356   2.389   0.500  16.552  3.9768  1.8093  1.2744
  168DOPC  H14B20357   2.426   0.388  16.428 -1.1773  0.3655 -0.5743
  168DOPC  H14C20358   2.537   0.517  16.466  0.8880  0.2277 -1.3371
  168DOPC   C1520359   2.405   0.725  16.370  0.2957 -0.0461  0.0919
  168DOPC  H15A20360   2.511   0.744  16.372  0.4962 -0.7888 -1.8039
  168DOPC  H15B20361   2.353   0.763  16.457  1.8346 -1.5306  1.7472
  168DOPC  H15C20362   2.359   0.776  16.287 -2.2957  1.3164  2.2095
  168DOPC   C1120363   2.144   0.657  16.240  0.9508  0.9184 -0.4342
  168DOPC  H11A20364   2.180   0.637  16.137 -1.8176 -0.5782 -1.2227
  168DOPC  H11B20365   2.040   0.617  16.246  1.5565 -0.8486 -1.0450
  168DOPC     P20366   2.040   0.893  16.233 -0.0465 -0.2822 -0.0324
  168DOPC   O1320367   2.093   1.026  16.262  0.4814 -0.1851 -0.0959
  168DOPC   O1420368   1.917   0.867  16.309 -0.3290  0.1048 -0.0664
  168DOPC   O1220369   2.159   0.793  16.268  0.7168  0.3640  0.0269
  168DOPC   O1120370   2.015   0.873  16.079 -0.1722  0.5841  0.0892
  168DOPC    C120371   1.896   0.815  16.024 -0.2229 -1.0803 -0.0158
  168DOPC    HA20372   1.827   0.897  15.993  0.2817 -0.3222  0.8200
  168DOPC    HB20373   1.841   0.755  16.099 -0.4963  1.3088  1.8180
  168DOPC    C220374   1.928   0.725  15.902 -0.2559  0.4183  0.1736
  168DOPC    HS20375   1.828   0.703  15.859 -0.1478 -0.8144  0.5352
  168DOPC   O2120376   1.997   0.607  15.946  0.7150 -0.0137 -0.6843
  168DOPC   C2120377   1.914   0.527  16.014 -0.3742  0.0466 -0.0831
  168DOPC   O2220378   1.793   0.547  16.030 -0.5877  0.3471  0.8274
  168DOPC   C2220379   1.988   0.408  16.064 -0.5606 -0.2371 -0.4584
  168DOPC   H2R20380   1.971   0.387  16.172  0.2791  1.9735  0.1604
  168DOPC   H2S20381   2.097   0.430  16.063 -0.0963 -2.3434 -0.3092
  168DOPC    C320382   2.000   0.795  15.784  0.0570  0.2727  0.4453
  168DOPC    HX20383   2.100   0.827  15.818  0.4253 -0.3552 -0.0193
  168DOPC    HY20384   1.943   0.887  15.761 -0.2765  0.1993  0.9612
  168DOPC   O3120385   1.996   0.702  15.674 -0.8712  0.4994 -0.6133
  168DOPC   C3120386   2.092   0.720  15.585  0.3285  0.0576 -0.9927
  168DOPC   O3220387   2.186   0.797  15.600  0.6603  0.0080 -0.2615
  168DOPC   C3220388   2.072   0.631  15.466  0.3733 -0.0090  0.4798
  168DOPC   H2X20389   2.163   0.578  15.432 -1.4741 -1.8499 -1.9560
  168DOPC   H2Y20390   2.008   0.544  15.493  0.0741 -0.2271 -0.8335
  168DOPC   C2320391   1.949   0.274  15.995 -0.0362  0.1297  0.7051
  168DOPC   H3R20392   1.839   0.268  15.982  0.1478  1.4110 -2.7348
  168DOPC   H3S20393   1.982   0.188  16.058 -1.0738 -0.2565  0.7334
  168DOPC   C2420394   1.997   0.256  15.851 -0.0950 -0.5109  0.5605
  168DOPC   H4R20395   2.087   0.197  15.824 -0.4123 -0.3000 -1.0917
  168DOPC   H4S20396   2.017   0.360  15.816  0.5306 -0.5634  0.7613
  168DOPC   C2520397   1.888   0.199  15.754  0.0577 -0.5002  0.0508
  168DOPC   H5R20398   1.797   0.263  15.756 -0.6637 -1.4369 -1.2022
  168DOPC   H5S20399   1.847   0.103  15.792 -0.0729 -0.8659 -0.9709
  168DOPC   C2620400   1.935   0.188  15.613 -0.8851  0.0800 -0.4660
  168DOPC   H6R20401   2.024   0.122  15.601 -0.0131  1.5252 -2.5789
  168DOPC   H6S20402   1.956   0.291  15.579 -0.9869  0.8855  1.7573
  168DOPC   C2720403   1.835   0.128  15.511 -0.1289  0.8469  0.1287
  168DOPC   H7R20404   1.732   0.168  15.515  0.3858  2.1315  1.1600
  168DOPC   H7S20405   1.832   0.017  15.517 -0.3124  0.8198 -0.4006
  168DOPC   C2820406   1.883   0.166  15.373  0.4726  0.5757  0.5607
  168DOPC   H8R20407   1.992   0.146  15.362  0.0766 -2.7865  1.7200
  168DOPC   H8S20408   1.882   0.276  15.355  1.1714  0.4467 -0.3678
  168DOPC   C2920409   1.804   0.103  15.265 -0.7791  0.0678 -0.4614
  168DOPC   H9R20410   1.716   0.047  15.300 -0.7134 -0.5911 -1.2914
  168DOPC  C21020411   1.830   0.117  15.135  0.0043  0.6467  0.1632
  168DOPC  H10R20412   1.769   0.054  15.069  0.8170 -0.7584  0.6931
  168DOPC  C21120413   1.949   0.192  15.073 -0.0389  0.1925  0.4875
  168DOPC  H11R20414   2.003   0.124  15.004 -0.0458  2.0901 -1.5018
  168DOPC  H11S20415   2.012   0.245  15.149 -2.2742 -0.5198  2.9898
  168DOPC  C21220416   1.897   0.294  14.967  0.5700  0.1427  0.5962
  168DOPC  H12R20417   1.991   0.349  14.947  0.2465  0.3167 -0.5366
  168DOPC  H12S20418   1.821   0.365  15.006  1.4551  0.6694  1.3907
  168DOPC  C21320419   1.848   0.234  14.831  0.0013  0.2545 -0.6808
  168DOPC  H13R20420   1.804   0.316  14.770  0.9936  1.7583  0.5432
  168DOPC  H13S20421   1.760   0.176  14.865  0.9738 -0.1042  1.3900
  168DOPC  C21420422   1.955   0.147  14.766 -0.7554  0.1366  0.3268
  168DOPC  H14R20423   1.907   0.120  14.670  2.1925  2.2319 -1.9322
  168DOPC  H14S20424   1.972   0.048  14.814 -1.7209 -0.4617 -0.5289
  168DOPC  C21520425   2.078   0.228  14.729  0.1971 -0.4025 -0.4971
  168DOPC  H15R20426   2.142   0.249  14.818  0.2394  1.1688 -0.8664
  168DOPC  H15S20427   2.048   0.324  14.684 -0.5407 -1.1771 -1.6869
  168DOPC  C21620428   2.161   0.145  14.626  0.1746 -0.2443 -0.0663
  168DOPC  H16R20429   2.093   0.130  14.539 -0.6875  3.4256 -0.1729
  168DOPC  H16S20430   2.194   0.055  14.682 -0.1392  0.5168  1.3833
  168DOPC  C21720431   2.282   0.216  14.572  0.7067 -0.2605 -0.2756
  168DOPC  H17R20432   2.351   0.239  14.656 -1.5278  0.1311  1.5466
  168DOPC  H17S20433   2.238   0.311  14.535  2.1951 -1.4295 -6.0246
  168DOPC  C21820434   2.356   0.137  14.467  0.3075 -0.2327  0.8782
  168DOPC  H18R20435   2.423   0.066  14.519  0.5877 -0.2286  0.5320
  168DOPC  H18S20436   2.417   0.206  14.405 -2.6265  2.4332  0.6887
  168DOPC  H18T20437   2.273   0.096  14.405 -0.4792 -0.1595  1.8704
  168DOPC   C3320438   2.000   0.709  15.356  0.9912 -0.4409 -0.5702
  168DOPC   H3X20439   2.056   0.801  15.329 -2.2414  2.2447  1.2242
  168DOPC   H3Y20440   1.909   0.754  15.400  0.7703 -1.1097 -0.3254
  168DOPC   C3420441   1.947   0.631  15.240 -0.0467 -0.4768  0.9067
  168DOPC   H4X20442   1.918   0.526  15.262 -1.2915 -0.3260  0.0830
  168DOPC   H4Y20443   2.032   0.614  15.171 -0.7638  0.5146 -0.2609
  168DOPC   C3520444   1.834   0.710  15.172 -0.1435 -0.2437 -0.3623
  168DOPC   H5X20445   1.853   0.819  15.161  0.3500 -0.2726  0.2141
  168DOPC   H5Y20446   1.737   0.704  15.226 -1.1306  2.0416 -1.7417
  168DOPC   C3620447   1.802   0.652  15.036  0.4215  0.6151  0.2415
  168DOPC   H6X20448   1.894   0.616  14.986  0.9300  1.3735  0.6046
  168DOPC   H6Y20449   1.741   0.561  15.049 -0.3089  0.3862 -3.5989
  168DOPC   C3720450   1.723   0.731  14.938  0.0225  0.4364 -0.5520
  168DOPC   H7X20451   1.628   0.753  14.990 -0.1387  2.3840 -1.5689
  168DOPC   H7Y20452   1.776   0.822  14.901  0.8241 -0.3020 -1.2685
  168DOPC   C3820453   1.692   0.661  14.804 -0.9973 -0.0274 -0.0287
  168DOPC   H8X20454   1.630   0.569  14.814  1.6797 -2.4161 -3.3806
  168DOPC   H8Y20455   1.773   0.624  14.738 -1.6381  1.0089 -1.4634
  168DOPC   C3920456   1.617   0.755  14.711  0.4125  0.3305  0.3830
  168DOPC   H9X20457   1.560   0.834  14.763 -0.8731 -1.7363  2.3095
  168DOPC  C31020458   1.617   0.746  14.575  0.8944  0.1534 -0.4756
  168DOPC  H10X20459   1.560   0.823  14.521 -1.3499 -1.4626 -0.5538
  168DOPC  C31120460   1.680   0.632  14.493  0.0450 -0.3938 -0.4762
  168DOPC  H11X20461   1.631   0.537  14.523 -2.4051  0.1599 -2.3460
  168DOPC  H11Y20462   1.781   0.611  14.534 -1.3535 -3.3822  1.8262
  168DOPC  C31220463   1.681   0.643  14.338 -0.4192 -0.4895  0.3600
  168DOPC  H12X20464   1.582   0.635  14.289 -0.1648  1.0137 -0.4579
  168DOPC  H12Y20465   1.725   0.550  14.296  0.4743 -0.1549  0.5253
  168DOPC  C31320466   1.763   0.776  14.301 -0.3937  0.1127  0.2369
  168DOPC  H13X20467   1.712   0.853  14.361 -2.2789  0.9514 -2.2472
  168DOPC  H13Y20468   1.871   0.756  14.320 -0.3029 -1.8251 -1.7422
  168DOPC  C31420469   1.754   0.813  14.156 -0.3047  0.2812 -0.7667
  168DOPC  H14X20470   1.817   0.901  14.132  0.4346  0.3518  1.2626
  168DOPC  H14Y20471   1.786   0.719  14.107  1.4123  1.1458 -1.3908
  168DOPC  C31520472   1.607   0.852  14.115 -0.2235 -0.4306 -0.1196
  168DOPC  H15X20473   1.580   0.949  14.161 -0.4886 -1.5930  2.3575
  168DOPC  H15Y20474   1.535   0.772  14.143  0.2448 -1.1438 -0.9310
  168DOPC  C31620475   1.603   0.867  13.965 -0.2188  0.2039 -0.2582
  168DOPC  H16X20476   1.661   0.956  13.933  1.7967 -0.7740  0.5239
  168DOPC  H16Y20477   1.651   0.781  13.914  0.5030 -0.1260  0.9626
  168DOPC  C31720478   1.464   0.882  13.912  0.6645 -0.1052  0.0399
  168DOPC  H17X20479   1.413   0.783  13.909 -1.7134  1.0566 -1.7934
  168DOPC  H17Y20480   1.405   0.939  13.987 -1.6429 -0.1132 -1.6632
  168DOPC  C31820481   1.459   0.957  13.780  0.0348  0.1336 -0.4715
  168DOPC  H18X20482   1.504   1.055  13.804  0.1325 -0.3623  1.4771
  168DOPC  H18Y20483   1.513   0.904  13.698  0.1019 -0.3416 -0.1243
  168DOPC  H18Z20484   1.357   0.983  13.746 -0.2125 -1.0647 -0.7043
  169DOPC     N20485   0.328   1.357  16.298  0.5116 -0.1199 -0.2907
  169DOPC   C1220486   0.257   1.234  16.253 -0.3697 -0.2723  0.5402
  169DOPC  H12A20487   0.155   1.263  16.232  0.0949  0.5172 -0.7151
  169DOPC  H12B20488   0.259   1.158  16.329  0.0059  0.3035  1.1221
  169DOPC   C1320489   0.297   1.475  16.208  0.8638  0.8129  0.4577
  169DOPC  H13A20490   0.345   1.562  16.249 -1.4313  1.6567  1.5007
  169DOPC  H13B20491   0.332   1.468  16.106  2.8792 -1.1994  1.2088
  169DOPC  H13C20492   0.192   1.499  16.202  0.3301 -1.4281 -0.6398
  169DOPC   C1420493   0.472   1.341  16.310  0.4157  0.2244 -0.1372
  169DOPC  H14A20494   0.496   1.314  16.209 -2.1731 -1.2413 -0.4627
  169DOPC  H14B20495   0.518   1.432  16.344  0.2880  0.1793  0.1644
  169DOPC  H14C20496   0.507   1.258  16.370  1.4805  0.9119  0.2270
  169DOPC   C1520497   0.272   1.399  16.433 -0.5997  0.4884  0.4435
  169DOPC  H15A20498   0.340   1.458  16.493 -0.0439  0.4228 -0.1126
  169DOPC  H15B20499   0.256   1.308  16.489 -1.5908 -0.8064 -1.8338
  169DOPC  H15C20500   0.180   1.456  16.425 -0.8332 -0.0660 -1.0211
  169DOPC   C1120501   0.324   1.166  16.131  0.3630  0.1438  0.4264
  169DOPC  H11A20502   0.249   1.110  16.070 -1.1438  0.2973  2.0682
  169DOPC  H11B20503   0.369   1.239  16.060 -1.2595  0.2136 -0.5789
  169DOPC     P20504   0.389   0.955  16.273 -0.1092 -0.1459 -0.1813
  169DOPC   O1320505   0.267   0.884  16.225  0.3720  0.0892 -0.6546
  169DOPC   O1420506   0.382   1.022  16.403  0.8234  0.5246  0.0707
  169DOPC   O1220507   0.424   1.075  16.180 -0.0582  0.6960  0.5884
  169DOPC   O1120508   0.511   0.854  16.267  0.0167 -0.0117 -0.8366
  169DOPC    C120509   0.640   0.895  16.215  0.1566 -0.3492  0.2754
  169DOPC    HA20510   0.706   0.857  16.296  0.2269 -1.0771 -0.1175
  169DOPC    HB20511   0.659   1.003  16.195  4.3095 -0.9643 -0.0244
  169DOPC    C220512   0.669   0.834  16.076  0.1662 -0.0304  0.7170
  169DOPC    HS20513   0.757   0.878  16.025 -0.6152  1.2427  0.4247
  169DOPC   O2120514   0.559   0.847  15.992 -0.4649  0.3027 -0.0293
  169DOPC   C2120515   0.542   0.962  15.933 -0.4838 -0.5315  0.2000
  169DOPC   O2220516   0.617   1.061  15.945 -0.2342 -0.2072 -0.0494
  169DOPC   C2220517   0.424   0.948  15.838  0.0394 -0.0482  0.1608
  169DOPC   H2R20518   0.424   1.038  15.773  2.1926 -0.5318 -0.5876
  169DOPC   H2S20519   0.332   0.941  15.901  1.4385  0.2043  2.3201
  169DOPC    C320520   0.702   0.688  16.087 -0.4867  0.8804 -0.0812
  169DOPC    HX20521   0.617   0.632  16.131 -0.3152  1.3804  0.9368
  169DOPC    HY20522   0.793   0.672  16.150 -0.5035  3.1446  0.5995
  169DOPC   O3120523   0.737   0.631  15.960 -0.0982 -0.0254 -0.1401
  169DOPC   C3120524   0.703   0.506  15.924 -0.0134 -0.2323  0.7542
  169DOPC   O3220525   0.654   0.425  16.001  0.0450 -0.1699  0.1032
  169DOPC   C3220526   0.735   0.495  15.782 -0.1141  0.8277  0.0271
  169DOPC   H2X20527   0.657   0.531  15.712  0.5143 -0.6485 -1.5168
  169DOPC   H2Y20528   0.824   0.551  15.747  1.1807  0.3220  2.3271
  169DOPC   C2320529   0.443   0.831  15.742  0.9744 -0.2364 -0.0082
  169DOPC   H3R20530   0.362   0.834  15.666  1.3802  0.6333 -0.4165
  169DOPC   H3S20531   0.440   0.731  15.791 -1.2442  0.7740  2.1693
  169DOPC   C2420532   0.570   0.844  15.667 -0.1571  0.1157 -0.1975
  169DOPC   H4R20533   0.655   0.820  15.735  0.7032  1.6120 -0.7012
  169DOPC   H4S20534   0.591   0.947  15.631  1.1488 -0.4338 -1.1122
  169DOPC   C2520535   0.580   0.745  15.550  0.3737 -0.3716 -0.6848
  169DOPC   H5R20536   0.518   0.654  15.559  0.5133 -0.3188  1.3231
  169DOPC   H5S20537   0.688   0.720  15.547  0.6709  0.7821 -0.3668
  169DOPC   C2620538   0.555   0.813  15.410 -0.6348  0.1134  0.8255
  169DOPC   H6R20539   0.609   0.746  15.339 -0.5741  0.9724  0.0325
  169DOPC   H6S20540   0.601   0.914  15.402  0.8110 -0.4906  1.0552
  169DOPC   C2720541   0.408   0.819  15.363 -0.2719  0.0126  0.5467
  169DOPC   H7R20542   0.343   0.865  15.440  1.3211  2.1477  0.7270
  169DOPC   H7S20543   0.382   0.711  15.357 -2.6348  0.5512  0.4450
  169DOPC   C2820544   0.400   0.873  15.212  0.4402  0.3639 -0.3593
  169DOPC   H8R20545   0.486   0.819  15.167  1.4620  0.0379  1.8457
  169DOPC   H8S20546   0.429   0.980  15.206 -0.1145  0.5230 -0.2825
  169DOPC   C2920547   0.259   0.852  15.150 -0.8031 -0.2992 -0.0389
  169DOPC   H9R20548   0.220   0.749  15.159 -0.5489 -0.3643  0.3490
  169DOPC  C21020549   0.194   0.934  15.068  0.2252  0.2137 -0.9907
  169DOPC  H10R20550   0.093   0.912  15.030 -0.6867  0.4403  1.1648
  169DOPC  C21120551   0.239   1.072  15.022 -0.0591  0.6494  0.1120
  169DOPC  H11R20552   0.241   1.137  15.112  1.4783  0.9912 -0.1503
  169DOPC  H11S20553   0.165   1.118  14.953 -0.2637 -1.1786 -0.9314
  169DOPC  C21220554   0.376   1.080  14.951 -0.1682 -0.4125  0.4022
  169DOPC  H12R20555   0.461   1.099  15.020  0.0022  0.7483 -0.1029
  169DOPC  H12S20556   0.359   1.171  14.890 -0.1521 -0.4882  0.2828
  169DOPC  C21320557   0.399   0.961  14.854 -0.0630 -0.0742 -0.3955
  169DOPC  H13R20558   0.324   0.960  14.772  0.3228  3.1935 -0.9292
  169DOPC  H13S20559   0.398   0.866  14.911 -0.2762 -1.2948 -2.3509
  169DOPC  C21420560   0.530   0.968  14.780 -0.6948 -0.3022 -0.0180
  169DOPC  H14R20561   0.603   0.983  14.862 -0.7958  0.6877 -0.1027
  169DOPC  H14S20562   0.529   1.061  14.719 -0.9716 -0.8549 -0.8706
  169DOPC  C21520563   0.569   0.840  14.706 -0.0154  0.0867 -0.3241
  169DOPC  H15R20564   0.523   0.748  14.748 -1.0873 -0.1538 -1.9464
  169DOPC  H15S20565   0.676   0.821  14.731 -0.6730 -1.2647  1.6369
  169DOPC  C21620566   0.536   0.845  14.560  0.2286 -0.1883  0.2326
  169DOPC  H16R20567   0.553   0.945  14.513 -1.1315  1.0142  2.1709
  169DOPC  H16S20568   0.428   0.824  14.544  0.7197 -1.0841 -2.5069
  169DOPC  C21720569   0.624   0.756  14.482 -0.2693 -0.2583 -0.0731
  169DOPC  H17R20570   0.634   0.662  14.540  0.5344 -0.4664 -0.5304
  169DOPC  H17S20571   0.722   0.797  14.451  0.0966  0.3141  1.7703
  169DOPC  C21820572   0.551   0.739  14.343 -0.1725 -0.1762 -0.4716
  169DOPC  H18R20573   0.518   0.841  14.313  2.2606  0.6387 -0.5716
  169DOPC  H18S20574   0.463   0.673  14.360  0.5742 -1.0945 -0.0895
  169DOPC  H18T20575   0.615   0.707  14.258  0.4277  1.5781 -0.7104
  169DOPC   C3320576   0.754   0.338  15.755 -0.3227  0.1029 -0.5146
  169DOPC   H3X20577   0.679   0.275  15.807  0.8178 -2.4281 -1.7618
  169DOPC   H3Y20578   0.853   0.312  15.800 -0.2351 -1.8846 -1.7416
  169DOPC   C3420579   0.771   0.303  15.608 -0.0922 -0.3291  0.0331
  169DOPC   H4X20580   0.769   0.192  15.596  0.2658 -0.7534  3.1569
  169DOPC   H4Y20581   0.868   0.352  15.582 -0.1571 -0.9992 -1.5956
  169DOPC   C3520582   0.663   0.361  15.525  0.5583 -0.1361  0.2277
  169DOPC   H5X20583   0.667   0.472  15.521 -2.3594  0.0628  0.6580
  169DOPC   H5Y20584   0.570   0.347  15.583  0.7942 -2.7071  0.1084
  169DOPC   C3620585   0.645   0.297  15.387  0.4478 -0.1934  0.5404
  169DOPC   H6X20586   0.737   0.311  15.326 -0.5781 -1.1024 -1.3064
  169DOPC   H6Y20587   0.633   0.187  15.396  2.1812 -0.5492 -0.9426
  169DOPC   C3720588   0.515   0.356  15.331  0.4992  0.1184  0.5127
  169DOPC   H7X20589   0.436   0.308  15.392  1.1691  0.1800  1.4722
  169DOPC   H7Y20590   0.505   0.460  15.368  0.5897  0.4344 -0.3446
  169DOPC   C3820591   0.506   0.357  15.178 -0.2009 -0.3242  0.4927
  169DOPC   H8X20592   0.403   0.336  15.143  0.9642 -2.6347 -1.9384
  169DOPC   H8Y20593   0.557   0.266  15.142  0.4791 -1.1084  3.1865
  169DOPC   C3920594   0.566   0.477  15.114  0.1042  0.2777  0.3159
  169DOPC   H9X20595   0.629   0.531  15.187  0.4714 -1.0440  1.0103
  169DOPC  C31020596   0.520   0.534  15.004  0.4711 -0.0069  0.2667
  169DOPC  H10X20597   0.554   0.637  14.987  0.9690 -0.2720 -0.3725
  169DOPC  C31120598   0.420   0.480  14.906  0.2742  0.6921  0.5885
  169DOPC  H11X20599   0.350   0.563  14.885 -0.1333 -0.0672 -1.2420
  169DOPC  H11Y20600   0.364   0.395  14.951 -0.9992  1.8657  1.3014
  169DOPC  C31220601   0.491   0.439  14.774  0.6349 -0.3962  0.1891
  169DOPC  H12X20602   0.579   0.375  14.794  0.0303 -0.5408  2.7352
  169DOPC  H12Y20603   0.530   0.528  14.721 -0.6450 -0.5023 -1.0135
  169DOPC  C31320604   0.410   0.357  14.680  0.8961 -0.0560  0.3247
  169DOPC  H13X20605   0.348   0.281  14.733 -1.2916  2.9847  2.4216
  169DOPC  H13Y20606   0.329   0.426  14.647 -0.7383  0.2645  4.4062
  169DOPC  C31420607   0.477   0.303  14.560  0.1076 -0.0951 -0.7530
  169DOPC  H14X20608   0.508   0.391  14.498 -1.7193 -0.4463 -2.2803
  169DOPC  H14Y20609   0.565   0.249  14.601 -0.9256 -1.7180 -0.5833
  169DOPC  C31520610   0.390   0.208  14.480 -0.0457  0.0384  0.2524
  169DOPC  H15X20611   0.302   0.271  14.453  0.2876 -0.5357 -2.5642
  169DOPC  H15Y20612   0.349   0.115  14.525 -1.6008 -0.6345 -2.3200
  169DOPC  C31620613   0.460   0.170  14.353 -0.4460  0.2860  0.8684
  169DOPC  H16X20614   0.480   0.267  14.303 -1.5167  0.2090  0.2542
  169DOPC  H16Y20615   0.551   0.111  14.375 -0.4943 -0.5461 -0.9507
  169DOPC  C31720616   0.369   0.080  14.270 -0.4037 -0.1620  0.0963
  169DOPC  H17X20617   0.424   0.040  14.182 -0.8073 -2.0894  0.6757
  169DOPC  H17Y20618   0.345  -0.014  14.325 -1.3236  0.6538  1.1235
  169DOPC  C31820619   0.239   0.133  14.212  0.1745  0.4219  0.5381
  169DOPC  H18X20620   0.253   0.212  14.135  0.5377 -0.9805 -0.8832
  169DOPC  H18Y20621   0.181   0.045  14.176  0.6220 -0.1042  1.0835
  169DOPC  H18Z20622   0.180   0.181  14.294  0.0389 -1.1555  1.3951
  170DOPC     N20623   6.515   0.053  16.452 -0.3889 -0.7749 -0.3059
  170DOPC   C1220624   6.554   0.187  16.398 -0.1686  0.4563  0.6930
  170DOPC  H12A20625   6.630   0.227  16.463  0.6777  0.3162 -0.1801
  170DOPC  H12B20626   6.462   0.244  16.402 -0.0650  0.5749  1.4336
  170DOPC   C1320627   6.463   0.080  16.593  0.7080  0.6512  0.0537
  170DOPC  H13A20628   6.532   0.131  16.659  2.0127 -0.1660 -0.6195
  170DOPC  H13B20629   6.375   0.142  16.589  1.6511  1.9867 -1.2983
  170DOPC  H13C20630   6.440  -0.014  16.639  1.0166  1.6421  2.3838
  170DOPC   C1420631   6.637  -0.038  16.463 -0.1604  0.0886 -0.2481
  170DOPC  H14A20632   6.696  -0.007  16.548  0.5661 -1.5840 -0.1070
  170DOPC  H14B20633   6.604  -0.139  16.481 -0.1821  0.0957 -0.2472
  170DOPC  H14C20634   6.692  -0.035  16.370  0.0324 -1.0487 -0.1845
  170DOPC   C1520635   6.405  -0.006  16.372 -0.1433  0.6614 -0.0464
  170DOPC  H15A20636   6.359  -0.090  16.422  1.9810  0.5088  1.7965
  170DOPC  H15B20637   6.438  -0.038  16.275 -1.1833 -2.4859  0.5212
  170DOPC  H15C20638   6.331   0.069  16.352  0.6428  1.1879 -1.0452
  170DOPC   C1120639   6.594   0.177  16.246  0.6275 -0.6314  0.0111
  170DOPC  H11A20640   6.520   0.118  16.188 -1.0010  0.5213  0.8461
  170DOPC  H11B20641   6.588   0.272  16.189 -1.5012 -0.7390 -0.0039
  170DOPC     P20642   6.850   0.200  16.241 -0.1184  0.3783  0.0787
  170DOPC   O1320643   6.969   0.106  16.235 -0.7491  0.6255 -0.2913
  170DOPC   O1420644   6.836   0.292  16.354 -0.5811  0.4580 -0.1830
  170DOPC   O1220645   6.720   0.117  16.223  0.4349 -0.1528 -0.1542
  170DOPC   O1120646   6.848   0.295  16.110 -0.3897  0.3030  0.2437
  170DOPC    C120647   6.871   0.232  15.985 -0.7368 -0.9310 -0.4845
  170DOPC    HA20648   6.795   0.155  15.959  0.9114 -2.6046 -0.5949
  170DOPC    HB20649   6.971   0.183  15.987 -1.0785 -1.6016  0.9503
  170DOPC    C220650   6.882   0.333  15.862  0.3827  0.4201 -0.3929
  170DOPC    HS20651   6.950   0.414  15.895 -0.2733  0.5942  0.6004
  170DOPC   O2120652   6.754   0.387  15.845 -0.3531 -0.3971  0.0973
  170DOPC   C2120653   6.749   0.502  15.788 -0.2853 -0.3570 -0.4904
  170DOPC   O2220654   6.843   0.578  15.770 -1.1937  0.1293  0.7247
  170DOPC   C2220655   6.607   0.531  15.746 -0.2576  0.4904 -0.6806
  170DOPC   H2R20656   6.572   0.631  15.780 -0.8169 -0.2120  0.8683
  170DOPC   H2S20657   6.546   0.468  15.814  0.7845  0.5666  0.3543
  170DOPC    C320658   6.923   0.255  15.733  0.4787 -0.3151  0.4256
  170DOPC    HX20659   6.845   0.179  15.708  1.8424 -1.3847 -0.7652
  170DOPC    HY20660   7.013   0.191  15.743  1.4432  0.7355 -1.2556
  170DOPC   O3120661   6.926   0.339  15.617  0.2506 -0.7771  0.1271
  170DOPC   C3120662   7.035   0.413  15.610  1.0013  0.8260  0.2186
  170DOPC   O3220663   7.130   0.399  15.679  0.2342  0.0617  0.0741
  170DOPC   C3220664   7.018   0.518  15.495  0.8533  0.1590  0.1923
  170DOPC   H2X20665   6.922   0.571  15.516  0.0895 -0.8140 -0.7152
  170DOPC   H2Y20666   7.089   0.603  15.499 -0.9711  2.2987 -4.7917
  170DOPC   C2320667   6.582   0.494  15.595 -0.4298 -0.0101  0.2246
  170DOPC   H3R20668   6.665   0.539  15.537  0.0347  0.6282  1.3585
  170DOPC   H3S20669   6.492   0.552  15.565  0.2279  0.2258 -1.4348
  170DOPC   C2420670   6.567   0.348  15.561  0.0248  0.1734 -0.0317
  170DOPC   H4R20671   6.668   0.302  15.552  0.2376  0.2548  1.6973
  170DOPC   H4S20672   6.512   0.331  15.466  1.5389 -0.5931 -0.8088
  170DOPC   C2520673   6.482   0.274  15.661  0.4732  0.3435 -0.1256
  170DOPC   H5R20674   6.389   0.333  15.677 -1.4587 -2.1706 -1.3015
  170DOPC   H5S20675   6.536   0.263  15.758 -1.5825  0.8423  1.1336
  170DOPC   C2620676   6.435   0.141  15.606  0.2683  0.4792 -0.0874
  170DOPC   H6R20677   6.401   0.165  15.503 -0.5590 -0.1796  0.0261
  170DOPC   H6S20678   6.349   0.098  15.661 -0.9604  1.2918 -1.2877
  170DOPC   C2720679   6.547   0.033  15.607  0.0082 -0.2024  0.5034
  170DOPC   H7R20680   6.625   0.064  15.534 -2.0651 -0.2313 -1.8651
  170DOPC   H7S20681   6.503  -0.059  15.562 -1.6685 -0.9915  3.5305
  170DOPC   C2820682   6.599   0.002  15.751  0.2298  0.2565 -0.4443
  170DOPC   H8R20683   6.512  -0.021  15.816  1.4071  0.8858  1.3968
  170DOPC   H8S20684   6.652   0.083  15.804  0.0270 -0.3782  0.7551
  170DOPC   C2920685   6.700  -0.114  15.755 -0.6057  0.4740 -0.2191
  170DOPC   H9R20686   6.804  -0.081  15.743 -0.3488 -0.9557 -2.2267
  170DOPC  C21020687   6.674  -0.246  15.753 -0.0907 -0.3959 -0.0241
  170DOPC  H10R20688   6.753  -0.322  15.760  0.8102  0.6538  2.1803
  170DOPC  C21120689   6.540  -0.307  15.761 -0.1472  0.5040  0.4496
  170DOPC  H11R20690   6.494  -0.309  15.660 -2.1478 -0.2026  1.3284
  170DOPC  H11S20691   6.478  -0.246  15.830  1.7315  1.4625  1.3896
  170DOPC  C21220692   6.545  -0.456  15.812  0.2593 -0.9607  0.6380
  170DOPC  H12R20693   6.597  -0.512  15.731  0.5569  1.5448 -1.0262
  170DOPC  H12S20694   6.441  -0.496  15.818 -0.8796  2.0343  3.1723
  170DOPC  C21320695   6.598  -0.470  15.959 -0.7067  0.2105  0.3087
  170DOPC  H13R20696   6.548  -0.402  16.031  1.2402  0.9455  1.0340
  170DOPC  H13S20697   6.703  -0.433  15.961 -0.1939 -0.8456 -2.4930
  170DOPC  C21420698   6.591  -0.614  16.015  0.2517  0.1936 -0.2829
  170DOPC  H14R20699   6.489  -0.645  15.984  0.3969  0.8141 -1.4083
  170DOPC  H14S20700   6.594  -0.598  16.125  0.8582 -0.8210 -0.1422
  170DOPC  C21520701   6.705  -0.701  15.954 -0.3423 -0.9038 -0.2085
  170DOPC  H15R20702   6.804  -0.665  15.990 -0.2855 -2.4359  1.2540
  170DOPC  H15S20703   6.707  -0.680  15.845  1.4517 -0.7437 -0.1833
  170DOPC  C21620704   6.702  -0.856  15.980 -0.0334 -0.7016 -0.5747
  170DOPC  H16R20705   6.689  -0.876  16.089 -0.6045 -0.8263 -0.6631
  170DOPC  H16S20706   6.801  -0.893  15.946 -0.0510  0.1918 -1.6355
  170DOPC  C21720707   6.594  -0.917  15.897  0.0136  0.2930  0.4227
  170DOPC  H17R20708   6.619  -0.917  15.788 -0.9796 -0.4877  0.1718
  170DOPC  H17S20709   6.496  -0.866  15.907 -0.2492  0.0398 -0.6848
  170DOPC  C21820710   6.571  -1.067  15.932  1.1267  0.5685  0.2533
  170DOPC  H18R20711   6.487  -1.105  15.870 -0.3515  1.3430  1.7096
  170DOPC  H18S20712   6.525  -1.074  16.032 -0.8058  0.0159 -0.6333
  170DOPC  H18T20713   6.667  -1.122  15.932  0.5425 -0.5021 -0.5859
  170DOPC   C3320714   7.013   0.476  15.342  0.3060  0.2827  0.4122
  170DOPC   H3X20715   7.086   0.392  15.343  0.4501  0.3907 -0.3697
  170DOPC   H3Y20716   7.044   0.551  15.266  0.1629 -0.0871 -0.0081
  170DOPC   C3420717   6.868   0.438  15.314 -0.0366  0.1780 -0.2661
  170DOPC   H4X20718   6.809   0.532  15.308  0.6518  0.6156 -0.2608
  170DOPC   H4Y20719   6.846   0.362  15.392  0.1518 -1.0811 -1.3887
  170DOPC   C3520720   6.871   0.386  15.167 -0.2829 -0.1018 -0.7158
  170DOPC   H5X20721   6.937   0.296  15.160 -1.1907 -0.8715  0.3489
  170DOPC   H5Y20722   6.907   0.459  15.092  3.6042 -1.5860 -0.5524
  170DOPC   C3620723   6.730   0.333  15.129 -0.3772  0.0327  0.0404
  170DOPC   H6X20724   6.680   0.271  15.206 -0.8268  0.2949 -0.0367
  170DOPC   H6Y20725   6.663   0.422  15.128 -0.2511  0.1710  1.8423
  170DOPC   C3720726   6.723   0.257  14.996 -0.1029 -0.5294  0.5556
  170DOPC   H7X20727   6.774   0.325  14.924 -2.9991 -0.1060 -1.2502
  170DOPC   H7Y20728   6.778   0.161  15.001 -0.8845 -0.9334  1.9385
  170DOPC   C3820729   6.588   0.232  14.936  0.5779 -0.4084 -0.2496
  170DOPC   H8X20730   6.593   0.182  14.837 -1.0467 -0.6944 -0.2150
  170DOPC   H8Y20731   6.539   0.327  14.906  0.9435 -0.5187 -1.2093
  170DOPC   C3920732   6.496   0.146  15.013  0.2441  0.3251 -0.3090
  170DOPC   H9X20733   6.537   0.048  15.040  0.1606  0.3977  0.0833
  170DOPC  C31020734   6.364   0.166  15.033 -0.2390  0.1239 -0.5759
  170DOPC  H10X20735   6.312   0.101  15.105  3.2739 -1.5374  0.6626
  170DOPC  C31120736   6.279   0.282  14.988 -0.3068  0.1767 -0.3982
  170DOPC  H11X20737   6.334   0.378  14.993 -2.8337  1.8751 -2.3723
  170DOPC  H11Y20738   6.191   0.282  15.056  0.3584 -0.5073  0.4907
  170DOPC  C31220739   6.221   0.259  14.845 -0.1800  0.5271  0.1561
  170DOPC  H12X20740   6.163   0.165  14.841  1.8719 -0.7673 -0.3854
  170DOPC  H12Y20741   6.298   0.241  14.768 -0.6962 -2.7304  0.2588
  170DOPC  C31320742   6.125   0.368  14.799  0.1743  0.3258  0.0889
  170DOPC  H13X20743   6.073   0.331  14.708  0.2267 -0.1093  0.2366
  170DOPC  H13Y20744   6.048   0.391  14.876 -0.1236  0.0347 -0.1169
  170DOPC  C31420745   6.203   0.497  14.765 -0.1388  0.5298 -0.2703
  170DOPC  H14X20746   6.245   0.536  14.860  2.3868 -2.0322 -0.2197
  170DOPC  H14Y20747   6.287   0.474  14.697  0.6503  2.1220  0.1191
  170DOPC  C31520748   6.109   0.603  14.703  0.6617 -0.3270  0.5704
  170DOPC  H15X20749   6.023   0.625  14.769 -1.4100  0.7121 -2.3034
  170DOPC  H15Y20750   6.070   0.565  14.606  0.3750  1.7134 -0.1433
  170DOPC  C31620751   6.177   0.742  14.665 -0.1274  0.1793 -0.1101
  170DOPC  H16X20752   6.223   0.778  14.760 -2.7440  2.1940  0.4962
  170DOPC  H16Y20753   6.262   0.744  14.593  0.2269 -0.5411  0.2745
  170DOPC  C31720754   6.073   0.857  14.625  0.6572  0.2164 -0.1863
  170DOPC  H17X20755   6.140   0.945  14.623  0.6926  0.1813 -1.5328
  170DOPC  H17Y20756   6.043   0.851  14.518 -1.2604  0.5449  0.2986
  170DOPC  C31820757   5.950   0.869  14.710 -0.1496 -0.2214  0.1011
  170DOPC  H18X20758   5.983   0.870  14.816  0.7878  0.0755 -0.1846
  170DOPC  H18Y20759   5.909   0.968  14.681  1.1625 -0.3377 -2.4074
  170DOPC  H18Z20760   5.873   0.789  14.705  1.2133 -1.8146  2.5649
  171DOPC     N20761   3.925   2.668  11.917  0.2462  0.2037 -0.1674
  171DOPC   C1220762   3.969   2.709  12.062  0.2980  0.4974 -0.5132
  171DOPC  H12A20763   3.926   2.802  12.096 -0.7740  0.6865 -2.2476
  171DOPC  H12B20764   4.075   2.730  12.056 -0.1244  2.4476 -2.2813
  171DOPC   C1320765   4.017   2.566  11.871  0.2887  0.4888 -0.2264
  171DOPC  H13A20766   3.971   2.522  11.784 -1.7914  1.8653  0.0884
  171DOPC  H13B20767   4.110   2.607  11.836  0.3791  0.7528  0.3075
  171DOPC  H13C20768   4.023   2.485  11.943 -0.0329  0.0086 -0.7294
  171DOPC   C1420769   3.915   2.776  11.820 -0.0219 -0.1783 -0.5183
  171DOPC  H14A20770   4.003   2.836  11.800 -0.1903  0.8082  1.4720
  171DOPC  H14B20771   3.863   2.745  11.730  0.6680  0.3844 -1.1248
  171DOPC  H14C20772   3.855   2.851  11.869  1.0665  0.4801 -0.1646
  171DOPC   C1520773   3.791   2.599  11.919  0.2082 -0.8660 -0.0124
  171DOPC  H15A20774   3.705   2.652  11.956  0.7667 -0.3295  0.5345
  171DOPC  H15B20775   3.803   2.507  11.975  1.5820 -0.0833  1.0182
  171DOPC  H15C20776   3.765   2.577  11.816 -1.1110 -0.1038  0.1440
  171DOPC   C1120777   3.951   2.607  12.184  0.1476 -0.1139 -0.4305
  171DOPC  H11A20778   3.979   2.661  12.277 -2.5834  2.2388 -0.8474
  171DOPC  H11B20779   3.843   2.583  12.195 -0.0299  1.1377  0.7398
  171DOPC     P20780   4.192   2.500  12.174 -0.6037  0.1564  0.0639
  171DOPC   O1320781   4.243   2.640  12.160 -0.0353  0.1337  0.1145
  171DOPC   O1420782   4.227   2.403  12.073  0.0044  0.1424  0.4475
  171DOPC   O1220783   4.032   2.489  12.175  0.3192 -0.0505  0.2612
  171DOPC   O1120784   4.250   2.451  12.310 -0.2802  1.1806 -0.2196
  171DOPC    C120785   4.241   2.535  12.424  1.0186  0.4830  0.0563
  171DOPC    HA20786   4.207   2.471  12.508  1.6968 -0.2339 -0.2096
  171DOPC    HB20787   4.153   2.603  12.412  2.0368  1.4094 -3.1142
  171DOPC    C220788   4.354   2.615  12.480 -0.7758 -0.1458 -0.2652
  171DOPC    HS20789   4.382   2.688  12.401 -3.9345  2.1278  0.5437
  171DOPC   O2120790   4.461   2.534  12.532 -0.1644  0.6341  0.3461
  171DOPC   C2120791   4.583   2.586  12.534  0.5361  0.3499 -0.0073
  171DOPC   O2220792   4.622   2.682  12.477 -0.1209  0.2919  0.5675
  171DOPC   C2220793   4.679   2.490  12.594 -0.1116 -0.4155 -0.2182
  171DOPC   H2R20794   4.684   2.400  12.529 -0.5428 -2.1735  2.0511
  171DOPC   H2S20795   4.630   2.466  12.691  0.3584 -0.2410  0.0669
  171DOPC    C320796   4.304   2.700  12.599 -1.1563 -0.1319 -0.0344
  171DOPC    HX20797   4.227   2.761  12.547  0.1380  0.5867 -1.1640
  171DOPC    HY20798   4.384   2.771  12.629  0.5530 -2.5866  1.6327
  171DOPC   O3120799   4.241   2.635  12.709 -0.1391 -0.1235 -0.3790
  171DOPC   C3120800   4.322   2.611  12.813 -0.6789  0.7551 -0.4604
  171DOPC   O3220801   4.433   2.653  12.827 -0.3493  0.1773 -0.7934
  171DOPC   C3220802   4.239   2.529  12.903 -0.2541 -0.5188  0.0149
  171DOPC   H2X20803   4.153   2.598  12.917 -0.0328 -0.0915 -0.6488
  171DOPC   H2Y20804   4.211   2.439  12.844  0.7218  0.1357 -1.5142
  171DOPC   C2320805   4.826   2.544  12.629 -0.1617 -1.1745  0.1510
  171DOPC   H3R20806   4.818   2.653  12.649  1.9615 -0.4700 -2.3509
  171DOPC   H3S20807   4.905   2.535  12.551  1.3836 -2.0606  1.7461
  171DOPC   C2420808   4.880   2.475  12.756 -0.1418 -0.0768  0.5736
  171DOPC   H4R20809   4.982   2.517  12.771  0.0417  0.2153 -1.2435
  171DOPC   H4S20810   4.893   2.367  12.732  1.7120  0.6177 -2.0801
  171DOPC   C2520811   4.798   2.497  12.878  0.1603 -0.4787 -0.0764
  171DOPC   H5R20812   4.712   2.427  12.873 -0.5384  0.3565  0.0182
  171DOPC   H5S20813   4.765   2.603  12.880  0.0744 -0.4869 -0.8051
  171DOPC   C2620814   4.878   2.475  13.003  0.7677 -0.2727 -0.7157
  171DOPC   H6R20815   4.956   2.554  13.009 -0.3050  0.7500  0.3128
  171DOPC   H6S20816   4.942   2.389  12.976  1.2149  0.1437 -0.9810
  171DOPC   C2720817   4.803   2.452  13.141 -0.0965  0.2664 -0.5372
  171DOPC   H7R20818   4.734   2.366  13.127  2.8159 -2.4838  0.6848
  171DOPC   H7S20819   4.734   2.537  13.163 -0.3121  0.1546 -0.7765
  171DOPC   C2820820   4.904   2.419  13.254 -0.3837  0.4649 -0.0575
  171DOPC   H8R20821   4.838   2.406  13.342 -0.0312  0.4304  0.2022
  171DOPC   H8S20822   4.977   2.503  13.253  0.4055 -0.2116 -0.4586
  171DOPC   C2920823   4.975   2.288  13.227  0.0076  0.0471 -0.0377
  171DOPC   H9R20824   5.003   2.263  13.124 -1.5101 -1.2609 -0.1618
  171DOPC  C21020825   5.023   2.209  13.324 -0.5872 -0.1617  0.1579
  171DOPC  H10R20826   5.065   2.112  13.293 -1.5004 -0.5226  0.0220
  171DOPC  C21120827   5.021   2.232  13.469 -0.7021 -0.4282 -0.1862
  171DOPC  H11R20828   4.939   2.173  13.516 -2.2860 -1.3687 -3.7853
  171DOPC  H11S20829   5.003   2.339  13.491 -1.1177 -0.0703 -2.0929
  171DOPC  C21220830   5.149   2.171  13.537  0.4389 -0.3534  0.0143
  171DOPC  H12R20831   5.242   2.216  13.496  0.6106  0.1351  0.9186
  171DOPC  H12S20832   5.169   2.065  13.513  1.1045  0.1656 -1.8471
  171DOPC  C21320833   5.161   2.204  13.680 -1.0654 -0.0246  0.0877
  171DOPC  H13R20834   5.125   2.304  13.711  1.8371  0.6100  1.6807
  171DOPC  H13S20835   5.265   2.201  13.718 -0.8695  3.0901  0.0202
  171DOPC  C21420836   5.081   2.105  13.775 -0.0094 -0.4498 -0.2357
  171DOPC  H14R20837   5.106   1.998  13.756  4.3852  0.3541 -0.0386
  171DOPC  H14S20838   4.977   2.130  13.745  1.0041  2.4860 -1.7037
  171DOPC  C21520839   5.108   2.134  13.925 -0.1581 -0.2108 -0.0635
  171DOPC  H15R20840   5.108   2.243  13.948  0.7564  0.6434 -3.4805
  171DOPC  H15S20841   5.216   2.111  13.934  0.2532  1.8061  0.8802
  171DOPC  C21620842   5.017   2.046  14.011 -0.6161 -0.4978  1.0156
  171DOPC  H16R20843   5.029   1.938  13.985 -1.0780 -0.1382 -0.8649
  171DOPC  H16S20844   4.908   2.056  13.994 -0.8953 -1.8312  1.8548
  171DOPC  C21720845   5.034   2.057  14.161 -0.5540  0.2060 -0.4079
  171DOPC  H17R20846   4.997   2.157  14.194  3.2525  1.7180 -0.1930
  171DOPC  H17S20847   5.144   2.059  14.182 -0.2018  0.4934 -2.1383
  171DOPC  C21820848   4.964   1.938  14.238 -0.0828  0.2820 -0.1097
  171DOPC  H18R20849   4.868   1.902  14.194 -0.5642  0.9992  0.3224
  171DOPC  H18S20850   4.935   1.971  14.340 -0.9520  0.4461 -0.3976
  171DOPC  H18T20851   5.025   1.846  14.233 -1.9218 -0.9343 -1.3251
  171DOPC   C3320852   4.310   2.496  13.030  0.0871  0.1091  0.0830
  171DOPC   H3X20853   4.320   2.596  13.078  0.7541 -0.3290  0.8923
  171DOPC   H3Y20854   4.415   2.461  13.015 -0.3107 -1.4571  0.6855
  171DOPC   C3420855   4.231   2.406  13.127 -0.1255  0.4689  0.1378
  171DOPC   H4X20856   4.291   2.379  13.217  1.2162  0.0496 -0.8517
  171DOPC   H4Y20857   4.189   2.311  13.090 -1.3624  1.1348 -0.2341
  171DOPC   C3520858   4.114   2.481  13.196 -0.6659  0.4416  0.0068
  171DOPC   H5X20859   4.032   2.479  13.122  1.3191 -1.4682 -2.3287
  171DOPC   H5Y20860   4.139   2.589  13.191 -4.4548  1.4854  0.8846
  171DOPC   C3620861   4.088   2.432  13.333  0.0468 -0.5332  0.2409
  171DOPC   H6X20862   4.066   2.323  13.331  1.4770 -0.8402 -2.1666
  171DOPC   H6Y20863   4.171   2.442  13.407 -1.8425  0.0140  2.4238
  171DOPC   C3720864   3.966   2.499  13.395  0.0799  0.3423 -0.4142
  171DOPC   H7X20865   3.996   2.605  13.408  0.8848  0.4290 -2.5205
  171DOPC   H7Y20866   3.881   2.482  13.324  0.8443 -0.6810 -1.1199
  171DOPC   C3820867   3.928   2.441  13.534  0.3865  0.2550 -0.4195
  171DOPC   H8X20868   4.017   2.432  13.601 -0.6549 -0.1324  0.9429
  171DOPC   H8Y20869   3.909   2.333  13.517 -0.8273  0.1452  1.3690
  171DOPC   C3920870   3.809   2.507  13.593 -0.6400  0.1969 -0.2964
  171DOPC   H9X20871   3.723   2.531  13.528 -2.1528 -1.1691  1.0987
  171DOPC  C31020872   3.793   2.561  13.715  0.0464  0.2189  0.6286
  171DOPC  H10X20873   3.699   2.606  13.751  0.3741  2.3447 -0.9806
  171DOPC  C31120874   3.900   2.564  13.825  0.6120  0.0964 -0.3227
  171DOPC  H11X20875   3.946   2.665  13.828  0.0309  0.4281 -1.8030
  171DOPC  H11Y20876   3.980   2.490  13.803 -0.5835 -0.8353 -1.7483
  171DOPC  C31220877   3.831   2.539  13.962  0.7118 -0.4741 -0.7643
  171DOPC  H12X20878   3.730   2.584  13.969  0.4835 -1.1701  0.7414
  171DOPC  H12Y20879   3.896   2.580  14.042  1.7457 -3.3118 -0.0423
  171DOPC  C31320880   3.798   2.391  13.997  0.0061 -0.0988 -0.3582
  171DOPC  H13X20881   3.734   2.342  13.920 -0.1810 -1.3648  0.5725
  171DOPC  H13Y20882   3.893   2.335  13.986 -0.0034 -0.0750 -0.5705
  171DOPC  C31420883   3.757   2.372  14.144  0.2464 -0.1272  0.3958
  171DOPC  H14X20884   3.767   2.264  14.165 -1.7357 -0.3007  0.6465
  171DOPC  H14Y20885   3.821   2.430  14.213  0.8172 -1.7089  1.2503
  171DOPC  C31520886   3.607   2.414  14.162 -0.3211 -0.0614 -0.0299
  171DOPC  H15X20887   3.608   2.524  14.145 -0.9062  0.0299  0.4939
  171DOPC  H15Y20888   3.581   2.385  14.266 -1.9109  1.4285  0.0283
  171DOPC  C31620889   3.509   2.332  14.077 -0.0043 -0.4925 -0.0486
  171DOPC  H16X20890   3.406   2.370  14.085 -0.5752 -1.7286 -1.0623
  171DOPC  H16Y20891   3.540   2.330  13.970  0.6183 -1.7367  0.1311
  171DOPC  C31720892   3.493   2.192  14.129 -0.1495  0.2770  0.0489
  171DOPC  H17X20893   3.594   2.157  14.159 -0.6906  0.6044  2.4877
  171DOPC  H17Y20894   3.438   2.201  14.225  2.5649  2.7284  1.5425
  171DOPC  C31820895   3.430   2.092  14.032 -0.1233 -0.0497 -0.1858
  171DOPC  H18X20896   3.509   2.089  13.953  0.2417  0.5648  0.1456
  171DOPC  H18Y20897   3.411   1.997  14.085 -1.0956  1.3181  2.0794
  171DOPC  H18Z20898   3.337   2.128  13.985 -1.2041 -1.0299  1.1280
  172DOPC     N20899   2.779   4.548  11.889 -0.2377  0.2030  0.0554
  172DOPC   C1220900   2.752   4.438  11.996 -0.0193 -0.2442  0.7526
  172DOPC  H12A20901   2.816   4.352  11.981 -0.8111 -0.8605  0.8194
  172DOPC  H12B20902   2.654   4.404  11.964 -1.1184  2.4915  0.9787
  172DOPC   C1320903   2.787   4.489  11.752  0.3312  0.5592  0.5246
  172DOPC  H13A20904   2.698   4.438  11.717  1.0235 -0.5951  0.4076
  172DOPC  H13B20905   2.803   4.565  11.677  0.0655  2.1014  1.9752
  172DOPC  H13C20906   2.867   4.417  11.751 -1.0674 -1.0753  0.7489
  172DOPC   C1420907   2.906   4.628  11.918 -0.3454  0.7269  0.5542
  172DOPC  H14A20908   2.900   4.666  12.019 -2.5997  1.4885  0.2054
  172DOPC  H14B20909   2.988   4.559  11.908 -2.7282 -1.9912 -2.5125
  172DOPC  H14C20910   2.911   4.712  11.850 -1.7535  1.0987  0.8695
  172DOPC   C1520911   2.659   4.640  11.894 -0.5316 -0.1255  0.5622
  172DOPC  H15A20912   2.576   4.576  11.869  0.1814 -0.8952  0.1158
  172DOPC  H15B20913   2.661   4.717  11.818 -1.5177 -1.5408 -0.9627
  172DOPC  H15C20914   2.637   4.678  11.993 -0.7774  1.2525  0.0131
  172DOPC   C1120915   2.745   4.479  12.143 -0.2543  0.0939  0.9458
  172DOPC  H11A20916   2.672   4.560  12.162 -0.4130 -0.2377  1.8071
  172DOPC  H11B20917   2.715   4.393  12.206  0.8333 -1.6447 -0.7812
  172DOPC     P20918   2.989   4.457  12.251  0.4664 -0.1070 -0.3663
  172DOPC   O1320919   3.105   4.545  12.262  0.0754  0.6592 -0.0826
  172DOPC   O1420920   3.007   4.344  12.169  0.4986  0.1237  0.2729
  172DOPC   O1220921   2.867   4.535  12.184 -0.5116 -0.3763 -0.2893
  172DOPC   O1120922   2.931   4.439  12.397 -0.3131  0.2398 -0.4082
  172DOPC    C120923   2.895   4.545  12.488  0.5617 -0.2373  0.5286
  172DOPC    HA20924   2.793   4.542  12.534  0.3506 -1.2102  0.0253
  172DOPC    HB20925   2.909   4.640  12.434  0.0800 -1.3216 -1.6034
  172DOPC    C220926   2.990   4.550  12.606  0.1420  0.1612  0.5279
  172DOPC    HS20927   3.090   4.572  12.564  0.5145  1.1150  1.8659
  172DOPC   O2120928   2.977   4.426  12.679  0.1007 -0.3270 -0.1521
  172DOPC   C2120929   3.091   4.391  12.737  0.0597 -0.5576 -0.2577
  172DOPC   O2220930   3.193   4.458  12.745  0.4490 -0.2692  0.7863
  172DOPC   C2220931   3.077   4.252  12.793 -0.9003 -0.1766  0.4568
  172DOPC   H2R20932   3.030   4.185  12.717 -0.9566 -0.3054  0.6046
  172DOPC   H2S20933   3.017   4.258  12.886 -0.5267  1.4556  0.6115
  172DOPC    C320934   2.952   4.671  12.702 -0.0565 -0.6114  0.0141
  172DOPC    HX20935   2.851   4.642  12.737 -0.2757 -0.7562 -0.7200
  172DOPC    HY20936   2.949   4.766  12.645 -2.0015 -1.2548 -1.0236
  172DOPC   O3120937   3.044   4.667  12.816  0.1827 -0.8892  0.0261
  172DOPC   C3120938   3.147   4.739  12.820 -0.0828 -0.1081  0.8827
  172DOPC   O3220939   3.181   4.809  12.727  0.4856  0.2751  0.3123
  172DOPC   C3220940   3.221   4.726  12.950  0.2963 -0.6845  0.4549
  172DOPC   H2X20941   3.325   4.692  12.929  0.9746  2.3063 -1.6660
  172DOPC   H2Y20942   3.222   4.830  12.989 -0.0158 -0.5484  0.1074
  172DOPC   C2320943   3.204   4.179  12.832  0.6161 -0.2172  0.5785
  172DOPC   H3R20944   3.273   4.250  12.882  0.6640 -0.4080  0.7850
  172DOPC   H3S20945   3.258   4.143  12.742  0.0052  1.3394 -0.4559
  172DOPC   C2420946   3.183   4.054  12.918 -0.4544 -0.6094  0.2882
  172DOPC   H4R20947   3.274   3.991  12.908 -0.8956 -0.9896 -2.1207
  172DOPC   H4S20948   3.105   3.986  12.877 -0.6737  0.6829 -1.5626
  172DOPC   C2520949   3.147   4.076  13.067  0.1566  0.3823 -0.4312
  172DOPC   H5R20950   3.052   4.131  13.084 -0.7724 -1.5162  0.9371
  172DOPC   H5S20951   3.227   4.143  13.107 -1.0600  1.0000  1.0385
  172DOPC   C2620952   3.153   3.944  13.147 -0.0414 -0.3271 -0.2806
  172DOPC   H6R20953   3.259   3.912  13.157 -0.2746 -1.0199 -0.0100
  172DOPC   H6S20954   3.104   3.856  13.100  0.9438 -0.0820 -1.8380
  172DOPC   C2720955   3.099   3.976  13.293 -0.1495  0.2212 -0.1094
  172DOPC   H7R20956   2.993   4.007  13.283  0.0766  1.3461  0.8220
  172DOPC   H7S20957   3.158   4.061  13.333 -0.5660  0.4068  0.1098
  172DOPC   C2820958   3.119   3.858  13.398 -0.5958 -0.1386  0.4800
  172DOPC   H8R20959   3.218   3.819  13.368 -0.2643  0.9742  0.1107
  172DOPC   H8S20960   3.057   3.779  13.350 -0.5561  0.6504 -0.9202
  172DOPC   C2920961   3.099   3.884  13.544 -0.5179  0.5750  0.7089
  172DOPC   H9R20962   3.123   3.988  13.572  0.5309  0.5692 -0.1158
  172DOPC  C21020963   3.032   3.809  13.635  0.2567 -0.1489 -0.0387
  172DOPC  H10R20964   3.012   3.849  13.736 -1.4585  0.0061 -0.4107
  172DOPC  C21120965   2.978   3.673  13.612  0.2261  0.3644 -0.0981
  172DOPC  H11R20966   3.025   3.626  13.523 -0.2328  1.2575 -0.8285
  172DOPC  H11S20967   2.872   3.692  13.584  0.7414  3.8566 -0.1568
  172DOPC  C21220968   2.993   3.580  13.733 -0.0601 -0.3381 -0.3245
  172DOPC  H12R20969   3.102   3.569  13.748  0.5552  3.3706 -1.2867
  172DOPC  H12S20970   2.948   3.488  13.690 -0.5366 -0.4954  0.4706
  172DOPC  C21320971   2.934   3.627  13.869  0.2245  0.2842  0.4099
  172DOPC  H13R20972   2.827   3.645  13.847  0.1361  1.3651  1.6159
  172DOPC  H13S20973   2.977   3.718  13.915  0.3558  0.0594  0.7420
  172DOPC  C21420974   2.911   3.517  13.972  0.1293  0.0302 -0.2482
  172DOPC  H14R20975   2.916   3.416  13.925  0.3426 -0.3347  0.5433
  172DOPC  H14S20976   2.812   3.529  14.021  0.1730 -2.9423  0.7386
  172DOPC  C21520977   3.011   3.525  14.087 -0.3457 -0.2953 -0.1489
  172DOPC  H15R20978   3.016   3.632  14.119  1.5806 -0.3902  0.0276
  172DOPC  H15S20979   3.111   3.495  14.049 -0.4042  0.2441 -0.7485
  172DOPC  C21620980   2.963   3.443  14.214 -0.0943 -0.6758  0.2775
  172DOPC  H16R20981   2.949   3.340  14.177 -1.5197 -0.7878  1.0750
  172DOPC  H16S20982   2.862   3.470  14.253 -0.6728 -2.2980 -0.0442
  172DOPC  C21720983   3.068   3.437  14.331 -0.6573 -0.4999  0.0102
  172DOPC  H17R20984   3.172   3.429  14.293  0.4019 -0.8812  2.7864
  172DOPC  H17S20985   3.045   3.348  14.393  0.3337 -0.8349 -0.0803
  172DOPC  C21820986   3.060   3.560  14.418  0.1846 -0.6239 -0.1849
  172DOPC  H18R20987   3.078   3.654  14.361  1.8285  1.2528  3.1104
  172DOPC  H18S20988   3.124   3.552  14.509 -1.8297 -0.3499  1.3343
  172DOPC  H18T20989   2.955   3.570  14.452  0.0225  0.0215 -0.8490
  172DOPC   C3320990   3.149   4.632  13.057  0.8356 -0.5308 -0.3858
  172DOPC   H3X20991   3.111   4.535  13.019 -1.1543 -1.0806  2.6374
  172DOPC   H3Y20992   3.064   4.681  13.109  0.7845 -1.3541  0.3248
  172DOPC   C3420993   3.243   4.602  13.177  0.0588 -0.9077  0.1854
  172DOPC   H4X20994   3.236   4.688  13.247 -1.0485 -1.0612  0.2832
  172DOPC   H4Y20995   3.349   4.598  13.143  0.2795  1.2928  0.4834
  172DOPC   C3520996   3.199   4.468  13.240  0.7637  0.0879  0.6862
  172DOPC   H5X20997   3.176   4.389  13.166  2.5763  0.3789 -0.2717
  172DOPC   H5Y20998   3.098   4.488  13.282  0.6367  2.3936 -0.5337
  172DOPC   C3620999   3.291   4.411  13.349 -0.6413  0.1639  0.4392
  172DOPC   H6X21000   3.239   4.325  13.396  1.3462 -0.8201  0.9542
  172DOPC   H6Y21001   3.378   4.360  13.304 -0.1822  0.1025  1.3609
  172DOPC   C3721002   3.328   4.516  13.454 -0.4572 -0.1000  0.5036
  172DOPC   H7X21003   3.417   4.570  13.416  0.1394 -0.6768  1.0419
  172DOPC   H7Y21004   3.250   4.593  13.472  2.0269  2.2160  2.0662
  172DOPC   C3821005   3.361   4.453  13.587  0.0595  0.2500 -0.1440
  172DOPC   H8X21006   3.448   4.384  13.590  0.4918  0.7626 -0.7887
  172DOPC   H8Y21007   3.273   4.392  13.616  0.8704 -0.7532  0.2638
  172DOPC   C3921008   3.391   4.560  13.692 -0.0495  0.8841 -0.2256
  172DOPC   H9X21009   3.498   4.577  13.708  0.2496 -1.1462  0.1286
  172DOPC  C31021010   3.305   4.643  13.756  0.4908 -0.3573 -0.1465
  172DOPC  H10X21011   3.354   4.691  13.842 -0.0211 -0.8497  0.4308
  172DOPC  C31121012   3.153   4.663  13.762 -0.0096 -0.5088  0.7346
  172DOPC  H11X21013   3.100   4.573  13.722 -1.8231  1.1567 -0.8195
  172DOPC  H11Y21014   3.119   4.744  13.694  0.3882 -0.5307  0.5062
  172DOPC  C31221015   3.094   4.697  13.897  0.3654  0.1006 -1.0993
  172DOPC  H12X21016   3.131   4.632  13.980  0.4056 -1.1369 -2.0610
  172DOPC  H12Y21017   2.984   4.687  13.900  0.0762  2.7699  0.9082
  172DOPC  C31321018   3.127   4.838  13.934 -0.1104  0.7856 -0.6010
  172DOPC  H13X21019   3.236   4.860  13.934  0.0455  0.8974 -5.0816
  172DOPC  H13Y21020   3.087   4.901  13.851 -0.9401  2.0951  0.7263
  172DOPC  C31421021   3.063   4.893  14.069 -0.2997  0.7576  1.1410
  172DOPC  H14X21022   2.955   4.872  14.081  0.0032  0.2313  3.3227
  172DOPC  H14Y21023   3.108   4.850  14.161 -0.8340  1.4846  1.7450
  172DOPC  C31521024   3.084   5.046  14.087  0.6398 -0.3552 -0.1576
  172DOPC  H15X21025   3.190   5.063  14.116  0.2466 -0.9385  1.7264
  172DOPC  H15Y21026   3.025   5.075  14.177  2.5305  1.8944  0.4507
  172DOPC  C31621027   3.042   5.131  13.962  0.4668 -0.1889 -0.6713
  172DOPC  H16X21028   3.107   5.106  13.875  1.0223  1.3333 -0.7191
  172DOPC  H16Y21029   2.938   5.106  13.931 -0.2253 -0.6943  1.8171
  172DOPC  C31721030   3.043   5.281  13.991  0.0477  0.6355  0.1425
  172DOPC  H17X21031   3.025   5.329  13.892  1.3072 -0.4454 -0.6390
  172DOPC  H17Y21032   2.955   5.294  14.058 -0.0889 -0.1626  0.1327
  172DOPC  C31821033   3.177   5.319  14.050 -0.3665  0.1032 -0.1757
  172DOPC  H18X21034   3.254   5.265  13.992 -0.7183  0.2421 -0.7790
  172DOPC  H18Y21035   3.199   5.428  14.040 -2.9238  0.8739  1.5663
  172DOPC  H18Z21036   3.194   5.294  14.157  2.0653 -1.8593 -0.9089
  173DOPC     N21037   1.626   2.911  12.260  0.2686 -0.2111  0.7445
  173DOPC   C1221038   1.502   2.949  12.341 -0.3987  0.1330 -0.7764
  173DOPC  H12A21039   1.466   3.047  12.315 -1.1286 -0.2111 -1.1166
  173DOPC  H12B21040   1.538   2.966  12.441  1.1095 -0.3179 -1.2227
  173DOPC   C1321041   1.674   2.774  12.288 -0.1525  0.2196  0.4195
  173DOPC  H13A21042   1.596   2.699  12.283 -1.7507  1.7348  1.5332
  173DOPC  H13B21043   1.757   2.752  12.222 -1.4387 -0.8888 -0.9020
  173DOPC  H13C21044   1.711   2.750  12.386 -0.1357  0.0546  0.3738
  173DOPC   C1421045   1.741   3.010  12.284 -0.3860 -0.2901 -0.3617
  173DOPC  H14A21046   1.781   3.010  12.385  1.6338 -0.9427 -1.1178
  173DOPC  H14B21047   1.817   2.994  12.209 -0.0362  0.9343 -0.2943
  173DOPC  H14C21048   1.703   3.111  12.271  1.3237  0.3281 -0.8016
  173DOPC   C1521049   1.590   2.926  12.111 -0.0663  0.1996 -0.1237
  173DOPC  H15A21050   1.542   3.018  12.083 -0.6516 -0.4403 -1.2795
  173DOPC  H15B21051   1.518   2.848  12.091 -0.2891  1.0218 -2.8713
  173DOPC  H15C21052   1.675   2.902  12.048  1.1804 -1.2930  1.9506
  173DOPC   C1121053   1.381   2.854  12.329  0.3037 -0.4571 -0.4882
  173DOPC  H11A21054   1.417   2.749  12.339 -0.1571 -0.5597  0.0973
  173DOPC  H11B21055   1.309   2.858  12.413 -0.5497  3.9902 -1.1768
  173DOPC     P21056   1.240   3.019  12.197  0.2491 -0.0419 -0.0437
  173DOPC   O1321057   1.120   2.994  12.115  0.0776 -0.1335 -0.6062
  173DOPC   O1421058   1.330   3.123  12.146 -0.3733 -0.2797 -0.2009
  173DOPC   O1221059   1.314   2.881  12.209  0.3522  0.0575  0.3825
  173DOPC   O1121060   1.199   3.034  12.351  0.1397 -0.2708 -0.2886
  173DOPC    C121061   1.073   3.005  12.405 -0.2169 -0.0108  0.7877
  173DOPC    HA21062   1.078   2.973  12.511 -1.2553  0.6499  1.0523
  173DOPC    HB21063   1.023   2.920  12.355  1.2450 -0.8327  0.6689
  173DOPC    C221064   0.981   3.125  12.401  0.1394  0.4770 -0.4074
  173DOPC    HS21065   0.965   3.165  12.298 -1.8798 -0.7320 -0.6057
  173DOPC   O2121066   1.036   3.234  12.486  0.2019  0.5046  0.0548
  173DOPC   C2121067   0.985   3.354  12.464  0.0354  0.1977  0.6940
  173DOPC   O2221068   0.902   3.379  12.376  0.3253 -0.1487 -0.8041
  173DOPC   C2221069   1.043   3.461  12.553  0.6476  0.1360  0.0262
  173DOPC   H2R21070   0.982   3.554  12.557  0.3242  0.4016 -5.0420
  173DOPC   H2S21071   1.131   3.497  12.497 -2.3879  0.7636 -4.9168
  173DOPC    C321072   0.832   3.091  12.448 -0.7437 -0.6381  0.0625
  173DOPC    HX21073   0.791   3.012  12.381 -1.6102 -1.4250  1.4685
  173DOPC    HY21074   0.762   3.174  12.427  0.5191  0.5665  0.4635
  173DOPC   O3121075   0.827   3.022  12.577 -0.1929 -0.3826 -0.0667
  173DOPC   C3121076   0.828   3.112  12.675 -0.0258  0.3224 -0.4025
  173DOPC   O3221077   0.809   3.231  12.660 -0.0852 -0.0557  0.9623
  173DOPC   C3221078   0.857   3.030  12.803  0.3260 -0.0773  0.3006
  173DOPC   H2X21079   0.894   3.109  12.871  1.9767 -0.8876  0.3711
  173DOPC   H2Y21080   0.766   2.987  12.850 -0.2557  0.2387 -0.5022
  173DOPC   C2321081   1.088   3.423  12.696  0.6197 -0.2910 -0.4151
  173DOPC   H3R21082   1.161   3.339  12.695 -1.7019 -2.6189  2.6361
  173DOPC   H3S21083   1.008   3.383  12.762  1.8431  1.8659  2.6132
  173DOPC   C2421084   1.152   3.534  12.781  0.4103  0.1152  0.7563
  173DOPC   H4R21085   1.088   3.625  12.776  0.0788 -0.2029 -2.1505
  173DOPC   H4S21086   1.249   3.573  12.744  1.2883 -0.3565  2.4245
  173DOPC   C2521087   1.171   3.499  12.930  0.7332  0.3191 -0.2817
  173DOPC   H5R21088   1.275   3.459  12.927  0.3478 -0.6858 -0.6559
  173DOPC   H5S21089   1.118   3.408  12.966  1.2340 -0.0181 -0.3797
  173DOPC   C2621090   1.171   3.625  13.017 -0.9577  0.3610 -0.4497
  173DOPC   H6R21091   1.220   3.712  12.967  2.4510 -1.9933 -1.5672
  173DOPC   H6S21092   1.246   3.598  13.095 -0.2364  1.2955 -0.7976
  173DOPC   C2721093   1.041   3.675  13.077 -0.1083 -0.2244 -0.4081
  173DOPC   H7R21094   1.004   3.593  13.142  0.0259 -1.5804 -1.9962
  173DOPC   H7S21095   0.973   3.693  12.992 -1.5718 -0.8041  0.5862
  173DOPC   C2821096   1.045   3.802  13.165  0.1517  0.6416  0.4729
  173DOPC   H8R21097   0.940   3.820  13.198  0.3375  1.1111  0.8271
  173DOPC   H8S21098   1.052   3.892  13.100  0.3744 -0.1671 -0.6575
  173DOPC   C2921099   1.134   3.793  13.287 -0.3507 -0.4568 -0.1909
  173DOPC   H9R21100   1.152   3.687  13.313  1.5305 -0.5129 -1.5034
  173DOPC  C21021101   1.214   3.887  13.356  0.2697  0.3726  0.2069
  173DOPC  H10R21102   1.258   3.860  13.453 -1.2028 -0.1392  0.7680
  173DOPC  C21121103   1.208   4.029  13.309 -0.0962  0.1870 -1.0426
  173DOPC  H11R21104   1.128   4.058  13.236 -1.1369  0.8056  0.3091
  173DOPC  H11S21105   1.308   4.052  13.266  0.2025 -1.6433 -1.4110
  173DOPC  C21221106   1.185   4.134  13.421 -0.2427 -0.4300  0.2097
  173DOPC  H12R21107   1.166   4.232  13.372  1.0665 -1.5068 -2.6721
  173DOPC  H12S21108   1.276   4.173  13.471 -0.2885  2.9830 -2.0110
  173DOPC  C21321109   1.079   4.100  13.530  0.7719  0.6775  0.6501
  173DOPC  H13R21110   1.114   4.010  13.585  0.7001 -0.3095 -0.8572
  173DOPC  H13S21111   0.983   4.090  13.477  0.0234 -0.3636  2.1199
  173DOPC  C21421112   1.056   4.205  13.636 -0.6271  0.3313  0.2658
  173DOPC  H14R21113   1.153   4.241  13.676  0.3256 -1.9518  0.2110
  173DOPC  H14S21114   0.998   4.168  13.724 -0.6019 -3.4666 -1.1192
  173DOPC  C21521115   0.982   4.327  13.577  0.7031 -0.0912 -0.5498
  173DOPC  H15R21116   0.889   4.286  13.533  0.8029 -0.7615 -0.1435
  173DOPC  H15S21117   1.049   4.378  13.504 -0.1817  2.7655  0.4857
  173DOPC  C21621118   0.941   4.431  13.684  0.1890 -0.1034 -0.5310
  173DOPC  H16R21119   1.023   4.467  13.749 -0.6722 -0.1643  0.6235
  173DOPC  H16S21120   0.877   4.374  13.755 -0.4843  0.1342 -0.9314
  173DOPC  C21721121   0.858   4.552  13.631 -0.2037 -0.1741  0.3254
  173DOPC  H17R21122   0.928   4.621  13.580 -0.5211  0.2711  0.4852
  173DOPC  H17S21123   0.822   4.609  13.719 -2.0000  1.8431 -1.6012
  173DOPC  C21821124   0.733   4.510  13.549 -0.8115  0.0496  1.4296
  173DOPC  H18R21125   0.747   4.431  13.472  1.6012 -0.2396  2.0928
  173DOPC  H18S21126   0.700   4.604  13.500 -2.1082 -0.4438  1.3194
  173DOPC  H18T21127   0.660   4.469  13.622  0.8540 -1.2376  2.4487
  173DOPC   C3321128   0.967   2.923  12.796  0.4979  0.1477 -0.6472
  173DOPC   H3X21129   1.055   2.950  12.735  1.6101 -1.3883  0.2001
  173DOPC   H3Y21130   0.917   2.834  12.752  0.0693  0.6230 -1.1435
  173DOPC   C3421131   1.013   2.869  12.939 -0.4938  0.4192 -0.0822
  173DOPC   H4X21132   1.079   2.948  12.981  0.5145 -0.4465  0.0025
  173DOPC   H4Y21133   1.082   2.784  12.920  1.5828  1.9471  0.1817
  173DOPC   C3521134   0.902   2.807  13.030 -0.3935 -0.1925 -0.4646
  173DOPC   H5X21135   0.852   2.725  12.975 -0.0682  0.9911 -2.6172
  173DOPC   H5Y21136   0.831   2.887  13.060  0.2012  1.2628 -2.6881
  173DOPC   C3621137   0.965   2.748  13.155 -0.1555  0.4335  0.4834
  173DOPC   H6X21138   1.026   2.820  13.213  0.3837  0.4363 -0.0716
  173DOPC   H6Y21139   0.881   2.732  13.226 -0.1941 -0.1766  0.3069
  173DOPC   C3721140   1.035   2.617  13.133  0.2604 -0.0763 -0.4786
  173DOPC   H7X21141   0.970   2.558  13.065  0.2742  0.4215 -0.9365
  173DOPC   H7Y21142   1.131   2.624  13.079  0.9534 -1.8849  0.4288
  173DOPC   C3821143   1.041   2.538  13.261  0.2810  0.1204  0.1500
  173DOPC   H8X21144   1.098   2.449  13.226  2.4998  1.4185  0.2734
  173DOPC   H8Y21145   0.940   2.498  13.286  0.8936 -2.8506 -1.6312
  173DOPC   C3921146   1.119   2.593  13.380 -0.0157 -0.2228  0.0008
  173DOPC   H9X21147   1.222   2.628  13.365 -0.1400 -0.1385 -0.6811
  173DOPC  C31021148   1.074   2.638  13.501 -0.4384  0.4469  0.3087
  173DOPC  H10X21149   1.138   2.664  13.587 -1.4686  1.7481  0.7158
  173DOPC  C31121150   0.928   2.646  13.543 -0.2321 -0.2431  0.0284
  173DOPC  H11X21151   0.903   2.559  13.608 -0.4262 -0.2682 -0.0788
  173DOPC  H11Y21152   0.861   2.638  13.454 -0.6470  0.9903  0.2197
  173DOPC  C31221153   0.887   2.779  13.615 -0.1645 -0.4699  0.0770
  173DOPC  H12X21154   0.972   2.807  13.681 -0.3673  1.8416 -0.5632
  173DOPC  H12Y21155   0.795   2.767  13.675 -1.7167 -0.1977 -2.1364
  173DOPC  C31321156   0.843   2.898  13.525  0.0578  0.4627 -0.9422
  173DOPC  H13X21157   0.927   2.931  13.461  1.5808 -2.5213 -0.6867
  173DOPC  H13Y21158   0.759   2.859  13.464  0.1200  3.1235 -2.8702
  173DOPC  C31421159   0.785   3.023  13.596  0.1959 -0.0247  0.8665
  173DOPC  H14X21160   0.693   2.990  13.650  1.0032 -1.1027  1.6101
  173DOPC  H14Y21161   0.864   3.050  13.669  1.4961  2.3332 -1.2530
  173DOPC  C31521162   0.776   3.145  13.499 -0.0073  0.1862 -0.0657
  173DOPC  H15X21163   0.874   3.161  13.450  0.6013 -0.7962  0.7863
  173DOPC  H15Y21164   0.756   3.232  13.565 -1.5675 -1.1373  1.3285
  173DOPC  C31621165   0.666   3.129  13.395  0.4606 -0.4927  0.3795
  173DOPC  H16X21166   0.679   3.048  13.320  0.2556 -1.3327  1.2384
  173DOPC  H16Y21167   0.570   3.108  13.446  0.6775 -0.6603  0.7253
  173DOPC  C31721168   0.633   3.256  13.316 -0.1379 -0.2511 -0.1497
  173DOPC  H17X21169   0.530   3.291  13.336  0.0162  0.4414 -0.5274
  173DOPC  H17Y21170   0.696   3.340  13.354 -2.7020  1.8111 -0.1484
  173DOPC  C31821171   0.647   3.245  13.168  0.0680  1.1565 -0.3170
  173DOPC  H18X21172   0.595   3.153  13.132  2.1935  0.5092 -1.9418
  173DOPC  H18Y21173   0.605   3.336  13.120 -0.3876  0.6660 -0.8682
  173DOPC  H18Z21174   0.754   3.241  13.139 -0.1646  0.7730 -1.1455
  174DOPC     N21175   5.494   1.637  11.575 -0.0906 -0.2081 -0.4842
  174DOPC   C1221176   5.478   1.657  11.731  0.2625  0.7125  1.2504
  174DOPC  H12A21177   5.481   1.563  11.785  2.3823  1.3232  2.3252
  174DOPC  H12B21178   5.379   1.695  11.750  0.8368  3.2398 -0.4221
  174DOPC   C1321179   5.473   1.770  11.503 -0.8331 -0.7817  0.6855
  174DOPC  H13A21180   5.377   1.812  11.527 -0.1470  0.6214  1.0652
  174DOPC  H13B21181   5.540   1.847  11.538 -0.7456 -0.2126 -0.7035
  174DOPC  H13C21182   5.487   1.758  11.397 -1.0989  0.5633  0.4920
  174DOPC   C1421183   5.415   1.528  11.520  0.1967  0.5659  0.3198
  174DOPC  H14A21184   5.413   1.527  11.412  0.5425 -0.1182  0.3108
  174DOPC  H14B21185   5.450   1.431  11.553  0.1312 -0.6994 -2.9792
  174DOPC  H14C21186   5.312   1.531  11.552 -0.1814 -2.7538 -0.2493
  174DOPC   C1521187   5.628   1.589  11.551  0.4550 -0.4038  0.3772
  174DOPC  H15A21188   5.646   1.493  11.596 -0.4152 -0.5633  0.3930
  174DOPC  H15B21189   5.697   1.654  11.604  1.4006 -1.6592  0.7313
  174DOPC  H15C21190   5.658   1.567  11.450 -0.9011 -0.4489 -0.0245
  174DOPC   C1121191   5.560   1.762  11.798 -0.0463  0.6923  0.7490
  174DOPC  H11A21192   5.541   1.751  11.907 -2.0016  0.3799  0.4119
  174DOPC  H11B21193   5.668   1.753  11.775 -0.4903 -0.7263 -0.9816
  174DOPC     P21194   5.582   2.016  11.810  0.1700 -0.1048  0.0721
  174DOPC   O1321195   5.486   2.128  11.780 -0.4535  0.0610 -0.0150
  174DOPC   O1421196   5.718   2.019  11.748  0.2203 -0.0345 -0.5032
  174DOPC   O1221197   5.511   1.887  11.756  1.0323  0.3076  0.1939
  174DOPC   O1121198   5.591   1.982  11.960 -0.0116 -0.3368  0.2566
  174DOPC    C121199   5.485   1.968  12.048  0.4431  0.6342  0.0583
  174DOPC    HA21200   5.458   1.865  12.080 -0.7753  1.4723  1.9356
  174DOPC    HB21201   5.401   2.028  12.007  0.9972  0.3271 -1.6122
  174DOPC    C221202   5.514   2.030  12.184  0.2390  0.2212  0.0942
  174DOPC    HS21203   5.418   2.024  12.238  0.4815  1.5597  0.7262
  174DOPC   O2121204   5.562   2.167  12.167 -0.0932  0.0508 -0.2008
  174DOPC   C2121205   5.457   2.243  12.148  0.0695 -0.7405  1.0472
  174DOPC   O2221206   5.340   2.217  12.173  0.1387 -0.1015 -0.0578
  174DOPC   C2221207   5.515   2.373  12.096 -0.1543 -0.1853  0.5948
  174DOPC   H2R21208   5.434   2.439  12.059  0.5615 -0.0014 -0.7092
  174DOPC   H2S21209   5.589   2.358  12.014 -0.2103  5.3022 -0.8331
  174DOPC    C321210   5.621   1.941  12.261  0.4771 -0.1597 -0.3232
  174DOPC    HX21211   5.720   1.949  12.211  0.7867  2.8439  0.5749
  174DOPC    HY21212   5.587   1.835  12.266  0.2587 -0.0450  1.0675
  174DOPC   O3121213   5.640   1.997  12.391  0.2577 -0.2680  0.2126
  174DOPC   C3121214   5.544   1.979  12.482  0.4929 -0.2902  0.1896
  174DOPC   O3221215   5.446   1.904  12.467  0.2583  0.1587  0.6857
  174DOPC   C3221216   5.572   2.049  12.616 -0.7237  0.2233 -0.3127
  174DOPC   H2X21217   5.490   2.011  12.680  0.7555 -0.2059  1.4280
  174DOPC   H2Y21218   5.675   2.019  12.646 -0.6274  1.1067  0.2690
  174DOPC   C2321219   5.595   2.446  12.209 -0.8513 -0.0094 -0.6573
  174DOPC   H3R21220   5.648   2.529  12.158 -1.8975  0.9701 -0.2258
  174DOPC   H3S21221   5.672   2.384  12.260  0.4523  2.2923  0.3230
  174DOPC   C2421222   5.503   2.511  12.309  0.0090  0.3664 -0.5117
  174DOPC   H4R21223   5.451   2.427  12.361  1.6878 -1.3664 -1.4985
  174DOPC   H4S21224   5.426   2.579  12.268 -0.5011  1.9765  2.7725
  174DOPC   C2521225   5.579   2.584  12.416  0.2679  0.0530  0.0870
  174DOPC   H5R21226   5.628   2.676  12.379  3.3163 -1.2175  0.6222
  174DOPC   H5S21227   5.664   2.529  12.462 -0.0559  1.5905  2.7511
  174DOPC   C2621228   5.487   2.617  12.530 -0.1619 -0.2884 -0.1176
  174DOPC   H6R21229   5.512   2.546  12.611  0.4478 -0.2056 -0.2344
  174DOPC   H6S21230   5.382   2.598  12.500 -0.0195 -0.7918 -0.2910
  174DOPC   C2721231   5.505   2.764  12.582 -0.0922 -0.6629  0.0745
  174DOPC   H7R21232   5.482   2.839  12.504  1.3924  1.0186  1.1978
  174DOPC   H7S21233   5.611   2.778  12.611  0.3630 -0.0860 -1.7718
  174DOPC   C2821234   5.418   2.794  12.700 -0.4598  0.0646  0.1343
  174DOPC   H8R21235   5.434   2.716  12.777 -0.1379  0.0892  0.0952
  174DOPC   H8S21236   5.311   2.789  12.670  0.3200 -2.3931 -2.6999
  174DOPC   C2921237   5.446   2.927  12.764 -0.9806 -0.8744 -0.3399
  174DOPC   H9R21238   5.423   3.016  12.704 -0.6202 -1.0897 -0.8015
  174DOPC  C21021239   5.488   2.947  12.893  0.4839  0.5433 -0.1086
  174DOPC  H10R21240   5.508   3.051  12.923 -1.4123  0.8078  0.3916
  174DOPC  C21121241   5.512   2.849  13.005 -0.4841 -0.6460  0.2156
  174DOPC  H11R21242   5.601   2.883  13.062 -0.7408  1.5316 -0.5826
  174DOPC  H11S21243   5.518   2.746  12.963 -2.0761 -0.1766 -1.2858
  174DOPC  C21221244   5.394   2.852  13.098 -0.1066  0.5330 -0.6318
  174DOPC  H12R21245   5.296   2.834  13.048 -1.3955  0.9900  1.5587
  174DOPC  H12S21246   5.399   2.954  13.142  2.8293  0.2932 -0.2302
  174DOPC  C21321247   5.408   2.755  13.220 -0.0476 -0.2878 -0.0562
  174DOPC  H13R21248   5.507   2.774  13.267  0.3419  0.0284 -0.9821
  174DOPC  H13S21249   5.395   2.647  13.198  1.2466 -0.3103 -0.7628
  174DOPC  C21421250   5.303   2.795  13.323 -0.0209 -0.4502 -0.3578
  174DOPC  H14R21251   5.206   2.777  13.274 -0.4592  0.5472  0.1018
  174DOPC  H14S21252   5.298   2.903  13.351 -0.3310 -0.5146 -0.1642
  174DOPC  C21521253   5.300   2.699  13.441 -0.0561  0.0216  0.3843
  174DOPC  H15R21254   5.403   2.690  13.481 -0.5349 -0.9099  1.4334
  174DOPC  H15S21255   5.260   2.600  13.411  0.1862  0.0100  0.0923
  174DOPC  C21621256   5.215   2.760  13.558 -0.1448  0.5919  0.1347
  174DOPC  H16R21257   5.111   2.777  13.522 -0.2113 -0.8466 -0.4335
  174DOPC  H16S21258   5.250   2.860  13.592 -0.5150 -0.2259  3.2154
  174DOPC  C21721259   5.214   2.663  13.679 -0.3895  0.2663  0.3549
  174DOPC  H17R21260   5.309   2.678  13.736 -1.4996  0.1056  2.3103
  174DOPC  H17S21261   5.209   2.558  13.645  1.0551 -0.0651  1.0544
  174DOPC  C21821262   5.096   2.696  13.775  0.2537  0.0756  0.7813
  174DOPC  H18R21263   5.098   2.630  13.864  1.2586  2.3860  2.5499
  174DOPC  H18S21264   5.003   2.692  13.714  2.3836 -2.6051 -2.7514
  174DOPC  H18T21265   5.108   2.803  13.801  3.3181  0.2668 -0.9481
  174DOPC   C3321266   5.550   2.206  12.603 -0.2517 -0.7120  0.6760
  174DOPC   H3X21267   5.448   2.235  12.569  0.1442 -1.3373 -1.1918
  174DOPC   H3Y21268   5.614   2.237  12.518 -0.5222 -2.4267 -0.1933
  174DOPC   C3421269   5.584   2.277  12.736  0.0950  0.2316 -0.4583
  174DOPC   H4X21270   5.590   2.385  12.713 -1.6651  0.3477 -0.5114
  174DOPC   H4Y21271   5.681   2.230  12.761  0.0558  0.4270  0.0785
  174DOPC   C3521272   5.490   2.246  12.851  0.2597 -0.7995  0.0761
  174DOPC   H5X21273   5.507   2.138  12.871 -0.4028 -0.5419  2.2985
  174DOPC   H5Y21274   5.383   2.265  12.827  0.1099  1.0307  1.8861
  174DOPC   C3621275   5.528   2.318  12.983  0.4185 -0.2812 -0.2305
  174DOPC   H6X21276   5.636   2.297  12.995  0.6599  0.4260 -1.0509
  174DOPC   H6Y21277   5.523   2.429  12.981 -0.6515 -0.3105 -0.0087
  174DOPC   C3721278   5.445   2.265  13.105 -0.6421 -0.0709  0.1629
  174DOPC   H7X21279   5.336   2.281  13.090 -0.4434 -0.7619 -2.6727
  174DOPC   H7Y21280   5.450   2.155  13.119  1.6868  0.2009  1.9994
  174DOPC   C3821281   5.482   2.330  13.237 -0.4553 -0.2430  0.4589
  174DOPC   H8X21282   5.410   2.288  13.310  2.5745 -3.0423  2.1182
  174DOPC   H8Y21283   5.456   2.437  13.226  1.2887  0.0537 -1.2636
  174DOPC   C3921284   5.627   2.304  13.283 -0.5956 -0.0944 -0.3179
  174DOPC   H9X21285   5.681   2.225  13.228 -2.7758 -2.1690  0.3678
  174DOPC  C31021286   5.701   2.387  13.367 -0.7737  0.7986 -0.7211
  174DOPC  H10X21287   5.807   2.366  13.385 -0.6658  2.2998  0.5528
  174DOPC  C31121288   5.644   2.513  13.437  0.4053 -0.0167  0.2347
  174DOPC  H11X21289   5.535   2.516  13.414  0.1578 -0.1568  1.3392
  174DOPC  H11Y21290   5.692   2.608  13.404  1.1039 -1.0575 -1.9455
  174DOPC  C31221291   5.638   2.507  13.593 -0.3475  0.3644  0.4064
  174DOPC  H12X21292   5.609   2.603  13.641  2.1888  2.0672 -1.2624
  174DOPC  H12Y21293   5.739   2.477  13.626 -0.2560  1.7548  1.4956
  174DOPC  C31321294   5.541   2.397  13.654  0.0864  0.9473  0.3190
  174DOPC  H13X21295   5.437   2.435  13.646 -1.2271 -2.6059 -2.0816
  174DOPC  H13Y21296   5.557   2.300  13.603 -0.2705 -0.4984  2.8101
  174DOPC  C31421297   5.570   2.379  13.803 -0.0033 -0.2102  0.2295
  174DOPC  H14X21298   5.671   2.333  13.808 -0.2655 -0.8556 -0.2884
  174DOPC  H14Y21299   5.578   2.481  13.847 -1.2273 -0.2885  0.6805
  174DOPC  C31521300   5.474   2.297  13.879  0.1086 -0.2203  0.5375
  174DOPC  H15X21301   5.485   2.191  13.848 -0.2631 -0.6630  1.8412
  174DOPC  H15Y21302   5.370   2.329  13.857  0.7049  2.7811  1.6555
  174DOPC  C31621303   5.475   2.315  14.028  1.0593 -0.1256 -0.2372
  174DOPC  H16X21304   5.470   2.422  14.060  1.0669  0.4010 -1.9312
  174DOPC  H16Y21305   5.387   2.263  14.071  1.1095  0.1943  0.2654
  174DOPC  C31721306   5.604   2.264  14.094 -0.9207 -0.8718  0.6646
  174DOPC  H17X21307   5.628   2.158  14.070 -0.2460 -0.6781  0.4702
  174DOPC  H17Y21308   5.690   2.322  14.054 -2.7505  1.5355  0.0013
  174DOPC  C31821309   5.607   2.280  14.247 -0.3984 -0.7692  0.0343
  174DOPC  H18X21310   5.584   2.386  14.270 -0.0283  0.0011 -2.7699
  174DOPC  H18Y21311   5.527   2.226  14.302 -1.8438  0.1497 -1.0863
  174DOPC  H18Z21312   5.705   2.264  14.296 -0.1057  0.4036 -0.1269
  175DOPC     N21313   3.572   5.982  12.343  0.1955 -0.8957 -0.4398
  175DOPC   C1221314   3.600   6.085  12.442 -0.0930 -0.2379 -0.0888
  175DOPC  H12A21315   3.558   6.179  12.408  1.0416  0.2535 -0.1536
  175DOPC  H12B21316   3.705   6.110  12.439 -0.4725  1.4670 -1.6722
  175DOPC   C1321317   3.422   5.949  12.356 -0.6858  0.0223 -0.6072
  175DOPC  H13A21318   3.386   5.867  12.296 -0.0507 -1.4556  0.9622
  175DOPC  H13B21319   3.403   5.921  12.459 -1.7739 -0.3649 -0.9002
  175DOPC  H13C21320   3.350   6.028  12.341 -2.1109 -1.4331 -1.9300
  175DOPC   C1421321   3.657   5.858  12.369 -0.5604 -0.8743 -0.0502
  175DOPC  H14A21322   3.643   5.813  12.466  0.5063  1.5364  1.2952
  175DOPC  H14B21323   3.638   5.785  12.292  0.9706 -2.0925  0.6646
  175DOPC  H14C21324   3.761   5.890  12.369 -1.1591  1.2354  0.6694
  175DOPC   C1521325   3.578   6.028  12.200  0.2869  0.2736 -0.3779
  175DOPC  H15A21326   3.666   6.086  12.177 -0.7493  1.1356 -2.4238
  175DOPC  H15B21327   3.489   6.080  12.168  0.2511 -0.9914 -2.5470
  175DOPC  H15C21328   3.579   5.943  12.134 -0.3676 -0.1180  0.0987
  175DOPC   C1121329   3.568   6.056  12.589  0.3812  0.2503 -0.4200
  175DOPC  H11A21330   3.608   5.954  12.608  0.0862 -0.1377 -1.7905
  175DOPC  H11B21331   3.625   6.127  12.653  0.5396 -0.5573  0.3494
  175DOPC     P21332   3.371   6.222  12.655 -0.3917 -0.0977 -0.3431
  175DOPC   O1321333   3.225   6.225  12.640 -0.1140  0.1013 -0.0008
  175DOPC   O1421334   3.449   6.309  12.561 -0.2561 -0.1303  0.0670
  175DOPC   O1221335   3.428   6.071  12.626  0.3049 -0.7500 -0.2578
  175DOPC   O1121336   3.412   6.253  12.804 -0.1351  0.1470  0.3234
  175DOPC    C121337   3.426   6.154  12.902 -0.0460  0.6597  0.1616
  175DOPC    HA21338   3.498   6.190  12.978 -0.0607  0.0873  0.4557
  175DOPC    HB21339   3.462   6.056  12.862 -2.8108 -0.2087 -0.4202
  175DOPC    C221340   3.288   6.119  12.966 -0.1606 -0.9205  0.3369
  175DOPC    HS21341   3.227   6.051  12.903 -0.1884 -1.6342  1.1221
  175DOPC   O2121342   3.227   6.245  13.005  0.2613 -0.1229 -0.4165
  175DOPC   C2121343   3.097   6.242  13.016 -0.4768  0.2081 -0.3968
  175DOPC   O2221344   3.025   6.153  12.980  0.9624 -0.1002 -0.0046
  175DOPC   C2221345   3.055   6.367  13.092 -0.0785 -0.0024 -0.3475
  175DOPC   H2R21346   3.075   6.461  13.035 -1.9136  1.0403  0.6413
  175DOPC   H2S21347   3.122   6.374  13.180 -2.4157  0.5189  1.4902
  175DOPC    C321348   3.313   6.038  13.093 -0.4644 -0.1753  0.1388
  175DOPC    HX21349   3.223   6.010  13.151 -0.0413  1.0427  1.4411
  175DOPC    HY21350   3.362   6.116  13.155  1.1145 -0.0364 -1.1969
  175DOPC   O3121351   3.409   5.931  13.070  0.5028 -0.4372 -0.8266
  175DOPC   C3121352   3.358   5.812  13.063  1.2393 -0.2156  0.1698
  175DOPC   O3221353   3.232   5.793  13.058 -0.9715  0.6107  0.4473
  175DOPC   C3221354   3.460   5.707  13.035 -0.3494 -0.2270 -0.3055
  175DOPC   H2X21355   3.441   5.666  12.933  2.0055  1.7979 -1.6761
  175DOPC   H2Y21356   3.557   5.757  13.016 -0.5603  0.3683  0.1362
  175DOPC   C2321357   2.903   6.366  13.129  0.6928  0.1355 -0.7351
  175DOPC   H3R21358   2.839   6.352  13.039 -2.3951  2.5358  0.8611
  175DOPC   H3S21359   2.881   6.469  13.164 -0.6334 -0.2315 -0.4260
  175DOPC   C2421360   2.862   6.273  13.244  0.2061  0.0475  0.1035
  175DOPC   H4R21361   2.880   6.166  13.222 -1.3903 -0.0317 -0.9684
  175DOPC   H4S21362   2.755   6.286  13.269 -0.3855 -1.0394 -1.7125
  175DOPC   C2521363   2.933   6.323  13.369 -0.4192  0.4795 -0.3316
  175DOPC   H5R21364   2.916   6.433  13.377  2.7349  1.0720 -0.6064
  175DOPC   H5S21365   3.044   6.322  13.371 -0.3637  1.9262  2.4914
  175DOPC   C2621366   2.895   6.249  13.499  0.2092 -0.9818  0.4577
  175DOPC   H6R21367   2.922   6.141  13.492  0.6552 -0.8392 -0.1940
  175DOPC   H6S21368   2.785   6.257  13.505  0.3421  0.8153  0.8051
  175DOPC   C2721369   2.955   6.318  13.616 -0.5112 -0.0040 -0.3189
  175DOPC   H7R21370   2.931   6.425  13.596 -2.1623 -0.4775 -0.9797
  175DOPC   H7S21371   3.064   6.295  13.627 -0.3870 -0.1244 -1.6171
  175DOPC   C2821372   2.876   6.268  13.745 -0.7132 -0.0351  0.0376
  175DOPC   H8R21373   2.772   6.303  13.724 -0.6103  0.4345  0.2927
  175DOPC   H8S21374   2.904   6.324  13.836 -0.5740  0.3497 -0.2394
  175DOPC   C2921375   2.876   6.117  13.770  0.5809  1.0679 -0.0857
  175DOPC   H9R21376   2.805   6.063  13.706  1.3291 -0.2864  0.1790
  175DOPC  C21021377   2.961   6.053  13.853  0.6009 -0.4393 -0.5094
  175DOPC  H10R21378   2.959   5.944  13.859  1.1179 -0.4523 -0.5160
  175DOPC  C21121379   3.065   6.124  13.934  0.2116  0.2946  0.2205
  175DOPC  H11R21380   3.024   6.223  13.962 -0.3835  0.9140 -2.4891
  175DOPC  H11S21381   3.159   6.133  13.875  0.6097  2.6241  1.1270
  175DOPC  C21221382   3.107   6.051  14.062 -0.0044  0.5678  0.7613
  175DOPC  H12R21383   3.178   5.972  14.030  2.6873  2.3340  1.9763
  175DOPC  H12S21384   3.017   6.006  14.109 -0.5476 -0.8484 -1.4972
  175DOPC  C21321385   3.182   6.138  14.170  0.5891  0.9588  0.7228
  175DOPC  H13R21386   3.210   6.090  14.266 -0.4584  2.0084  1.5824
  175DOPC  H13S21387   3.113   6.219  14.201  1.0505  0.8600  2.0387
  175DOPC  C21421388   3.311   6.205  14.122  0.0161 -0.3508  0.0401
  175DOPC  H14R21389   3.280   6.277  14.043 -2.4022  0.8491  1.9685
  175DOPC  H14S21390   3.382   6.130  14.080 -0.7697 -0.1349 -1.7774
  175DOPC  C21521391   3.375   6.286  14.235  0.4524 -0.0442  0.5978
  175DOPC  H15R21392   3.483   6.301  14.213  0.0567  0.1695 -1.3621
  175DOPC  H15S21393   3.373   6.215  14.321  1.4483 -1.7144 -0.7186
  175DOPC  C21621394   3.313   6.421  14.256 -0.7740 -0.2957  0.0625
  175DOPC  H16R21395   3.203   6.403  14.260 -0.4500 -2.5596  0.2088
  175DOPC  H16S21396   3.327   6.481  14.163 -2.6051  0.3915  0.1889
  175DOPC  C21721397   3.364   6.504  14.373  0.3035 -0.3041  0.2226
  175DOPC  H17R21398   3.474   6.515  14.368  0.2898 -0.2718 -0.0821
  175DOPC  H17S21399   3.351   6.451  14.470 -1.5306  2.2891  1.5175
  175DOPC  C21821400   3.296   6.641  14.405 -0.5089 -0.0173  0.1045
  175DOPC  H18R21401   3.188   6.638  14.430 -1.4908  0.0982 -3.4655
  175DOPC  H18S21402   3.300   6.701  14.311  2.0155 -0.6697 -0.2615
  175DOPC  H18T21403   3.357   6.691  14.482  0.5728 -0.1358 -0.6583
  175DOPC   C3321404   3.474   5.591  13.139 -0.7894 -0.1541  0.2280
  175DOPC   H3X21405   3.531   5.513  13.084 -0.4611  1.9811 -2.7141
  175DOPC   H3Y21406   3.373   5.558  13.170 -0.5352 -1.1755  0.0220
  175DOPC   C3421407   3.559   5.638  13.264  0.5094 -0.3172  0.4147
  175DOPC   H4X21408   3.492   5.689  13.336  2.2241 -1.5741  3.0466
  175DOPC   H4Y21409   3.634   5.717  13.239 -0.4143  0.9743  1.5997
  175DOPC   C3521410   3.633   5.529  13.331 -0.5199 -0.4125 -0.0208
  175DOPC   H5X21411   3.713   5.485  13.268 -0.0532  2.6192 -1.6875
  175DOPC   H5Y21412   3.567   5.443  13.359 -0.3462 -0.9465 -1.1867
  175DOPC   C3621413   3.688   5.577  13.464  0.1590 -0.4278 -0.0836
  175DOPC   H6X21414   3.732   5.678  13.448 -0.0853 -0.3437 -0.2382
  175DOPC   H6Y21415   3.610   5.595  13.540  0.3577  1.6064 -0.2945
  175DOPC   C3721416   3.793   5.487  13.516 -1.0078 -0.1740  0.2469
  175DOPC   H7X21417   3.780   5.384  13.476 -0.4945  1.3671 -4.5224
  175DOPC   H7Y21418   3.891   5.519  13.474 -1.6330  1.2252 -0.2344
  175DOPC   C3821419   3.784   5.484  13.670 -0.0941 -0.8213 -0.4485
  175DOPC   H8X21420   3.688   5.432  13.691 -1.8114  2.9272  2.0219
  175DOPC   H8Y21421   3.772   5.590  13.699  1.0173 -0.4873 -1.1506
  175DOPC   C3921422   3.911   5.423  13.731 -0.1010 -0.2643 -0.6067
  175DOPC   H9X21423   3.942   5.329  13.682  1.3105  0.0401 -0.3535
  175DOPC  C31021424   3.964   5.445  13.851  0.5248  0.0847 -0.0851
  175DOPC  H10X21425   4.045   5.380  13.888 -1.7375 -1.3143  2.8493
  175DOPC  C31121426   3.899   5.540  13.955 -1.2151 -0.2467 -0.8871
  175DOPC  H11X21427   3.886   5.477  14.045 -2.9434  0.2277 -0.7868
  175DOPC  H11Y21428   3.800   5.586  13.933 -0.1591  1.8051 -1.6669
  175DOPC  C31221429   3.989   5.662  13.978  0.4797 -0.1650  0.7695
  175DOPC  H12X21430   4.086   5.632  14.021 -0.3520 -2.5534  1.1275
  175DOPC  H12Y21431   3.927   5.725  14.045  0.7347  0.7265  0.1868
  175DOPC  C31321432   4.020   5.755  13.859  0.4111  0.0266  0.5909
  175DOPC  H13X21433   4.056   5.693  13.774  2.8191 -0.5688  1.9863
  175DOPC  H13Y21434   3.930   5.807  13.820  0.7692  0.5421  0.4434
  175DOPC  C31421435   4.131   5.859  13.883 -0.1482 -0.2074  0.0164
  175DOPC  H14X21436   4.224   5.810  13.921  0.2213  0.3536 -0.1517
  175DOPC  H14Y21437   4.149   5.894  13.780 -2.4939 -0.3769 -0.4975
  175DOPC  C31521438   4.099   5.987  13.963  0.5951 -0.3802  0.5681
  175DOPC  H15X21439   4.100   5.972  14.074  2.5575  3.8284  1.2929
  175DOPC  H15Y21440   3.998   6.032  13.948  0.1115 -0.7724  2.2943
  175DOPC  C31621441   4.199   6.095  13.933 -0.6300 -0.6039  0.5387
  175DOPC  H16X21442   4.302   6.056  13.940 -1.7555 -3.9113  0.5332
  175DOPC  H16Y21443   4.190   6.130  13.828 -1.1656  0.1639  0.8314
  175DOPC  C31721444   4.183   6.219  14.027 -0.1958 -0.3828 -1.4331
  175DOPC  H17X21445   4.079   6.250  14.049  1.3390  5.0078 -0.2176
  175DOPC  H17Y21446   4.215   6.183  14.127 -0.2803  0.0057 -1.2653
  175DOPC  C31821447   4.259   6.346  13.984 -1.1607 -0.2102  0.2181
  175DOPC  H18X21448   4.283   6.421  14.062  0.0815  0.7676 -1.0736
  175DOPC  H18Y21449   4.355   6.311  13.942  0.9444  2.8274  2.1478
  175DOPC  H18Z21450   4.190   6.394  13.911 -1.1430 -2.9909 -1.7992
  176DOPC     N21451   3.407   1.915  12.092  0.3221 -0.0602 -0.5884
  176DOPC   C1221452   3.303   2.023  12.152  0.5808 -0.1185  0.1616
  176DOPC  H12A21453   3.248   2.070  12.072 -0.9629  0.9998  1.8106
  176DOPC  H12B21454   3.365   2.099  12.196  2.5047 -1.3715 -0.2623
  176DOPC   C1321455   3.328   1.819  12.027  0.3269  0.3537 -0.0249
  176DOPC  H13A21456   3.275   1.867  11.946 -0.1520 -2.3111 -1.3755
  176DOPC  H13B21457   3.379   1.743  11.971 -0.8390  0.5887 -1.5015
  176DOPC  H13C21458   3.252   1.785  12.096  0.1085 -0.1554 -0.5147
  176DOPC   C1421459   3.494   1.853  12.190 -0.4917 -0.3164  0.0538
  176DOPC  H14A21460   3.438   1.814  12.274 -1.9778  2.1845  0.3084
  176DOPC  H14B21461   3.551   1.780  12.134 -1.5282  1.0907 -3.0116
  176DOPC  H14C21462   3.564   1.926  12.228 -0.7397 -0.3555  0.5925
  176DOPC   C1521463   3.494   1.989  11.998 -0.0907  0.1651 -0.6927
  176DOPC  H15A21464   3.456   2.020  11.902  0.3876 -2.8298 -1.9578
  176DOPC  H15B21465   3.578   1.929  11.968 -1.6447 -2.1489 -0.6654
  176DOPC  H15C21466   3.536   2.077  12.045 -0.8420  0.4057 -0.4553
  176DOPC   C1121467   3.207   1.974  12.262  0.4296 -0.3884 -0.2897
  176DOPC  H11A21468   3.167   1.876  12.228 -1.3171  0.4473 -0.7346
  176DOPC  H11B21469   3.272   1.952  12.349 -0.1160 -0.7526  0.0281
  176DOPC     P21470   2.972   2.022  12.343  0.1862  0.0335 -0.4202
  176DOPC   O1321471   2.916   1.956  12.218  0.2693 -0.1986 -0.3469
  176DOPC   O1421472   2.901   2.138  12.398 -0.3750  0.3690  0.2983
  176DOPC   O1221473   3.113   2.074  12.298 -0.1350  1.1147 -0.1693
  176DOPC   O1121474   2.997   1.912  12.457 -0.2585 -0.0565 -0.2945
  176DOPC    C121475   3.051   1.956  12.584  0.0511 -0.2058 -0.1712
  176DOPC    HA21476   3.111   2.047  12.564  0.0068  0.7022  3.2451
  176DOPC    HB21477   3.118   1.881  12.630 -0.7788 -1.4677 -0.9381
  176DOPC    C221478   2.933   1.997  12.683 -0.5847  0.7662 -0.1042
  176DOPC    HS21479   2.840   2.007  12.623 -1.7522  2.1954  1.8406
  176DOPC   O2121480   2.977   2.118  12.751 -0.0891 -0.0466  0.1289
  176DOPC   C2121481   2.868   2.195  12.784  0.0668  0.3316 -0.5276
  176DOPC   O2221482   2.756   2.162  12.749 -0.2160  0.1697  0.4880
  176DOPC   C2221483   2.912   2.319  12.865  0.1057 -0.6216  0.7831
  176DOPC   H2R21484   3.018   2.329  12.833 -0.3641  2.0043 -0.2264
  176DOPC   H2S21485   2.901   2.316  12.975 -0.0202  0.5807  0.8071
  176DOPC    C321486   2.894   1.881  12.789 -0.6753 -0.0983 -0.1827
  176DOPC    HX21487   2.883   1.793  12.722 -2.8945  0.7323 -1.0218
  176DOPC    HY21488   2.794   1.910  12.829 -0.4701  1.8813 -0.9572
  176DOPC   O3121489   2.995   1.855  12.882 -0.3499 -0.2070  0.1504
  176DOPC   C3121490   2.980   1.915  13.001  0.4742  0.0985  0.0994
  176DOPC   O3221491   2.894   1.996  13.028 -0.4805  1.0579 -0.0431
  176DOPC   C3221492   3.080   1.860  13.102  0.3846  0.1101  0.1987
  176DOPC   H2X21493   3.173   1.831  13.050  0.2009  0.6461 -0.4435
  176DOPC   H2Y21494   3.110   1.937  13.176 -0.5956 -0.9327  1.7477
  176DOPC   C2321495   2.835   2.440  12.808  0.9278  0.3005 -0.1382
  176DOPC   H3R21496   2.832   2.435  12.697  1.1195 -4.1674 -0.1392
  176DOPC   H3S21497   2.890   2.529  12.845  2.5548 -0.4850 -0.5553
  176DOPC   C2421498   2.690   2.463  12.860  0.0721  0.0784  0.2802
  176DOPC   H4R21499   2.622   2.384  12.822  1.2809 -0.8198 -0.0788
  176DOPC   H4S21500   2.654   2.561  12.822  0.2884  0.7337  1.6964
  176DOPC   C2521501   2.679   2.457  13.016 -0.8278  0.2694 -0.0288
  176DOPC   H5R21502   2.758   2.528  13.051 -1.4522  0.5959  0.7248
  176DOPC   H5S21503   2.704   2.361  13.064 -0.1338 -0.6196 -2.0354
  176DOPC   C2621504   2.553   2.503  13.076  0.3000  0.2561  0.4051
  176DOPC   H6R21505   2.506   2.589  13.024 -0.2778 -0.0521  0.4186
  176DOPC   H6S21506   2.586   2.546  13.174  0.0505 -0.7934  0.9593
  176DOPC   C2721507   2.447   2.392  13.112  0.3270 -0.2737  0.3167
  176DOPC   H7R21508   2.473   2.329  13.200  0.3251 -3.0701 -1.5549
  176DOPC   H7S21509   2.440   2.328  13.021 -0.5762  0.3393 -0.0633
  176DOPC   C2821510   2.304   2.454  13.126 -1.0185 -0.2744 -0.0711
  176DOPC   H8R21511   2.284   2.508  13.031 -0.2764 -1.3421 -0.8561
  176DOPC   H8S21512   2.303   2.532  13.206  0.0579 -0.4723  0.1581
  176DOPC   C2921513   2.203   2.348  13.160 -1.1461  0.2853  0.5573
  176DOPC   H9R21514   2.163   2.298  13.070 -0.1115  0.6557 -0.1253
  176DOPC  C21021515   2.158   2.310  13.281 -0.6988  0.4389 -0.1156
  176DOPC  H10R21516   2.093   2.221  13.288 -0.1928  0.0966  0.3036
  176DOPC  C21121517   2.187   2.379  13.413 -0.5787 -1.3387  0.0035
  176DOPC  H11R21518   2.294   2.397  13.436 -0.5262  0.4179 -1.3964
  176DOPC  H11S21519   2.143   2.297  13.474 -0.7605 -1.6915 -0.5962
  176DOPC  C21221520   2.101   2.508  13.436  0.0294 -0.3839 -0.3089
  176DOPC  H12R21521   1.992   2.486  13.440  0.0481 -0.3983  0.2619
  176DOPC  H12S21522   2.108   2.568  13.343 -0.3728 -0.5993 -0.4791
  176DOPC  C21321523   2.149   2.585  13.562  0.4663  0.1838 -0.2456
  176DOPC  H13R21524   2.260   2.590  13.572  0.5538  3.2102 -1.5080
  176DOPC  H13S21525   2.108   2.530  13.650 -0.6007  0.9139 -0.2655
  176DOPC  C21421526   2.080   2.717  13.561  0.5523 -0.2225  0.0728
  176DOPC  H14R21527   1.974   2.709  13.530  0.9902  1.9282 -2.3426
  176DOPC  H14S21528   2.131   2.785  13.488 -1.4303  1.2656 -0.0112
  176DOPC  C21521529   2.083   2.780  13.696 -0.0435  0.5161 -0.0155
  176DOPC  H15R21530   2.087   2.890  13.679 -0.4601  0.3744 -1.1408
  176DOPC  H15S21531   2.189   2.774  13.728  0.1123  0.6521 -0.4881
  176DOPC  C21621532   1.989   2.730  13.806 -0.0275 -0.6963  0.5418
  176DOPC  H16R21533   1.979   2.620  13.809  1.0481 -0.8457 -0.2800
  176DOPC  H16S21534   1.892   2.776  13.780  1.5952  3.6723  1.3118
  176DOPC  C21721535   2.036   2.784  13.939 -0.2308 -0.8681 -0.3472
  176DOPC  H17R21536   1.950   2.779  14.009 -1.2048  0.8375 -1.3476
  176DOPC  H17S21537   2.077   2.887  13.930  2.0058 -1.8289 -1.9217
  176DOPC  C21821538   2.152   2.698  13.994  0.2444 -0.7173 -0.1759
  176DOPC  H18R21539   2.125   2.591  13.981  0.9339 -0.5911 -3.4488
  176DOPC  H18S21540   2.162   2.716  14.104 -1.6581  1.1146 -0.2370
  176DOPC  H18T21541   2.248   2.717  13.942  0.6550 -0.0423  0.7820
  176DOPC   C3321542   3.020   1.732  13.173 -0.4456  0.1852  0.7178
  176DOPC   H3X21543   2.999   1.656  13.095  2.1872 -0.7103  0.7972
  176DOPC   H3Y21544   2.925   1.760  13.224 -0.9757 -0.1432 -0.0646
  176DOPC   C3421545   3.122   1.656  13.264 -0.2084 -0.5929 -0.2708
  176DOPC   H4X21546   3.144   1.718  13.354  0.3723 -2.5091  0.9608
  176DOPC   H4Y21547   3.217   1.634  13.211  1.0306  2.5164  0.4067
  176DOPC   C3521548   3.063   1.524  13.315  0.1753  0.2320 -0.4700
  176DOPC   H5X21549   3.036   1.465  13.225  0.2037  0.9125 -0.9372
  176DOPC   H5Y21550   2.977   1.552  13.379  0.6117 -1.1369  0.7685
  176DOPC   C3621551   3.149   1.452  13.416  0.1258 -0.4534  0.0230
  176DOPC   H6X21552   3.102   1.356  13.447 -0.6568 -0.4681 -1.1205
  176DOPC   H6Y21553   3.246   1.432  13.366 -0.4096  0.0613 -1.2631
  176DOPC   C3721554   3.198   1.535  13.538  0.0435 -0.2712 -0.7703
  176DOPC   H7X21555   3.280   1.484  13.592  0.6941 -0.4064 -1.8686
  176DOPC   H7Y21556   3.246   1.629  13.505  0.2422 -1.1443 -3.1130
  176DOPC   C3821557   3.090   1.571  13.647  0.0645 -0.8768 -0.4511
  176DOPC   H8X21558   3.024   1.642  13.592  0.0732  0.3184  1.0107
  176DOPC   H8Y21559   3.148   1.640  13.712 -2.3199 -1.1776  2.1826
  176DOPC   C3921560   3.016   1.468  13.726  0.0113 -0.2969 -0.2530
  176DOPC   H9X21561   2.957   1.404  13.658 -2.5804  2.1171 -0.4535
  176DOPC  C31021562   3.020   1.455  13.857  0.0054 -0.1886 -0.0716
  176DOPC  H10X21563   2.982   1.358  13.894 -1.7967 -0.4838 -2.4586
  176DOPC  C31121564   3.097   1.529  13.962 -0.5671 -0.4954  0.0547
  176DOPC  H11X21565   3.177   1.594  13.919  0.0566 -0.6297  0.9765
  176DOPC  H11Y21566   3.147   1.459  14.032 -0.3274  0.6260  1.0426
  176DOPC  C31221567   3.003   1.612  14.046 -0.2030  0.9192  0.2777
  176DOPC  H12X21568   2.956   1.691  13.982 -0.7390  0.4849  0.1211
  176DOPC  H12Y21569   3.064   1.668  14.120  1.0254 -0.5095  0.3826
  176DOPC  C31321570   2.890   1.531  14.114 -0.0983 -0.0094 -1.0468
  176DOPC  H13X21571   2.809   1.512  14.040 -1.6053  1.7669  0.0873
  176DOPC  H13Y21572   2.926   1.428  14.135  0.7607  0.2729 -1.0956
  176DOPC  C31421573   2.839   1.598  14.236  0.2295  0.9171 -0.4935
  176DOPC  H14X21574   2.783   1.523  14.295  2.5353 -0.4821  0.0209
  176DOPC  H14Y21575   2.926   1.617  14.302  0.9925  1.5223 -1.6244
  176DOPC  C31521576   2.752   1.719  14.208 -0.2121  0.0723  0.5478
  176DOPC  H15X21577   2.814   1.798  14.161 -1.2930  0.0854 -0.9348
  176DOPC  H15Y21578   2.704   1.742  14.306  0.1764 -0.7437  0.9334
  176DOPC  C31621579   2.643   1.693  14.104  0.6431 -0.2580 -0.0155
  176DOPC  H16X21580   2.687   1.697  14.002  1.5303 -1.5761  0.2896
  176DOPC  H16Y21581   2.610   1.590  14.131  2.4677 -0.5795  1.2250
  176DOPC  C31721582   2.533   1.798  14.123  0.0408  0.1759  1.0756
  176DOPC  H17X21583   2.493   1.797  14.227 -1.4773  1.6048  0.5607
  176DOPC  H17Y21584   2.588   1.894  14.113 -0.5208  0.3278 -1.1135
  176DOPC  C31821585   2.418   1.777  14.023 -0.0551  0.1720  0.2625
  176DOPC  H18X21586   2.343   1.859  14.022  0.4360  0.6213 -0.9178
  176DOPC  H18Y21587   2.456   1.766  13.919 -1.6753  2.0323 -0.5991
  176DOPC  H18Z21588   2.359   1.689  14.057  0.2696 -0.8339 -1.6123
  177DOPC     N21589   5.640   5.323  11.996  0.3933 -0.2574 -0.0048
  177DOPC   C1221590   5.696   5.441  11.922 -0.0293 -0.9154  0.1399
  177DOPC  H12A21591   5.643   5.472  11.833  1.3142 -0.4894 -0.5462
  177DOPC  H12B21592   5.798   5.424  11.891 -0.1823 -0.8346 -0.4203
  177DOPC   C1321593   5.489   5.333  12.001  0.1003 -0.0149 -0.0722
  177DOPC  H13A21594   5.431   5.350  11.911 -0.3662  6.5354  0.9940
  177DOPC  H13B21595   5.442   5.246  12.043  2.2547 -1.2751 -0.1013
  177DOPC  H13C21596   5.462   5.412  12.069  1.0784 -0.7492  1.2105
  177DOPC   C1421597   5.691   5.315  12.133 -0.0239 -0.2798 -0.2568
  177DOPC  H14A21598   5.673   5.413  12.174 -0.0278 -0.6230  0.5810
  177DOPC  H14B21599   5.636   5.243  12.192 -0.7515 -0.4851 -1.1574
  177DOPC  H14C21600   5.796   5.290  12.141 -0.0074 -0.4226 -0.8317
  177DOPC   C1521601   5.664   5.198  11.920  0.0959 -0.5975  0.7194
  177DOPC  H15A21602   5.614   5.109  11.956 -1.5302 -0.3535 -0.8127
  177DOPC  H15B21603   5.768   5.171  11.910  0.4990 -0.2117  3.1422
  177DOPC  H15C21604   5.615   5.209  11.825  0.1347  1.2524  0.8874
  177DOPC   C1121605   5.704   5.582  12.010 -0.7887 -0.4560 -0.4502
  177DOPC  H11A21606   5.777   5.570  12.093 -0.4413  1.0458 -0.5149
  177DOPC  H11B21607   5.751   5.658  11.945  0.1962 -0.5533  0.1155
  177DOPC     P21608   5.483   5.726  12.016  0.4314 -0.6527 -0.0304
  177DOPC   O1321609   5.357   5.662  11.973 -0.4396  0.0172 -0.4767
  177DOPC   O1421610   5.557   5.812  11.919  0.0996 -0.7064  0.1725
  177DOPC   O1221611   5.579   5.616  12.067  0.5859 -0.9383 -0.1083
  177DOPC   O1121612   5.446   5.795  12.152 -0.3270 -0.0417 -0.8912
  177DOPC    C121613   5.545   5.883  12.213 -0.2722  0.4998  0.1200
  177DOPC    HA21614   5.508   5.987  12.214 -0.1122  0.5560  0.2731
  177DOPC    HB21615   5.637   5.889  12.150 -0.4534 -0.9179 -0.3321
  177DOPC    C221616   5.577   5.837  12.353 -0.2581  0.1363  0.2678
  177DOPC    HS21617   5.513   5.748  12.375 -3.3359  2.3765  1.0901
  177DOPC   O2121618   5.545   5.937  12.450 -0.6091  0.3080  0.0548
  177DOPC   C2121619   5.508   5.895  12.573  0.1878 -0.9774 -0.5931
  177DOPC   O2221620   5.506   5.784  12.616  0.1251  0.0290  0.2354
  177DOPC   C2221621   5.473   6.019  12.657 -0.7022 -0.4856 -0.1223
  177DOPC   H2R21622   5.444   6.103  12.591 -0.9443  0.2637  0.9137
  177DOPC   H2S21623   5.567   6.034  12.715 -0.5776  0.7476 -0.6150
  177DOPC    C321624   5.726   5.795  12.360 -0.0286  0.3533  1.0527
  177DOPC    HX21625   5.792   5.883  12.378 -0.3256  0.8415 -0.1943
  177DOPC    HY21626   5.763   5.745  12.268 -2.0172 -0.8368  0.8353
  177DOPC   O3121627   5.749   5.715  12.478 -0.3610 -0.5197  0.3777
  177DOPC   C3121628   5.715   5.588  12.473 -0.0255 -0.3388 -0.4927
  177DOPC   O3221629   5.668   5.531  12.376  0.4336 -0.0208 -0.0962
  177DOPC   C3221630   5.721   5.534  12.613 -0.6537 -0.2910 -0.4278
  177DOPC   H2X21631   5.816   5.481  12.636 -0.6516 -1.3785 -2.6594
  177DOPC   H2Y21632   5.704   5.624  12.675  2.2885 -0.5436  0.9021
  177DOPC   C2321633   5.365   5.996  12.770 -0.0911  0.4005  0.1310
  177DOPC   H3R21634   5.388   5.898  12.818  0.2292 -0.6683 -2.0508
  177DOPC   H3S21635   5.263   5.993  12.727  0.3326 -1.4151 -0.8613
  177DOPC   C2421636   5.379   6.105  12.879  0.0644  0.8156 -0.8880
  177DOPC   H4R21637   5.340   6.201  12.839 -1.3509  0.1945 -1.0584
  177DOPC   H4S21638   5.481   6.133  12.911 -0.5708  1.9839  0.2028
  177DOPC   C2521639   5.294   6.078  13.007  0.3696 -0.0914 -0.2249
  177DOPC   H5R21640   5.342   5.991  13.058  1.9064  0.5886 -0.4467
  177DOPC   H5S21641   5.194   6.054  12.967  0.6906 -0.8889 -0.5857
  177DOPC   C2621642   5.286   6.197  13.105 -0.0713 -0.8267  0.1038
  177DOPC   H6R21643   5.214   6.272  13.065 -0.6933 -2.1307 -1.3355
  177DOPC   H6S21644   5.377   6.260  13.121 -0.4557 -0.6569  1.8338
  177DOPC   C2721645   5.266   6.139  13.247 -0.3360  0.3555 -0.0250
  177DOPC   H7R21646   5.254   6.225  13.316 -0.3947  0.7277 -0.4951
  177DOPC   H7S21647   5.354   6.075  13.270 -0.2084  0.1749 -0.9911
  177DOPC   C2821648   5.143   6.048  13.260 -0.1689 -0.3468 -0.2703
  177DOPC   H8R21649   5.152   5.997  13.358 -2.4319 -2.0733 -0.8659
  177DOPC   H8S21650   5.149   5.972  13.179  1.8808  0.3089 -0.7757
  177DOPC   C2921651   5.009   6.120  13.244 -0.1413  0.0815 -0.1247
  177DOPC   H9R21652   5.011   6.207  13.177 -2.3776 -0.3143 -0.7790
  177DOPC  C21021653   4.887   6.072  13.282  0.2405 -0.4155 -0.0514
  177DOPC  H10R21654   4.793   6.124  13.259 -0.3730  0.9130  4.4447
  177DOPC  C21121655   4.877   5.936  13.350 -0.1078 -0.0437 -0.4393
  177DOPC  H11R21656   4.789   5.933  13.417 -0.6743 -0.3911 -1.1806
  177DOPC  H11S21657   4.967   5.926  13.415  1.9551 -0.8514 -3.2383
  177DOPC  C21221658   4.873   5.830  13.236  0.6464  0.3464  0.1014
  177DOPC  H12R21659   4.887   5.727  13.274 -0.3618  0.2451  0.2027
  177DOPC  H12S21660   4.959   5.844  13.167  2.3187  0.5750  2.1210
  177DOPC  C21321661   4.728   5.802  13.181  0.1123  0.4319 -0.0049
  177DOPC  H13R21662   4.705   5.885  13.111 -2.5937  0.3520  0.6975
  177DOPC  H13S21663   4.658   5.801  13.267  0.0898 -0.8613 -0.0133
  177DOPC  C21421664   4.720   5.671  13.102  0.5932 -0.6371 -0.1639
  177DOPC  H14R21665   4.621   5.665  13.050 -0.5515  0.2350  1.8106
  177DOPC  H14S21666   4.721   5.594  13.182  0.8535  1.0544  1.5319
  177DOPC  C21521667   4.820   5.646  12.992  0.1298 -0.7868  0.1431
  177DOPC  H15R21668   4.921   5.653  13.037  0.8552 -1.2486 -1.3319
  177DOPC  H15S21669   4.818   5.723  12.912  0.3373 -0.2386  0.6615
  177DOPC  C21621670   4.800   5.510  12.926  0.2678  0.4331  0.2680
  177DOPC  H16R21671   4.759   5.517  12.822 -1.6688 -1.1160  0.8575
  177DOPC  H16S21672   4.723   5.451  12.979  0.0977  2.8037  2.9027
  177DOPC  C21721673   4.923   5.425  12.923 -0.8464  0.5805  0.4317
  177DOPC  H17R21674   4.935   5.384  13.025  0.4350  1.5613  0.7065
  177DOPC  H17S21675   5.011   5.485  12.892 -0.3031 -0.3228  0.1680
  177DOPC  C21821676   4.907   5.306  12.828 -0.0549  0.3961 -0.3393
  177DOPC  H18R21677   4.835   5.228  12.859  0.5232  0.1425  0.4216
  177DOPC  H18S21678   5.002   5.252  12.812  0.3892  0.6795  1.1381
  177DOPC  H18T21679   4.875   5.351  12.732  0.8417  2.5951  0.3190
  177DOPC   C3321680   5.616   5.431  12.647 -0.3744 -1.2351 -0.4426
  177DOPC   H3X21681   5.622   5.340  12.584 -0.3990 -2.2080  0.9286
  177DOPC   H3Y21682   5.520   5.482  12.621 -0.9535 -1.5926  0.9199
  177DOPC   C3421683   5.605   5.400  12.797  0.6615  0.0724  0.4123
  177DOPC   H4X21684   5.598   5.490  12.863  1.3049  1.2875 -1.1112
  177DOPC   H4Y21685   5.694   5.339  12.820 -0.1558 -1.5709 -0.6109
  177DOPC   C3521686   5.486   5.302  12.824  0.9016 -0.3669 -0.3770
  177DOPC   H5X21687   5.496   5.222  12.748  0.4649  1.6839 -2.7094
  177DOPC   H5Y21688   5.389   5.352  12.802  0.4431 -0.7008  0.8225
  177DOPC   C3621689   5.482   5.244  12.967  0.0086  0.1397  0.0567
  177DOPC   H6X21690   5.570   5.186  13.003 -0.0567  0.8118  1.3342
  177DOPC   H6Y21691   5.468   5.324  13.042  0.3676  2.2268 -1.9749
  177DOPC   C3721692   5.370   5.134  12.984  0.2077 -0.0694 -0.2411
  177DOPC   H7X21693   5.363   5.077  12.889 -0.9556  0.5621 -0.5511
  177DOPC   H7Y21694   5.402   5.064  13.065 -0.3760 -0.2004 -0.1212
  177DOPC   C3821695   5.229   5.197  13.001 -0.3838 -0.1063 -0.0924
  177DOPC   H8X21696   5.192   5.264  12.921 -0.6810  1.1353  1.0381
  177DOPC   H8Y21697   5.249   5.259  13.091  2.7194 -0.1756 -0.6249
  177DOPC   C3921698   5.126   5.092  13.025 -0.1619  0.3379  0.3946
  177DOPC   H9X21699   5.105   5.026  12.940  1.2457  1.6987 -1.0613
  177DOPC  C31021700   5.074   5.065  13.152 -0.8197 -0.5409  0.1215
  177DOPC  H10X21701   4.998   4.985  13.150 -0.3033 -1.0366 -1.3109
  177DOPC  C31121702   5.101   5.141  13.275  0.0725  0.0063 -0.0633
  177DOPC  H11X21703   5.181   5.219  13.278 -0.3599  0.4573  2.8609
  177DOPC  H11Y21704   5.141   5.063  13.344  1.0576 -0.5586 -1.2273
  177DOPC  C31221705   4.975   5.198  13.343 -0.1127 -0.1970 -0.6288
  177DOPC  H12X21706   4.925   5.108  13.385  1.6532 -1.2405 -0.6791
  177DOPC  H12Y21707   4.913   5.253  13.269  1.4573 -0.0606 -1.8984
  177DOPC  C31321708   5.010   5.295  13.454  0.2700 -0.1579  0.8080
  177DOPC  H13X21709   5.072   5.232  13.522 -1.2052 -1.1817  1.2520
  177DOPC  H13Y21710   5.073   5.381  13.421  0.3435  0.1543  1.7257
  177DOPC  C31421711   4.888   5.356  13.530 -0.1521 -0.3061 -0.1781
  177DOPC  H14X21712   4.827   5.395  13.446 -0.2716 -0.6612 -0.2594
  177DOPC  H14Y21713   4.821   5.277  13.570 -2.8550  1.5320 -0.8495
  177DOPC  C31521714   4.923   5.466  13.637 -0.9037  0.0371  0.4766
  177DOPC  H15X21715   5.004   5.530  13.594 -3.2373  1.9912 -1.2739
  177DOPC  H15Y21716   4.969   5.419  13.727  1.8235 -0.5978 -1.1040
  177DOPC  C31621717   4.809   5.553  13.676  0.1680 -0.1872  0.4350
  177DOPC  H16X21718   4.727   5.493  13.721  0.9882 -1.6947 -0.0001
  177DOPC  H16Y21719   4.857   5.619  13.752 -0.7943 -0.3208  1.1828
  177DOPC  C31721720   4.758   5.632  13.560  0.0204  0.5733 -1.1935
  177DOPC  H17X21721   4.852   5.672  13.518 -1.0559  1.3695 -2.9710
  177DOPC  H17Y21722   4.713   5.565  13.484  0.8575  0.2983 -1.4461
  177DOPC  C31821723   4.660   5.735  13.614  0.8172  0.2974 -0.2402
  177DOPC  H18X21724   4.555   5.705  13.596  0.6848  0.5724  0.0537
  177DOPC  H18Y21725   4.665   5.766  13.721 -0.5618 -0.6523  0.1146
  177DOPC  H18Z21726   4.677   5.828  13.555  1.2958  1.2485  1.3254
  178DOPC     N21727   2.737   5.895  12.014  0.7706  0.0708  0.6541
  178DOPC   C1221728   2.710   5.939  12.157  0.0244 -0.3157  0.5597
  178DOPC  H12A21729   2.603   5.935  12.172 -0.2433  0.5628 -0.8476
  178DOPC  H12B21730   2.740   6.042  12.169  0.0264 -0.4035  1.3318
  178DOPC   C1321731   2.881   5.907  11.982  1.0073 -0.2954 -0.2033
  178DOPC  H13A21732   2.913   6.008  12.002 -1.4538  0.7336 -1.1132
  178DOPC  H13B21733   2.945   5.834  12.030  2.1019 -0.4370 -1.7845
  178DOPC  H13C21734   2.893   5.896  11.875 -1.8263 -2.3575 -0.4189
  178DOPC   C1421735   2.657   5.989  11.922 -0.6550 -0.0456 -0.1384
  178DOPC  H14A21736   2.679   5.965  11.819  0.4478  0.6336 -0.0785
  178DOPC  H14B21737   2.550   5.984  11.937 -0.3974 -3.2048  1.3593
  178DOPC  H14C21738   2.687   6.091  11.941 -2.4836  0.6249 -0.6243
  178DOPC   C1521739   2.700   5.751  11.976 -0.0164  0.3073 -0.4896
  178DOPC  H15A21740   2.726   5.720  11.876  0.8766  0.2063 -0.2378
  178DOPC  H15B21741   2.598   5.726  12.002  0.3511  0.4228  1.1589
  178DOPC  H15C21742   2.751   5.680  12.040  0.0691 -1.4931 -2.4402
  178DOPC   C1121743   2.762   5.857  12.275  0.5077  0.6213  0.1665
  178DOPC  H11A21744   2.872   5.851  12.283  0.5169  0.9155  0.2558
  178DOPC  H11B21745   2.720   5.903  12.367 -0.6373 -0.9805  0.5049
  178DOPC     P21746   2.585   5.659  12.331 -0.1807  0.1540 -0.4606
  178DOPC   O1321747   2.577   5.511  12.304 -0.5459  0.1823  1.0852
  178DOPC   O1421748   2.477   5.747  12.300  0.3843  0.5148 -0.1222
  178DOPC   O1221749   2.717   5.716  12.259 -0.0814 -0.1960  0.0558
  178DOPC   O1121750   2.614   5.678  12.486 -0.0790 -0.0074  0.5513
  178DOPC    C121751   2.719   5.611  12.557  0.2425  0.2483 -0.4832
  178DOPC    HA21752   2.803   5.684  12.558  0.9115 -0.4838 -1.3193
  178DOPC    HB21753   2.752   5.515  12.513 -1.5126 -1.8226  2.3528
  178DOPC    C221754   2.691   5.593  12.712  0.2619 -0.3248  0.6248
  178DOPC    HS21755   2.790   5.575  12.759  1.0271 -2.1364 -1.4753
  178DOPC   O2121756   2.597   5.483  12.737  0.1451 -0.5308  0.5914
  178DOPC   C2121757   2.654   5.366  12.736  0.1618 -0.3113 -0.2914
  178DOPC   O2221758   2.772   5.343  12.710 -0.6076  0.1106  0.2049
  178DOPC   C2221759   2.558   5.259  12.764  1.1504  0.2520  0.2165
  178DOPC   H2R21760   2.617   5.165  12.772 -1.0029 -1.0323  2.0875
  178DOPC   H2S21761   2.493   5.264  12.674 -0.5594  2.0163  1.4586
  178DOPC    C321762   2.629   5.721  12.770  0.3298 -0.8765 -0.7647
  178DOPC    HX21763   2.521   5.733  12.749 -0.1713 -2.8621  0.3532
  178DOPC    HY21764   2.673   5.814  12.728  0.3231 -0.3710  0.2947
  178DOPC   O3121765   2.643   5.721  12.919  0.4183  0.4363  0.2398
  178DOPC   C3121766   2.760   5.763  12.961  0.4652 -0.3018 -0.7105
  178DOPC   O3221767   2.852   5.791  12.893  0.2866  0.0518  0.4825
  178DOPC   C3221768   2.772   5.750  13.121 -0.2789  0.6732  0.4306
  178DOPC   H2X21769   2.677   5.783  13.168 -1.1642 -0.5422 -0.4424
  178DOPC   H2Y21770   2.796   5.644  13.146 -0.8070  0.4992  0.2204
  178DOPC   C2321771   2.467   5.291  12.882 -0.0935 -0.1386  0.0494
  178DOPC   H3R21772   2.391   5.209  12.883 -0.8613  0.5529  0.0602
  178DOPC   H3S21773   2.409   5.383  12.861 -2.0771 -1.3386 -0.0701
  178DOPC   C2421774   2.538   5.288  13.013 -0.4086 -0.0663 -0.0247
  178DOPC   H4R21775   2.463   5.299  13.094  2.0211 -0.3019  2.4215
  178DOPC   H4S21776   2.598   5.382  13.020 -0.9208  0.2302  0.5081
  178DOPC   C2521777   2.618   5.157  13.044  0.3880  0.6003 -0.6192
  178DOPC   H5R21778   2.685   5.178  13.130 -0.0591  1.8311 -0.5624
  178DOPC   H5S21779   2.682   5.119  12.961 -0.3746 -1.7196 -0.2104
  178DOPC   C2621780   2.514   5.036  13.065  0.1276 -0.3700  0.8767
  178DOPC   H6R21781   2.482   5.024  12.960  4.0442 -1.3850 -0.3857
  178DOPC   H6S21782   2.432   5.074  13.130  0.8667 -1.6138  2.6122
  178DOPC   C2721783   2.587   4.909  13.120  0.8312  0.5205  0.1346
  178DOPC   H7R21784   2.616   4.937  13.224 -0.1462 -1.7523  1.0945
  178DOPC   H7S21785   2.672   4.873  13.059  1.5501  1.5636  0.4870
  178DOPC   C2821786   2.499   4.787  13.134  0.4730 -0.4726  0.9602
  178DOPC   H8R21787   2.552   4.712  13.196  0.5098 -0.5288  0.8617
  178DOPC   H8S21788   2.486   4.736  13.036  0.8835 -0.4221  0.8783
  178DOPC   C2921789   2.368   4.822  13.201 -0.9680  0.0532 -0.0190
  178DOPC   H9R21790   2.288   4.858  13.135 -2.1718  0.8493  1.7792
  178DOPC  C21021791   2.325   4.830  13.332 -0.1971 -0.1240  0.4487
  178DOPC  H10R21792   2.219   4.851  13.351 -0.4775 -2.2495  1.5763
  178DOPC  C21121793   2.390   4.790  13.460 -0.0415  0.0924  0.4390
  178DOPC  H11R21794   2.403   4.875  13.531 -0.5118 -0.3779  1.0995
  178DOPC  H11S21795   2.492   4.751  13.438  0.4097  0.9925  0.8858
  178DOPC  C21221796   2.306   4.691  13.553 -0.4362 -0.6407  0.1562
  178DOPC  H12R21797   2.203   4.728  13.570 -0.9335 -0.9090 -2.0168
  178DOPC  H12S21798   2.347   4.700  13.657  0.5352  1.9170 -0.3858
  178DOPC  C21321799   2.322   4.540  13.514  0.1486 -0.1497 -0.2281
  178DOPC  H13R21800   2.278   4.521  13.414 -0.6462  2.3920 -0.4203
  178DOPC  H13S21801   2.250   4.483  13.577  0.7318 -1.4167 -0.6782
  178DOPC  C21421802   2.460   4.489  13.517 -0.4475  0.8464  0.4904
  178DOPC  H14R21803   2.512   4.542  13.600  4.2192 -2.9221  0.4259
  178DOPC  H14S21804   2.514   4.499  13.421  0.7935 -0.8310  0.9432
  178DOPC  C21521805   2.478   4.336  13.552 -0.5751 -0.3766 -0.2688
  178DOPC  H15R21806   2.583   4.302  13.557 -1.1124 -1.9309  1.7555
  178DOPC  H15S21807   2.407   4.274  13.494  0.7576 -1.2800 -0.9806
  178DOPC  C21621808   2.432   4.312  13.699 -0.1863 -1.2065 -0.1759
  178DOPC  H16R21809   2.321   4.319  13.701 -0.1033  0.8341 -0.6104
  178DOPC  H16S21810   2.472   4.395  13.761  1.1278 -2.8942  1.3693
  178DOPC  C21721811   2.476   4.181  13.762  0.3811 -0.8974  0.8724
  178DOPC  H17R21812   2.585   4.163  13.758  0.1207 -2.5124  0.0359
  178DOPC  H17S21813   2.429   4.098  13.706 -0.7996  1.3619 -1.6760
  178DOPC  C21821814   2.439   4.163  13.903  0.4015  0.1809 -0.8674
  178DOPC  H18R21815   2.328   4.157  13.915  0.3387  1.8579 -0.3545
  178DOPC  H18S21816   2.485   4.248  13.959  0.2199  0.3068 -0.9076
  178DOPC  H18T21817   2.483   4.072  13.949  2.3378  1.6355  0.3558
  178DOPC   C3321818   2.895   5.823  13.173 -0.6660  0.5230 -0.9193
  178DOPC   H3X21819   2.902   5.929  13.139  0.7391  0.7693  0.0712
  178DOPC   H3Y21820   2.987   5.779  13.130 -1.2696 -2.4548  0.5902
  178DOPC   C3421821   2.904   5.834  13.328 -0.2059 -0.4719  0.1438
  178DOPC   H4X21822   2.911   5.727  13.359  0.3466 -0.0214  1.6904
  178DOPC   H4Y21823   2.804   5.865  13.365 -1.3235 -2.6914 -0.8174
  178DOPC   C3521824   3.019   5.917  13.381  0.5154 -0.6555  0.0940
  178DOPC   H5X21825   2.984   5.936  13.485 -3.7346  1.6037 -1.5176
  178DOPC   H5Y21826   3.037   6.012  13.327  0.7784 -0.8445 -0.1539
  178DOPC   C3621827   3.149   5.847  13.388 -0.1092 -0.7531  0.1429
  178DOPC   H6X21828   3.140   5.769  13.468 -3.0025 -0.5807  0.1100
  178DOPC   H6Y21829   3.180   5.800  13.292 -1.1628  0.5245 -0.8540
  178DOPC   C3721830   3.268   5.947  13.434  0.3322  0.1852  0.3874
  178DOPC   H7X21831   3.364   5.891  13.422  0.2382 -0.5341  2.6027
  178DOPC   H7Y21832   3.253   6.025  13.357  2.0091  0.6880  0.5266
  178DOPC   C3821833   3.251   5.999  13.577  0.7118  0.4471  0.3381
  178DOPC   H8X21834   3.250   5.917  13.653  2.8178  0.2342  0.2107
  178DOPC   H8Y21835   3.172   6.074  13.597  2.1671  2.0671  0.2493
  178DOPC   C3921836   3.375   6.080  13.601 -0.2242 -0.6222  0.4146
  178DOPC   H9X21837   3.378   6.184  13.568  0.1867 -0.8075 -0.1463
  178DOPC  C31021838   3.487   6.018  13.648  0.3933 -0.0624 -0.7114
  178DOPC  H10X21839   3.580   6.074  13.671 -0.2640  0.5204  0.6703
  178DOPC  C31121840   3.497   5.888  13.723  0.1347 -0.1090  0.1301
  178DOPC  H11X21841   3.602   5.851  13.728  1.1896  2.4767 -0.8556
  178DOPC  H11Y21842   3.442   5.802  13.679  2.1479 -1.6204  0.4403
  178DOPC  C31221843   3.441   5.892  13.869  0.2659  0.9855  0.1809
  178DOPC  H12X21844   3.330   5.905  13.870  0.2703  1.1409 -0.5175
  178DOPC  H12Y21845   3.500   5.965  13.929  1.0812 -1.2057  2.1920
  178DOPC  C31321846   3.471   5.761  13.941 -0.7037  0.0259  0.0752
  178DOPC  H13X21847   3.456   5.680  13.867  1.4183  1.4220 -2.0096
  178DOPC  H13Y21848   3.579   5.739  13.954 -0.5593  0.1654 -0.8700
  178DOPC  C31421849   3.376   5.722  14.054  0.5141  0.0401 -0.2331
  178DOPC  H14X21850   3.275   5.752  14.019  1.2223 -0.3827 -2.7940
  178DOPC  H14Y21851   3.376   5.612  14.071  3.2457 -0.2738 -1.7181
  178DOPC  C31521852   3.412   5.788  14.189 -0.5406  0.2815  0.3697
  178DOPC  H15X21853   3.360   5.885  14.191 -0.1180  0.5115  2.2432
  178DOPC  H15Y21854   3.523   5.798  14.193 -0.4484 -0.2841 -0.4584
  178DOPC  C31621855   3.359   5.701  14.308 -0.1171 -0.2842 -0.6194
  178DOPC  H16X21856   3.251   5.695  14.282 -0.8440  0.2619  2.0488
  178DOPC  H16Y21857   3.408   5.601  14.295  0.5442 -0.0542  0.0285
  178DOPC  C31721858   3.386   5.759  14.452  0.1739 -0.6967 -0.0145
  178DOPC  H17X21859   3.493   5.761  14.481  0.2160 -0.1886 -0.1921
  178DOPC  H17Y21860   3.354   5.865  14.440  0.3368 -0.7758 -1.2184
  178DOPC  C31821861   3.309   5.698  14.564  0.4641 -0.0807 -0.0299
  178DOPC  H18X21862   3.296   5.754  14.660 -1.7617 -1.7368  0.7144
  178DOPC  H18Y21863   3.202   5.685  14.537 -0.1281 -0.7009  2.3637
  178DOPC  H18Z21864   3.355   5.601  14.593  0.9670  0.5626  1.4418
  179DOPC     N21865   6.719   5.458  12.090 -0.0629  0.2681 -0.4138
  179DOPC   C1221866   6.675   5.322  12.158 -0.4519 -0.2784 -0.6724
  179DOPC  H12A21867   6.593   5.346  12.225 -0.2234 -0.0902 -0.4582
  179DOPC  H12B21868   6.755   5.286  12.221  0.3070  0.0652 -1.4288
  179DOPC   C1321869   6.612   5.493  12.002 -0.2537  0.4865 -1.1535
  179DOPC  H13A21870   6.595   5.415  11.929  0.0382  0.2165 -0.9340
  179DOPC  H13B21871   6.520   5.515  12.054 -0.0465  3.5072 -1.8654
  179DOPC  H13C21872   6.637   5.581  11.944 -1.8053  1.8677  0.1511
  179DOPC   C1421873   6.846   5.447  12.017 -0.1470  0.2869 -0.7019
  179DOPC  H14A21874   6.831   5.384  11.930  0.0157 -2.0851  0.9025
  179DOPC  H14B21875   6.876   5.543  11.976 -2.4160  1.5633  0.4690
  179DOPC  H14C21876   6.928   5.422  12.083  0.1718  2.2369 -0.3018
  179DOPC   C1521877   6.736   5.568  12.194 -0.3476 -0.4942  0.1738
  179DOPC  H15A21878   6.797   5.535  12.277  0.3097  2.5751  1.0650
  179DOPC  H15B21879   6.638   5.605  12.220 -1.0172 -1.8961 -0.2851
  179DOPC  H15C21880   6.787   5.654  12.153  1.3204 -0.5805  1.9106
  179DOPC   C1121881   6.626   5.203  12.073  0.0590 -0.4831  0.0342
  179DOPC  H11A21882   6.703   5.170  12.000  0.0810 -3.5575  1.3032
  179DOPC  H11B21883   6.624   5.116  12.141 -0.0726  1.0719  2.1225
  179DOPC     P21884   6.369   5.211  12.094 -0.9939  0.0002 -0.0315
  179DOPC   O1321885   6.264   5.166  11.996  0.3224  0.4088 -0.2436
  179DOPC   O1421886   6.354   5.339  12.166  0.1648 -0.1094  0.0654
  179DOPC   O1221887   6.503   5.228  12.009 -0.2778  0.7196 -1.0056
  179DOPC   O1121888   6.386   5.098  12.205 -0.0043 -0.5367 -0.1906
  179DOPC    C121889   6.284   5.103  12.306  0.2406  0.2725  0.0726
  179DOPC    HA21890   6.250   4.998  12.320  0.0123  0.1582 -1.2339
  179DOPC    HB21891   6.191   5.161  12.287 -1.3954 -2.2037  0.1546
  179DOPC    C221892   6.332   5.151  12.447 -0.4134  0.7788 -0.6066
  179DOPC    HS21893   6.325   5.261  12.456 -0.2739  0.6222  2.2514
  179DOPC   O2121894   6.457   5.099  12.493 -0.1310  0.2365  0.8179
  179DOPC   C2121895   6.565   5.184  12.491  0.6079  0.2846  0.4222
  179DOPC   O2221896   6.560   5.298  12.454  0.6478  0.2891  0.3484
  179DOPC   C2221897   6.686   5.115  12.544 -0.7852  0.3728  0.8106
  179DOPC   H2R21898   6.720   5.070  12.448 -0.7099 -2.3262  2.0130
  179DOPC   H2S21899   6.668   5.027  12.609  1.0750 -1.3527 -0.8661
  179DOPC    C321900   6.233   5.107  12.563 -0.2112 -0.4037  0.1433
  179DOPC    HX21901   6.274   5.012  12.604 -0.6293 -1.3009 -1.4513
  179DOPC    HY21902   6.133   5.084  12.522 -0.1249 -0.5753  0.0247
  179DOPC   O3121903   6.236   5.208  12.667  0.3701  0.7823  0.3100
  179DOPC   C3121904   6.149   5.306  12.653  0.0077  0.2164 -0.3636
  179DOPC   O3221905   6.073   5.316  12.560  0.6386  0.4320 -0.2523
  179DOPC   C3221906   6.164   5.398  12.771 -0.2299  0.3891  0.5113
  179DOPC   H2X21907   6.270   5.400  12.802 -0.0036 -1.3486 -0.0058
  179DOPC   H2Y21908   6.128   5.495  12.732 -1.0783 -0.5167 -1.0483
  179DOPC   C2321909   6.790   5.219  12.598  1.0622 -0.2124 -0.1029
  179DOPC   H3R21910   6.802   5.294  12.517  0.3291 -0.6964 -0.6722
  179DOPC   H3S21911   6.891   5.172  12.601  2.3587  2.3815 -0.6443
  179DOPC   C2421912   6.747   5.278  12.740  0.4831 -0.3889 -0.8051
  179DOPC   H4R21913   6.657   5.343  12.730  0.8004  0.3617  0.8951
  179DOPC   H4S21914   6.827   5.346  12.774  0.3022  0.5015 -2.0837
  179DOPC   C2521915   6.712   5.172  12.846  0.2437  0.4873  0.6104
  179DOPC   H5R21916   6.783   5.088  12.826 -0.4224  0.1589 -0.4850
  179DOPC   H5S21917   6.606   5.138  12.841 -0.0942  1.6060 -4.0243
  179DOPC   C2621918   6.737   5.211  12.993  0.7238 -0.2230 -0.4891
  179DOPC   H6R21919   6.842   5.240  13.015  1.0998 -1.2744 -0.8152
  179DOPC   H6S21920   6.717   5.114  13.044  0.6315  1.1158  2.1692
  179DOPC   C2721921   6.648   5.318  13.054 -0.0139 -0.5095 -0.0216
  179DOPC   H7R21922   6.652   5.400  12.979  1.3388 -1.2775 -0.8330
  179DOPC   H7S21923   6.685   5.363  13.149  0.1977 -0.1096 -0.2896
  179DOPC   C2821924   6.500   5.274  13.068  0.5802  0.9501 -0.3462
  179DOPC   H8R21925   6.491   5.205  13.154  1.2469 -0.4679 -1.3662
  179DOPC   H8S21926   6.475   5.223  12.972  2.7891 -0.2982 -0.3336
  179DOPC   C2921927   6.419   5.402  13.095  0.4262 -0.0400  0.1541
  179DOPC   H9R21928   6.404   5.466  13.006 -1.6900 -0.9516 -0.2156
  179DOPC  C21021929   6.369   5.453  13.208  0.3843 -0.2134  1.1401
  179DOPC  H10R21930   6.325   5.553  13.224  1.3602  0.5201 -0.5031
  179DOPC  C21121931   6.373   5.382  13.338 -0.4596 -0.0553  0.0494
  179DOPC  H11R21932   6.461   5.315  13.347 -1.3930 -1.1569  1.4976
  179DOPC  H11S21933   6.282   5.320  13.351 -1.6724  1.4426 -1.0023
  179DOPC  C21221934   6.379   5.469  13.466  0.2248  0.0615  0.3165
  179DOPC  H12R21935   6.478   5.521  13.469 -1.6210  4.0508 -0.2670
  179DOPC  H12S21936   6.383   5.398  13.550 -0.3525  0.0145  0.3072
  179DOPC  C21321937   6.263   5.575  13.485  0.1300  0.2990  0.5555
  179DOPC  H13R21938   6.257   5.647  13.400  2.3243 -0.5407 -0.3974
  179DOPC  H13S21939   6.276   5.622  13.584 -0.5915 -3.0023  2.3602
  179DOPC  C21421940   6.136   5.495  13.499  0.8328  0.2296 -0.0753
  179DOPC  H14R21941   6.147   5.404  13.562 -1.6440  0.1581  0.3553
  179DOPC  H14S21942   6.105   5.454  13.400 -0.0943  0.5219  0.0805
  179DOPC  C21521943   6.028   5.585  13.559 -0.0561  0.0744 -0.2532
  179DOPC  H15R21944   6.069   5.621  13.655  0.1566 -0.0003 -0.3157
  179DOPC  H15S21945   5.935   5.524  13.561 -0.8497  1.1752 -1.2202
  179DOPC  C21621946   5.997   5.708  13.481  0.2669 -0.2428  0.1201
  179DOPC  H16R21947   6.028   5.687  13.376  2.1128 -2.7463  1.0871
  179DOPC  H16S21948   6.070   5.780  13.522  0.3863  1.0467 -2.1537
  179DOPC  C21721949   5.858   5.761  13.491  0.1638  0.4480 -0.1528
  179DOPC  H17R21950   5.841   5.784  13.598 -0.1017  0.8831 -0.2830
  179DOPC  H17S21951   5.792   5.682  13.450 -0.9197  2.2455 -2.1288
  179DOPC  C21821952   5.823   5.890  13.409  0.1724 -0.2140  0.5011
  179DOPC  H18R21953   5.713   5.902  13.395  0.3871  1.9908  0.3086
  179DOPC  H18S21954   5.856   5.888  13.303  0.4433  0.8775  0.5529
  179DOPC  H18T21955   5.871   5.980  13.453 -1.2263  0.9007 -0.1385
  179DOPC   C3321956   6.062   5.363  12.878 -0.0268 -0.5740  0.0196
  179DOPC   H3X21957   6.087   5.282  12.949 -2.1393 -1.9277 -0.6751
  179DOPC   H3Y21958   5.969   5.328  12.828 -1.0775 -0.0021  1.4938
  179DOPC   C3421959   6.026   5.480  12.968  0.1091 -0.1653 -0.1662
  179DOPC   H4X21960   5.992   5.562  12.901 -0.8530  0.7596  1.3639
  179DOPC   H4Y21961   6.111   5.522  13.026 -0.6231  0.3727  0.5337
  179DOPC   C3521962   5.899   5.463  13.062 -0.4493 -0.3602  0.1948
  179DOPC   H5X21963   5.806   5.463  13.000 -0.9743 -2.2614  0.9097
  179DOPC   H5Y21964   5.900   5.556  13.122 -0.2815 -1.5372  2.0972
  179DOPC   C3621965   5.904   5.337  13.152 -0.1134 -0.0080 -0.0102
  179DOPC   H6X21966   5.902   5.240  13.097  1.9590 -0.5920  0.8221
  179DOPC   H6Y21967   6.003   5.343  13.202  0.0607  0.6464 -0.4313
  179DOPC   C3721968   5.799   5.324  13.259  0.2521  0.4369 -0.0718
  179DOPC   H7X21969   5.785   5.406  13.332  0.3338  1.9199 -1.6573
  179DOPC   H7Y21970   5.703   5.325  13.204  0.1248  0.8761  0.1510
  179DOPC   C3821971   5.801   5.186  13.318  0.2111  0.0586 -0.2667
  179DOPC   H8X21972   5.879   5.167  13.395 -1.1446  1.7634  1.6370
  179DOPC   H8Y21973   5.815   5.114  13.235 -1.9330 -0.9751  0.2093
  179DOPC   C3921974   5.664   5.152  13.372 -0.4121 -0.5518  0.3944
  179DOPC   H9X21975   5.607   5.112  13.287 -1.1940  0.2728  0.5242
  179DOPC  C31021976   5.607   5.175  13.491  0.8778  0.3316  0.4353
  179DOPC  H10X21977   5.515   5.118  13.512  1.6651 -0.8395  0.7606
  179DOPC  C31121978   5.673   5.247  13.608  0.8325  0.7596 -0.2394
  179DOPC  H11X21979   5.782   5.229  13.606  0.4360 -2.3260  1.1738
  179DOPC  H11Y21980   5.640   5.208  13.707 -0.7640  3.6787  0.4973
  179DOPC  C31221981   5.634   5.398  13.599 -0.1477 -0.0910  0.3586
  179DOPC  H12X21982   5.632   5.435  13.494 -3.2512 -1.2361 -0.0869
  179DOPC  H12Y21983   5.703   5.467  13.653 -1.8710  2.9390 -1.0338
  179DOPC  C31321984   5.490   5.425  13.640 -0.2553 -0.8083  0.1349
  179DOPC  H13X21985   5.414   5.374  13.577 -0.0988  0.0828 -0.7999
  179DOPC  H13Y21986   5.469   5.381  13.740  0.1332 -0.5828  0.3171
  179DOPC  C31421987   5.445   5.572  13.633 -1.0218 -0.3582  0.1367
  179DOPC  H14X21988   5.452   5.618  13.532 -1.9779 -1.0576 -0.2662
  179DOPC  H14Y21989   5.338   5.571  13.666 -1.3260  3.5255 -0.2994
  179DOPC  C31521990   5.528   5.659  13.725  0.4751 -0.4865 -0.1474
  179DOPC  H15X21991   5.628   5.672  13.677  0.9814 -2.6873  0.1851
  179DOPC  H15Y21992   5.550   5.607  13.821 -1.9991 -0.0711  0.6999
  179DOPC  C31621993   5.480   5.805  13.740  0.3718  0.3035  0.0694
  179DOPC  H16X21994   5.370   5.805  13.752  0.0666  0.9284 -2.2695
  179DOPC  H16Y21995   5.518   5.847  13.836 -2.5135 -1.4861  2.1516
  179DOPC  C31721996   5.508   5.890  13.616 -0.1294  0.0066 -0.8578
  179DOPC  H17X21997   5.608   5.937  13.620 -0.7488  1.2643  0.6224
  179DOPC  H17Y21998   5.511   5.831  13.522  2.5880  1.9803 -2.1234
  179DOPC  C31821999   5.399   5.996  13.583 -0.2579  0.4210 -0.3061
  179DOPC  H18X22000   5.302   5.943  13.582  0.2882 -0.6082 -1.5725
  179DOPC  H18Y22001   5.395   6.077  13.658 -3.8763 -1.4963  1.8084
  179DOPC  H18Z22002   5.413   6.035  13.480 -1.1520  0.6649 -0.3421
  180DOPC     N22003   6.460   3.344  11.612  0.3353 -0.5630  0.2698
  180DOPC   C1222004   6.349   3.239  11.625  0.5747  0.3650  0.0205
  180DOPC  H12A22005   6.385   3.148  11.580  0.0289 -0.0230  0.3522
  180DOPC  H12B22006   6.266   3.261  11.560  1.1133  0.4304 -0.6501
  180DOPC   C1322007   6.592   3.276  11.650  0.4216  0.5645  0.1654
  180DOPC  H13A22008   6.668   3.353  11.653  0.4703  0.6406 -1.6709
  180DOPC  H13B22009   6.569   3.233  11.746  0.5514 -2.8338 -1.1616
  180DOPC  H13C22010   6.618   3.197  11.580  0.1107 -0.2086  0.9108
  180DOPC   C1422011   6.441   3.460  11.698  0.3708 -0.1702  0.6994
  180DOPC  H14A22012   6.509   3.542  11.677 -0.3017  0.3344  0.4621
  180DOPC  H14B22013   6.338   3.490  11.699  1.0257  2.3894  2.1152
  180DOPC  H14C22014   6.465   3.419  11.795  1.9187 -2.6962 -0.6513
  180DOPC   C1522015   6.457   3.387  11.470  0.0340 -0.0342  0.4496
  180DOPC  H15A22016   6.360   3.426  11.444  0.2593  0.5639  0.4742
  180DOPC  H15B22017   6.486   3.314  11.396 -3.1053 -0.8712 -0.0942
  180DOPC  H15C22018   6.524   3.470  11.451  0.0898 -0.4920 -1.6089
  180DOPC   C1122019   6.295   3.219  11.768 -0.5488  1.0125  0.0003
  180DOPC  H11A22020   6.249   3.308  11.817  0.0729  0.9431  0.7306
  180DOPC  H11B22021   6.210   3.147  11.771  0.2294  0.0981  0.4830
  180DOPC     P22022   6.410   3.191  12.007  0.0373  0.4750  0.3962
  180DOPC   O1322023   6.524   3.277  12.033  0.4422  0.3899  0.0796
  180DOPC   O1422024   6.411   3.062  12.076  0.2043  0.3947  0.5259
  180DOPC   O1222025   6.402   3.164  11.851  0.6189  0.9970  0.1794
  180DOPC   O1122026   6.284   3.273  12.055 -0.1928 -0.2589  0.1043
  180DOPC    C122027   6.154   3.207  12.057  0.0982 -0.1577 -0.7367
  180DOPC    HA22028   6.151   3.112  11.999 -2.7877 -2.0729  2.1440
  180DOPC    HB22029   6.077   3.269  12.007 -0.3929  0.1420  0.3536
  180DOPC    C222030   6.095   3.181  12.202  0.6115  0.2601  0.3159
  180DOPC    HS22031   5.987   3.155  12.199  1.1356 -2.1624  0.0336
  180DOPC   O2122032   6.117   3.289  12.292  0.2560 -0.2467  0.9604
  180DOPC   C2122033   6.031   3.393  12.272 -0.6763  0.0535 -0.1284
  180DOPC   O2222034   5.940   3.409  12.195 -0.1611 -0.0687  0.0883
  180DOPC   C2222035   6.061   3.496  12.383 -0.0484 -1.2283  0.7103
  180DOPC   H2R22036   6.119   3.581  12.341 -2.1941  1.6147  3.0935
  180DOPC   H2S22037   6.123   3.445  12.460  1.6026 -0.0180  0.2372
  180DOPC    C322038   6.168   3.062  12.277 -0.3168 -0.3306  0.0962
  180DOPC    HX22039   6.277   3.085  12.277 -0.2333 -0.2602 -2.8187
  180DOPC    HY22040   6.154   2.964  12.225 -4.0159  0.0757  0.0342
  180DOPC   O3122041   6.131   3.056  12.414 -0.4519  0.3257 -0.2327
  180DOPC   C3122042   6.013   3.009  12.437  0.0585  0.1057 -0.2261
  180DOPC   O3222043   5.936   2.973  12.349 -0.6492  0.1759  0.2621
  180DOPC   C3222044   5.984   3.006  12.581  0.4041 -0.2886 -0.3266
  180DOPC   H2X22045   5.941   2.916  12.629  0.6217  0.4927  1.4535
  180DOPC   H2Y22046   6.076   3.014  12.643 -0.4365  1.6425  0.7823
  180DOPC   C2322047   5.933   3.548  12.444  0.2848 -0.1551 -0.6302
  180DOPC   H3R22048   5.857   3.470  12.466  0.2769  0.4906  2.0056
  180DOPC   H3S22049   5.882   3.620  12.377  0.1999  0.6689  0.2982
  180DOPC   C2422050   5.955   3.621  12.573 -0.3867 -0.2084 -0.5284
  180DOPC   H4R22051   5.857   3.666  12.601  0.1814  0.8764 -0.1984
  180DOPC   H4S22052   6.021   3.710  12.563 -1.3787  0.5467 -0.6180
  180DOPC   C2522053   6.002   3.542  12.695 -0.8657 -0.0012 -0.6654
  180DOPC   H5R22054   6.100   3.495  12.673 -0.4376 -0.5138  1.9797
  180DOPC   H5S22055   5.936   3.455  12.716 -1.3641  0.5475  0.1317
  180DOPC   C2622056   5.993   3.625  12.827 -0.0903  0.1569  0.2596
  180DOPC   H6R22057   5.890   3.667  12.825 -0.2086 -0.1615 -0.9610
  180DOPC   H6S22058   6.066   3.709  12.833  0.1692 -0.0764  0.3733
  180DOPC   C2722059   6.015   3.538  12.951  0.3463  0.2342 -0.0241
  180DOPC   H7R22060   6.123   3.514  12.947  0.4186  0.7067 -1.2703
  180DOPC   H7S22061   5.953   3.448  12.933  2.3321 -1.3523  0.6153
  180DOPC   C2822062   5.966   3.587  13.086 -0.9270 -0.0867  0.6030
  180DOPC   H8R22063   5.981   3.503  13.157  1.0960  1.0492  1.6113
  180DOPC   H8S22064   5.862   3.624  13.079  0.3718  3.9698  0.0326
  180DOPC   C2922065   6.048   3.708  13.128  0.2168 -0.8495 -0.3607
  180DOPC   H9R22066   6.030   3.803  13.075 -0.0971  0.0783  1.3485
  180DOPC  C21022067   6.143   3.698  13.220  0.0131 -0.5315  0.1980
  180DOPC  H10R22068   6.201   3.788  13.248  2.3965 -1.6469 -0.8321
  180DOPC  C21122069   6.155   3.579  13.315  0.2773 -0.4958 -0.6109
  180DOPC  H11R22070   6.255   3.587  13.362 -0.2420  0.2510  0.4134
  180DOPC  H11S22071   6.156   3.479  13.267 -0.6130 -1.5374  1.4155
  180DOPC  C21222072   6.060   3.591  13.435  1.6096 -0.3655  0.3747
  180DOPC  H12R22073   5.955   3.607  13.403  1.9779 -0.2425 -0.8424
  180DOPC  H12S22074   6.079   3.679  13.500 -1.5341  0.5292  0.2608
  180DOPC  C21322075   6.063   3.468  13.526  0.4030 -0.4807 -0.0630
  180DOPC  H13R22076   6.169   3.458  13.555 -0.1400 -0.7105  1.9785
  180DOPC  H13S22077   6.030   3.381  13.466  1.0683  0.3658 -1.7274
  180DOPC  C21422078   5.973   3.477  13.659 -0.2089  0.4599 -0.1582
  180DOPC  H14R22079   5.962   3.377  13.705 -3.0418 -0.1311 -1.8659
  180DOPC  H14S22080   5.872   3.516  13.633 -1.0257 -0.6221  1.2477
  180DOPC  C21522081   6.031   3.574  13.759  0.0616 -0.3108  0.8364
  180DOPC  H15R22082   6.024   3.678  13.722 -1.5825  0.3231  2.7688
  180DOPC  H15S22083   6.140   3.552  13.769  0.8672  2.2463 -1.2117
  180DOPC  C21622084   5.957   3.571  13.901  0.2916 -0.2383  0.9316
  180DOPC  H16R22085   5.968   3.474  13.952 -0.6662  0.8296  3.2943
  180DOPC  H16S22086   5.848   3.569  13.882  0.0052  1.1259  2.2210
  180DOPC  C21722087   6.002   3.689  13.979 -0.1369  0.6057  1.2285
  180DOPC  H17R22088   5.949   3.780  13.943 -3.1943 -0.8308  1.7158
  180DOPC  H17S22089   6.110   3.689  13.954 -0.6117 -1.8517 -1.3390
  180DOPC  C21822090   5.982   3.665  14.126  0.5917  0.5601  0.5078
  180DOPC  H18R22091   6.038   3.739  14.187  1.2882 -1.1749  2.0906
  180DOPC  H18S22092   6.032   3.572  14.162  2.3775  0.9788 -0.7823
  180DOPC  H18T22093   5.876   3.677  14.157  0.7270  2.1491  0.4299
  180DOPC   C3322094   5.886   3.119  12.612 -0.0351  0.3559 -0.1970
  180DOPC   H3X22095   5.792   3.103  12.555 -0.5837  1.4928  0.3676
  180DOPC   H3Y22096   5.927   3.221  12.597 -0.0304  0.7310  2.0075
  180DOPC   C3422097   5.847   3.110  12.757  0.4306 -0.4278 -0.3529
  180DOPC   H4X22098   5.809   3.007  12.776 -2.3413  0.1349 -2.2161
  180DOPC   H4Y22099   5.759   3.177  12.771  0.6244  0.4070 -2.6766
  180DOPC   C3522100   5.955   3.150  12.856  0.8534  0.0922  0.6045
  180DOPC   H5X22101   5.974   3.259  12.852 -2.6415  0.7936 -0.9552
  180DOPC   H5Y22102   6.046   3.088  12.841  1.0836  0.7142 -0.6929
  180DOPC   C3622103   5.895   3.106  12.994  0.3031  0.2270 -0.0994
  180DOPC   H6X22104   5.851   3.004  12.999 -0.4373  0.5151 -0.4599
  180DOPC   H6Y22105   5.980   3.130  13.061  0.4426 -0.8863  0.1350
  180DOPC   C3722106   5.784   3.205  13.042 -0.3022 -0.3911  0.5562
  180DOPC   H7X22107   5.815   3.311  13.041 -2.8502  0.4215  0.8409
  180DOPC   H7Y22108   5.698   3.201  12.973 -2.1480  1.4330  2.5898
  180DOPC   C3822109   5.728   3.173  13.188  0.4343 -0.4430  0.5750
  180DOPC   H8X22110   5.681   3.073  13.180  3.4455 -1.9356  0.2378
  180DOPC   H8Y22111   5.645   3.246  13.204 -0.5168 -1.5605  0.8800
  180DOPC   C3922112   5.822   3.189  13.306  0.4106 -0.0985  0.1047
  180DOPC   H9X22113   5.889   3.275  13.290  3.3582 -2.2173  0.2706
  180DOPC  C31022114   5.845   3.097  13.402 -0.2961  0.3474 -0.4256
  180DOPC  H10X22115   5.919   3.126  13.478  1.2162  1.6566 -2.3061
  180DOPC  C31122116   5.773   2.966  13.429  0.1027 -0.5285 -0.1638
  180DOPC  H11X22117   5.691   2.948  13.357 -1.4319  2.6763  0.6099
  180DOPC  H11Y22118   5.735   2.959  13.533  2.1329  0.4593  0.7141
  180DOPC  C31222119   5.869   2.844  13.417  0.5209  0.1185 -0.0921
  180DOPC  H12X22120   5.834   2.767  13.489  0.2377 -1.6604 -2.0246
  180DOPC  H12Y22121   5.970   2.879  13.448  0.0342  1.3855  0.1168
  180DOPC  C31322122   5.891   2.806  13.272  0.0956 -0.0143 -0.2659
  180DOPC  H13X22123   5.793   2.789  13.224  0.2979 -0.1929 -0.6211
  180DOPC  H13Y22124   5.945   2.893  13.228 -0.7458  0.8991  0.4731
  180DOPC  C31422125   5.982   2.675  13.250 -0.0074 -0.5458 -0.4110
  180DOPC  H14X22126   6.075   2.697  13.308 -0.2840  2.0373 -0.8424
  180DOPC  H14Y22127   5.926   2.587  13.290 -0.5927 -0.8318 -1.8287
  180DOPC  C31522128   6.028   2.635  13.110 -0.1707 -0.3091 -0.0523
  180DOPC  H15X22129   6.111   2.561  13.115 -1.1716 -1.5845 -1.3720
  180DOPC  H15Y22130   6.067   2.727  13.062 -0.8770  0.0720  0.0912
  180DOPC  C31622131   5.901   2.600  13.035 -0.3944 -0.3021  0.9908
  180DOPC  H16X22132   5.899   2.492  13.008  1.2476 -0.2151  0.4065
  180DOPC  H16Y22133   5.817   2.616  13.105  0.8164 -0.5889  2.5574
  180DOPC  C31722134   5.895   2.674  12.898 -0.4887  0.5710  0.0436
  180DOPC  H17X22135   5.879   2.783  12.912  2.2650  0.8503  1.5555
  180DOPC  H17Y22136   5.996   2.652  12.857  0.5909 -1.2207  3.3151
  180DOPC  C31822137   5.789   2.613  12.804  0.8049 -0.0917 -0.0728
  180DOPC  H18X22138   5.696   2.612  12.865  0.7866  1.3041 -0.0486
  180DOPC  H18Y22139   5.772   2.678  12.715 -1.7845 -1.3550 -0.6109
  180DOPC  H18Z22140   5.814   2.509  12.776 -0.0242 -0.6740  1.2467
  181DOPC     N22141   0.323   3.224  12.353 -0.2165 -0.1792  0.3864
  181DOPC   C1222142   0.301   3.075  12.376 -0.8480  0.2979 -0.1364
  181DOPC  H12A22143   0.373   3.013  12.324  0.2605  0.6000  1.0043
  181DOPC  H12B22144   0.206   3.046  12.332 -1.1871  0.7271  0.3013
  181DOPC   C1322145   0.459   3.263  12.394 -0.0504  0.2333  0.1674
  181DOPC  H13A22146   0.465   3.245  12.500  0.8507 -0.1459  0.0600
  181DOPC  H13B22147   0.541   3.207  12.351  0.3049  0.2462  0.8253
  181DOPC  H13C22148   0.472   3.368  12.372  0.6773  0.1032 -0.0501
  181DOPC   C1422149   0.231   3.319  12.420  0.2212  0.3682  0.4396
  181DOPC  H14A22150   0.138   3.311  12.365 -1.1337  1.6172  2.4108
  181DOPC  H14B22151   0.212   3.291  12.523  0.1725 -0.0285  0.3237
  181DOPC  H14C22152   0.261   3.422  12.413  0.2803  0.3337  0.1692
  181DOPC   C1522153   0.319   3.242  12.205  0.2669 -0.1787  0.3451
  181DOPC  H15A22154   0.345   3.144  12.167 -1.9664 -1.1456  1.1458
  181DOPC  H15B22155   0.393   3.316  12.177 -0.6385  0.3860 -0.6237
  181DOPC  H15C22156   0.219   3.262  12.170 -0.6533 -2.3656  1.5340
  181DOPC   C1122157   0.281   3.029  12.522 -0.4128 -0.0861 -0.1349
  181DOPC  H11A22158   0.275   2.919  12.532 -0.5741 -0.0160  0.6577
  181DOPC  H11B22159   0.365   3.067  12.584  0.3208 -0.2023 -1.0459
  181DOPC     P22160   0.016   3.018  12.522 -0.2191 -0.0653  0.1958
  181DOPC   O1322161   0.012   2.874  12.541 -0.5826 -0.3564 -0.6017
  181DOPC   O1422162  -0.011   3.062  12.384  1.1203 -0.1998  0.0330
  181DOPC   O1222163   0.156   3.073  12.568  0.4116  0.6219  0.5902
  181DOPC   O1122164  -0.081   3.088  12.623 -0.4019  1.0365 -0.1886
  181DOPC    C122165  -0.104   3.227  12.611 -0.3696  0.6036 -0.4129
  181DOPC    HA22166  -0.204   3.247  12.567  0.6359  1.8336 -2.2559
  181DOPC    HB22167  -0.032   3.277  12.543 -0.0473 -0.3288 -0.7713
  181DOPC    C222168  -0.082   3.303  12.753  0.0220  0.2711 -0.6190
  181DOPC    HS22169   0.021   3.295  12.794 -1.0098  2.5857  2.9112
  181DOPC   O2122170  -0.168   3.247  12.850 -0.2149  0.1471  0.3089
  181DOPC   C2122171  -0.104   3.156  12.928 -0.7826  0.2163 -0.7100
  181DOPC   O2222172   0.016   3.131  12.928 -0.1562  0.1706  0.3774
  181DOPC   C2222173  -0.202   3.107  13.031  0.0045  0.4025  0.1889
  181DOPC   H2R22174  -0.184   3.003  13.066  0.2286  0.0623 -0.8856
  181DOPC   H2S22175  -0.299   3.106  12.977 -0.2188 -3.1462  0.4376
  181DOPC    C322176  -0.117   3.451  12.727 -0.3447 -0.3493  0.1737
  181DOPC    HX22177  -0.217   3.449  12.678 -1.4592 -1.2706  2.3218
  181DOPC    HY22178  -0.037   3.490  12.662  0.7320 -1.0587  1.0407
  181DOPC   O3122179  -0.131   3.541  12.846  0.3621 -0.2408  0.1891
  181DOPC   C3122180  -0.014   3.569  12.909 -0.2535 -0.3278 -0.0115
  181DOPC   O3222181   0.089   3.510  12.887 -0.7745 -0.0549 -0.4026
  181DOPC   C3222182  -0.033   3.672  13.010 -0.5970  0.0002  0.2295
  181DOPC   H2X22183   0.053   3.742  13.004  0.2097 -1.0680 -1.4701
  181DOPC   H2Y22184  -0.131   3.724  13.007 -1.3055 -1.2592  0.5749
  181DOPC   C2322185  -0.217   3.201  13.146 -0.1329 -1.0009  0.6790
  181DOPC   H3R22186  -0.324   3.218  13.170 -0.0516  0.2542  0.2212
  181DOPC   H3S22187  -0.201   3.308  13.121 -0.7965 -0.6841  1.5281
  181DOPC   C2422188  -0.134   3.166  13.273  0.2764  0.4600 -0.1193
  181DOPC   H4R22189  -0.173   3.069  13.310 -1.5616  1.5913  1.0473
  181DOPC   H4S22190  -0.158   3.248  13.343  1.0758  0.9269 -0.3809
  181DOPC   C2522191   0.016   3.175  13.256  0.1790 -0.0174 -0.5814
  181DOPC   H5R22192   0.049   3.276  13.223 -1.6240  1.1908  1.0842
  181DOPC   H5S22193   0.053   3.100  13.183  2.6286 -1.4891  1.9636
  181DOPC   C2622194   0.104   3.158  13.384  0.2162 -0.2155  0.1095
  181DOPC   H6R22195   0.117   3.048  13.388  1.4400 -0.2439 -2.3333
  181DOPC   H6S22196   0.033   3.178  13.467 -1.6602 -1.3295 -1.1396
  181DOPC   C2722197   0.240   3.230  13.391 -0.5076 -0.4818 -0.2069
  181DOPC   H7R22198   0.222   3.328  13.341 -0.2590 -0.5147 -0.3640
  181DOPC   H7S22199   0.317   3.178  13.330 -0.7513 -1.4213  0.2635
  181DOPC   C2822200   0.296   3.244  13.539  0.3042 -0.8371  0.5760
  181DOPC   H8R22201   0.400   3.282  13.534  0.1144 -0.4401 -1.5252
  181DOPC   H8S22202   0.306   3.141  13.580  1.1012 -0.6953  0.7573
  181DOPC   C2922203   0.211   3.330  13.623  0.0937  0.5722  0.1594
  181DOPC   H9R22204   0.155   3.411  13.575 -0.1377  0.6744  0.5908
  181DOPC  C21022205   0.182   3.313  13.753  0.4338 -0.1831  0.3910
  181DOPC  H10R22206   0.118   3.389  13.801 -0.0102  1.0161 -1.9489
  181DOPC  C21122207   0.246   3.202  13.842 -0.8415 -0.3496 -0.3440
  181DOPC  H11R22208   0.335   3.154  13.797 -1.5148  0.4395 -2.6240
  181DOPC  H11S22209   0.161   3.131  13.857 -1.1065 -0.1203 -0.7436
  181DOPC  C21222210   0.286   3.268  13.977  0.5318  0.6717 -0.0300
  181DOPC  H12R22211   0.200   3.333  14.001  1.3366  1.6114  0.3488
  181DOPC  H12S22212   0.383   3.321  13.959 -0.4326  1.6872 -2.8973
  181DOPC  C21322213   0.309   3.163  14.092  0.0294 -0.0682  0.3133
  181DOPC  H13R22214   0.379   3.084  14.058 -0.0786 -0.2134  0.4308
  181DOPC  H13S22215   0.209   3.121  14.114 -0.4385  1.2381  0.8471
  181DOPC  C21422216   0.360   3.238  14.213  0.6898  0.1392  0.1396
  181DOPC  H14R22217   0.448   3.297  14.182 -0.1081  0.3848 -1.8083
  181DOPC  H14S22218   0.393   3.165  14.291  2.0543  1.6040  0.9944
  181DOPC  C21522219   0.264   3.341  14.276  0.3806 -0.8359 -0.3168
  181DOPC  H15R22220   0.170   3.285  14.297  0.0993 -0.1281  0.3499
  181DOPC  H15S22221   0.235   3.421  14.205 -1.3238 -0.0390  1.1869
  181DOPC  C21622222   0.320   3.409  14.405 -0.1067 -0.2323  0.3728
  181DOPC  H16R22223   0.428   3.430  14.396 -0.3419  1.1999  0.6705
  181DOPC  H16S22224   0.303   3.331  14.482  2.4191 -0.9292  0.2982
  181DOPC  C21722225   0.236   3.524  14.448 -0.1497 -0.1095  0.6845
  181DOPC  H17R22226   0.233   3.602  14.368 -1.3986 -1.1420 -0.3365
  181DOPC  H17S22227   0.289   3.582  14.527 -1.3861  3.5298 -0.9214
  181DOPC  C21822228   0.094   3.486  14.474  0.0981 -0.1709 -0.4353
  181DOPC  H18R22229   0.041   3.567  14.528 -2.4114 -2.2452  0.4512
  181DOPC  H18S22230   0.091   3.405  14.551 -1.1600  1.0829  0.9054
  181DOPC  H18T22231   0.044   3.445  14.383  1.8691 -2.7596 -0.3642
  181DOPC   C3322232  -0.018   3.598  13.143  0.1134 -0.2756 -0.5257
  181DOPC   H3X22233   0.078   3.542  13.135  0.8518  0.9422 -0.3813
  181DOPC   H3Y22234  -0.106   3.531  13.153  0.0821 -0.0641  0.7868
  181DOPC   C3422235  -0.005   3.687  13.266  0.1219  0.5953 -0.2450
  181DOPC   H4X22236  -0.083   3.766  13.263  0.9536  1.4581  0.1327
  181DOPC   H4Y22237   0.094   3.737  13.277 -0.2838  0.9953  2.2393
  181DOPC   C3522238  -0.030   3.592  13.384 -0.0218 -0.3647 -0.4024
  181DOPC   H5X22239   0.044   3.510  13.378  0.7413  0.3049 -0.2838
  181DOPC   H5Y22240  -0.131   3.548  13.372 -0.4141  0.0030  1.2467
  181DOPC   C3622241  -0.028   3.672  13.515  0.1724 -0.3110 -0.0959
  181DOPC   H6X22242  -0.100   3.755  13.499 -1.1455 -1.3904  0.1092
  181DOPC   H6Y22243  -0.065   3.612  13.600  0.0135 -0.0068  0.0503
  181DOPC   C3722244   0.108   3.725  13.555  0.5186 -0.2799  0.1014
  181DOPC   H7X22245   0.188   3.648  13.549  1.5909  0.8011  0.0152
  181DOPC   H7Y22246   0.125   3.804  13.479  1.0737 -0.0450  0.4620
  181DOPC   C3822247   0.112   3.790  13.692 -0.6181 -0.0692 -0.3793
  181DOPC   H8X22248   0.030   3.865  13.691 -0.8795 -0.3555 -1.2516
  181DOPC   H8Y22249   0.209   3.844  13.691 -0.1681 -0.8606 -0.3686
  181DOPC   C3922250   0.087   3.689  13.807 -0.2997 -0.3462  0.0622
  181DOPC   H9X22251  -0.003   3.625  13.807 -1.3679  1.0436  1.9434
  181DOPC  C31022252   0.170   3.656  13.899 -0.3531  0.0952 -0.5926
  181DOPC  H10X22253   0.128   3.592  13.978 -0.8093 -1.1308 -1.7917
  181DOPC  C31122254   0.311   3.706  13.918  0.4453  0.0959  0.3851
  181DOPC  H11X22255   0.312   3.798  13.981  2.6848  1.1232 -1.0231
  181DOPC  H11Y22256   0.363   3.743  13.827 -1.4981  0.7328 -0.5209
  181DOPC  C31222257   0.405   3.612  13.994 -0.0624  0.3659 -0.2558
  181DOPC  H12X22258   0.391   3.513  13.947 -2.6255  0.5232  0.0358
  181DOPC  H12Y22259   0.398   3.600  14.105 -2.6307 -2.3154 -0.5936
  181DOPC  C31322260   0.550   3.658  13.966 -0.2614 -0.0640 -0.2791
  181DOPC  H13X22261   0.577   3.663  13.859  0.8043  0.9686  0.0291
  181DOPC  H13Y22262   0.578   3.757  14.008  0.5717 -0.8972  1.2108
  181DOPC  C31422263   0.661   3.566  14.012  0.3754 -0.3759  0.3249
  181DOPC  H14X22264   0.752   3.627  13.998  0.4730  0.4129  3.5261
  181DOPC  H14Y22265   0.637   3.556  14.120 -1.0200  2.5834  0.3690
  181DOPC  C31522266   0.668   3.436  13.938 -0.0720  0.7691  0.5661
  181DOPC  H15X22267   0.703   3.446  13.833 -0.1379  0.3905  0.5082
  181DOPC  H15Y22268   0.564   3.400  13.943 -0.8882  3.0753  2.6678
  181DOPC  C31622269   0.741   3.328  14.011  0.0456 -0.5764  0.4324
  181DOPC  H16X22270   0.846   3.364  14.017  0.2513 -1.4426  3.0106
  181DOPC  H16Y22271   0.698   3.323  14.114 -2.0533  0.2819 -0.3288
  181DOPC  C31722272   0.721   3.189  13.942 -0.3182 -0.0354 -0.2766
  181DOPC  H17X22273   0.614   3.163  13.942 -0.0894 -1.2519  1.8790
  181DOPC  H17Y22274   0.760   3.203  13.839  0.4597 -2.9817 -0.4796
  181DOPC  C31822275   0.809   3.085  14.008  0.4610  0.2368  0.4045
  181DOPC  H18X22276   0.746   3.053  14.094 -0.0397  0.2159  0.0349
  181DOPC  H18Y22277   0.834   3.004  13.936 -1.0594 -0.6193  0.7871
  181DOPC  H18Z22278   0.905   3.123  14.049  0.4567  1.2075 -0.4394
  182DOPC     N22279   2.253   0.859  12.406  0.1291 -0.1155  0.3016
  182DOPC   C1222280   2.377   0.926  12.463  0.0861 -0.6409  0.4464
  182DOPC  H12A22281   2.412   0.867  12.545 -2.1255 -2.2012  0.3665
  182DOPC  H12B22282   2.347   1.023  12.501 -0.9276  0.7753 -3.3927
  182DOPC   C1322283   2.279   0.726  12.342 -0.4220 -0.4081  0.3947
  182DOPC  H13A22284   2.187   0.676  12.314 -1.2434  1.5888 -0.6933
  182DOPC  H13B22285   2.338   0.736  12.252 -2.5426  1.3025 -0.9241
  182DOPC  H13C22286   2.339   0.662  12.405 -0.7078  0.2574  1.3643
  182DOPC   C1422287   2.193   0.944  12.297  0.3700  0.5089 -0.2288
  182DOPC  H14A22288   2.132   0.884  12.232  0.3424  0.5718 -0.2620
  182DOPC  H14B22289   2.139   1.031  12.332  2.0786  1.0274  1.3316
  182DOPC  H14C22290   2.272   0.990  12.240 -0.2183  4.0796  1.5737
  182DOPC   C1522291   2.147   0.834  12.501  0.0020 -0.2781 -0.5364
  182DOPC  H15A22292   2.152   0.741  12.554 -1.0606  0.4388  0.9078
  182DOPC  H15B22293   2.056   0.846  12.444 -1.0381 -0.5072  1.0048
  182DOPC  H15C22294   2.135   0.907  12.580 -2.2766 -2.0445  0.8643
  182DOPC   C1122295   2.493   0.958  12.368 -0.1305  0.5369  0.0801
  182DOPC  H11A22296   2.578   0.995  12.428  1.1415 -1.4363 -0.4079
  182DOPC  H11B22297   2.533   0.870  12.313  3.2587  1.2351  1.2389
  182DOPC     P22298   2.455   1.210  12.310  0.2879  0.4337  0.2583
  182DOPC   O1322299   2.333   1.271  12.255  0.0038 -0.1463 -0.2989
  182DOPC   O1422300   2.587   1.265  12.268  0.0009 -0.1212  0.1063
  182DOPC   O1222301   2.455   1.054  12.270 -0.1967  0.0607 -0.0489
  182DOPC   O1122302   2.454   1.214  12.464  0.0999 -0.4975 -0.4905
  182DOPC    C122303   2.345   1.276  12.542 -0.4360  1.3113 -0.1680
  182DOPC    HA22304   2.348   1.210  12.631  0.8537 -0.6483 -1.5775
  182DOPC    HB22305   2.244   1.249  12.504 -0.2496  0.0220  0.2279
  182DOPC    C222306   2.357   1.421  12.572 -0.1894 -0.2755 -0.0145
  182DOPC    HS22307   2.357   1.469  12.472  2.4251 -2.3342 -1.0977
  182DOPC   O2122308   2.471   1.448  12.647 -0.1465 -0.4977  0.3363
  182DOPC   C2122309   2.508   1.577  12.651 -0.2607  0.3259  0.0974
  182DOPC   O2222310   2.454   1.663  12.581 -0.1329 -0.4790 -0.2539
  182DOPC   C2222311   2.630   1.594  12.743 -0.1474  0.4795  0.4043
  182DOPC   H2R22312   2.613   1.694  12.787  0.6955  1.1134 -0.6635
  182DOPC   H2S22313   2.723   1.608  12.683  0.1650  1.0196  1.0089
  182DOPC    C322314   2.232   1.475  12.647  0.5473  0.5628  1.2081
  182DOPC    HX22315   2.144   1.428  12.599  1.4254 -0.0623  0.1629
  182DOPC    HY22316   2.229   1.582  12.618 -0.1440  0.2790  0.1801
  182DOPC   O3122317   2.242   1.472  12.786 -0.1390 -0.2291 -0.1424
  182DOPC   C3122318   2.199   1.362  12.850  0.1281  0.2967  0.1822
  182DOPC   O3222319   2.130   1.275  12.795 -0.4905  0.0143  0.3396
  182DOPC   C3222320   2.249   1.360  12.990  0.3109 -0.5284 -0.4922
  182DOPC   H2X22321   2.355   1.326  12.979 -0.0726 -1.3919 -1.7742
  182DOPC   H2Y22322   2.247   1.464  13.031 -0.7120 -1.1772  1.2073
  182DOPC   C2322323   2.649   1.494  12.861  0.4751  0.1235 -0.3404
  182DOPC   H3R22324   2.704   1.406  12.821 -1.1804 -0.6612 -0.9916
  182DOPC   H3S22325   2.552   1.462  12.904  0.7219  2.1241  1.9024
  182DOPC   C2422326   2.725   1.555  12.977  0.7098 -0.2710  0.2832
  182DOPC   H4R22327   2.657   1.631  13.020  0.5117 -0.9304  1.1697
  182DOPC   H4S22328   2.819   1.607  12.949 -0.9011  2.9235  0.3665
  182DOPC   C2522329   2.759   1.458  13.093 -0.3109 -0.4265 -0.1947
  182DOPC   H5R22330   2.780   1.513  13.187 -1.4755  0.4427 -0.4239
  182DOPC   H5S22331   2.849   1.398  13.068 -1.4157 -1.1665 -2.6287
  182DOPC   C2622332   2.652   1.354  13.130 -0.4418 -0.6629  0.3834
  182DOPC   H6R22333   2.631   1.289  13.043 -0.6667 -1.4191  0.9904
  182DOPC   H6S22334   2.554   1.399  13.156 -0.5994 -0.7011 -0.1392
  182DOPC   C2722335   2.705   1.266  13.236 -0.3625  0.4678 -0.1848
  182DOPC   H7R22336   2.725   1.334  13.323 -2.3882  1.2637 -0.2830
  182DOPC   H7S22337   2.802   1.226  13.200 -1.0285 -0.1745 -1.3154
  182DOPC   C2822338   2.618   1.153  13.293 -0.2184 -0.2658 -0.1546
  182DOPC   H8R22339   2.535   1.201  13.348 -1.7049 -1.8343 -0.9345
  182DOPC   H8S22340   2.670   1.105  13.379 -0.2780 -1.3115 -0.6775
  182DOPC   C2922341   2.559   1.054  13.191 -0.6160 -0.4316 -1.0036
  182DOPC   H9R22342   2.593   1.077  13.089  0.1195 -0.5895 -0.8023
  182DOPC  C21022343   2.494   0.936  13.218  0.2498 -0.1314 -0.6877
  182DOPC  H10R22344   2.452   0.868  13.142  0.3135  0.9226 -1.6968
  182DOPC  C21122345   2.471   0.894  13.363  0.1806  0.1287  0.3225
  182DOPC  H11R22346   2.458   0.985  13.425 -2.3150 -0.7778  1.2640
  182DOPC  H11S22347   2.566   0.851  13.398  2.4996  2.4935 -2.4938
  182DOPC  C21222348   2.344   0.822  13.403  1.2469  0.5752 -1.1965
  182DOPC  H12R22349   2.263   0.827  13.327  1.0986  1.2146 -1.0049
  182DOPC  H12S22350   2.296   0.861  13.495  2.3701 -0.1129 -0.3015
  182DOPC  C21322351   2.357   0.674  13.429 -0.1127  0.5884 -0.3194
  182DOPC  H13R22352   2.418   0.669  13.522 -2.7672  4.6814  1.9195
  182DOPC  H13S22353   2.406   0.624  13.343 -0.2458 -2.0844  1.0441
  182DOPC  C21422354   2.216   0.603  13.440 -0.7171 -0.7206  0.0288
  182DOPC  H14R22355   2.226   0.495  13.416  0.3085 -0.7919  0.7317
  182DOPC  H14S22356   2.154   0.639  13.355  2.5994  0.7863 -1.9537
  182DOPC  C21522357   2.141   0.623  13.571  0.1700 -0.1907  0.0730
  182DOPC  H15R22358   2.115   0.730  13.588 -0.7284 -0.4504  0.4002
  182DOPC  H15S22359   2.211   0.598  13.653  1.0635  1.2812 -0.2067
  182DOPC  C21622360   2.011   0.539  13.580 -0.8361  0.0296  0.5138
  182DOPC  H16R22361   2.045   0.435  13.563 -1.1575  0.0395 -0.2091
  182DOPC  H16S22362   1.939   0.569  13.501 -0.4950  1.2280  0.6333
  182DOPC  C21722363   1.927   0.551  13.707 -0.7625  1.1209 -0.7676
  182DOPC  H17R22364   1.864   0.641  13.689 -1.4997  0.4115 -1.8758
  182DOPC  H17S22365   1.993   0.566  13.796 -0.9869  0.2984 -0.4544
  182DOPC  C21822366   1.837   0.430  13.717  0.1451 -0.2883  0.0700
  182DOPC  H18R22367   1.799   0.417  13.820  2.1526 -3.1312  0.5659
  182DOPC  H18S22368   1.898   0.342  13.688  1.1773  0.1553  0.8673
  182DOPC  H18T22369   1.754   0.440  13.643  1.1664 -0.1161 -1.0891
  182DOPC   C3322370   2.196   1.255  13.085  0.2591  0.1605  0.7277
  182DOPC   H3X22371   2.236   1.153  13.066 -2.5031 -0.7870 -0.5010
  182DOPC   H3Y22372   2.085   1.258  13.081  0.2276 -1.5558 -2.0607
  182DOPC   C3422373   2.231   1.284  13.227  0.1040 -0.0628 -1.1759
  182DOPC   H4X22374   2.188   1.383  13.252  1.4984  0.4566 -0.7353
  182DOPC   H4Y22375   2.341   1.293  13.232 -0.0072  1.9558 -1.5954
  182DOPC   C3522376   2.187   1.170  13.323 -0.0381 -0.1557 -0.6599
  182DOPC   H5X22377   2.192   1.207  13.428  0.1706  1.5181 -1.2169
  182DOPC   H5Y22378   2.248   1.077  13.326  2.2078  1.2515 -0.1022
  182DOPC   C3622379   2.038   1.127  13.292 -0.3775  0.4751 -0.2587
  182DOPC   H6X22380   1.972   1.215  13.284  0.1617  0.9140  0.0012
  182DOPC   H6Y22381   2.037   1.068  13.198  1.8406  0.5173 -0.3728
  182DOPC   C3722382   1.988   1.044  13.412  0.2057 -0.5136  0.1996
  182DOPC   H7X22383   2.021   0.939  13.417 -0.5595 -0.7094  1.9150
  182DOPC   H7Y22384   2.002   1.106  13.504 -3.0469  0.1660  0.3749
  182DOPC   C3822385   1.830   1.032  13.433 -0.1197  0.1013  0.2265
  182DOPC   H8X22386   1.788   1.133  13.453 -3.0550 -1.0822  0.5447
  182DOPC   H8Y22387   1.815   0.990  13.535 -0.1082  1.5419  0.8435
  182DOPC   C3922388   1.759   0.963  13.325  0.2719 -1.0153  0.0851
  182DOPC   H9X22389   1.787   1.007  13.227 -2.7160 -0.3427 -0.5738
  182DOPC  C31022390   1.655   0.880  13.326  0.8989  0.5726 -0.8847
  182DOPC  H10X22391   1.623   0.832  13.232  0.3514 -0.7987 -0.0301
  182DOPC  C31122392   1.590   0.830  13.453  0.6411 -0.1440 -0.4813
  182DOPC  H11X22393   1.492   0.881  13.467 -0.7290 -2.5443 -0.7506
  182DOPC  H11Y22394   1.644   0.854  13.547 -1.9607  0.4522  0.9428
  182DOPC  C31222395   1.552   0.681  13.441  0.0892  0.3170  0.6639
  182DOPC  H12X22396   1.642   0.618  13.458  0.0804  0.0044 -0.4118
  182DOPC  H12Y22397   1.504   0.657  13.344 -0.7265  3.3602  0.1983
  182DOPC  C31322398   1.445   0.644  13.547  0.0936  0.4175 -0.9885
  182DOPC  H13X22399   1.494   0.662  13.645 -1.2227 -4.1714  0.7435
  182DOPC  H13Y22400   1.351   0.704  13.547 -1.3531 -1.6509  1.4336
  182DOPC  C31422401   1.411   0.495  13.552  0.7616  0.5449  0.4580
  182DOPC  H14X22402   1.352   0.467  13.462  0.9749 -1.4438  0.8838
  182DOPC  H14Y22403   1.514   0.453  13.558  1.6982  2.3179 -1.7780
  182DOPC  C31522404   1.323   0.441  13.665 -0.4060  0.0951  0.1317
  182DOPC  H15X22405   1.301   0.332  13.655  0.5520  0.0513 -2.0787
  182DOPC  H15Y22406   1.226   0.494  13.656 -1.3236 -1.2575  1.3847
  182DOPC  C31622407   1.374   0.468  13.812  0.2020  0.1946 -0.9195
  182DOPC  H16X22408   1.468   0.410  13.824 -0.5220 -0.8394 -0.0813
  182DOPC  H16Y22409   1.407   0.573  13.823 -0.6130  0.2572  1.5478
  182DOPC  C31722410   1.269   0.447  13.919  0.4025 -0.0716 -0.2089
  182DOPC  H17X22411   1.189   0.517  13.888 -0.3290 -0.9879 -0.4681
  182DOPC  H17Y22412   1.223   0.345  13.923 -2.2628  1.0933  1.5129
  182DOPC  C31822413   1.326   0.477  14.054  0.1949  0.1171 -0.3924
  182DOPC  H18X22414   1.389   0.568  14.046  0.3260  0.0674  0.0459
  182DOPC  H18Y22415   1.246   0.481  14.131  0.8135 -0.3657  0.2907
  182DOPC  H18Z22416   1.398   0.397  14.084  1.1825  0.8445 -0.7659
  183DOPC     N22417   7.525   6.293  12.229  0.0659 -0.4575 -0.4558
  183DOPC   C1222418   7.458   6.231  12.348  0.7673 -0.6166 -0.9360
  183DOPC  H12A22419   7.362   6.279  12.362  1.0833 -0.7847  3.2173
  183DOPC  H12B22420   7.519   6.265  12.431 -0.8758  0.0081  0.0740
  183DOPC   C1322421   7.427   6.292  12.115  0.5590 -0.0732  0.2125
  183DOPC  H13A22422   7.471   6.318  12.019 -0.0969 -2.6431 -0.8669
  183DOPC  H13B22423   7.385   6.193  12.100  1.1002 -0.1511 -0.9304
  183DOPC  H13C22424   7.336   6.349  12.125  0.4415 -0.0538 -0.7938
  183DOPC   C1422425   7.648   6.225  12.192 -0.1219  0.0685 -0.9721
  183DOPC  H14A22426   7.713   6.284  12.129  1.7367  0.1605  0.9262
  183DOPC  H14B22427   7.712   6.213  12.278 -1.5742  2.6063  0.5693
  183DOPC  H14C22428   7.620   6.129  12.150  1.1294  0.1673 -2.1141
  183DOPC   C1522429   7.560   6.432  12.254 -0.3990 -0.1717  0.3964
  183DOPC  H15A22430   7.639   6.468  12.190  0.1729 -0.1216  1.1071
  183DOPC  H15B22431   7.605   6.444  12.352  1.1425  0.2725 -0.3363
  183DOPC  H15C22432   7.473   6.496  12.249 -0.2892 -0.0663 -0.1930
  183DOPC   C1122433   7.440   6.077  12.358  0.0578 -0.5144 -0.5541
  183DOPC  H11A22434   7.542   6.041  12.332  0.5508  1.4896 -1.6171
  183DOPC  H11B22435   7.424   6.046  12.463  2.0606 -0.9192 -0.3147
  183DOPC     P22436   7.186   6.048  12.304  0.0664 -0.2850 -0.0463
  183DOPC   O1322437   7.103   5.954  12.221 -0.0466  0.3053  0.3266
  183DOPC   O1422438   7.151   6.192  12.304 -0.0706 -0.1612  0.4459
  183DOPC   O1222439   7.338   6.025  12.273 -0.1828 -0.3450 -0.8967
  183DOPC   O1122440   7.185   6.002  12.456 -0.2940  0.1245 -0.0217
  183DOPC    C122441   7.101   6.076  12.549  0.0939  0.8660 -0.1512
  183DOPC    HA22442   6.998   6.082  12.508 -0.2679 -2.6916 -0.0089
  183DOPC    HB22443   7.140   6.179  12.565  0.5180  1.0076 -1.9041
  183DOPC    C222444   7.089   5.994  12.683 -0.3842  0.3795  0.0132
  183DOPC    HS22445   7.194   5.961  12.698 -0.0972  1.8184  1.5141
  183DOPC   O2122446   7.004   5.882  12.662 -0.0774 -0.2253 -0.1423
  183DOPC   C2122447   7.013   5.791  12.757  0.2242 -0.3501  0.5268
  183DOPC   O2222448   7.110   5.776  12.829 -0.1800  0.3188  0.2059
  183DOPC   C2222449   6.874   5.727  12.766 -0.1539 -0.1315  0.1764
  183DOPC   H2R22450   6.853   5.679  12.668 -2.6170  0.7150  0.2108
  183DOPC   H2S22451   6.800   5.810  12.772 -0.5046 -0.2008 -2.1631
  183DOPC    C322452   7.051   6.072  12.810 -0.4086 -0.1726  0.1681
  183DOPC    HX22453   6.940   6.080  12.805 -0.7469 -2.9111  1.1099
  183DOPC    HY22454   7.101   6.170  12.798  1.1676 -0.8288  0.9905
  183DOPC   O3122455   7.082   6.009  12.939 -0.0670  0.7616 -0.0502
  183DOPC   C3122456   7.204   6.027  12.987  0.0406  0.1555  0.3908
  183DOPC   O3222457   7.280   6.119  12.950  0.2001  0.5494  0.5928
  183DOPC   C3222458   7.228   5.932  13.096  0.7541 -0.0929 -0.6216
  183DOPC   H2X22459   7.133   5.932  13.154  0.6721 -1.2459 -0.7162
  183DOPC   H2Y22460   7.236   5.824  13.069 -0.3457 -0.2976 -0.1957
  183DOPC   C2322461   6.857   5.624  12.880  0.2242 -0.3686 -0.2049
  183DOPC   H3R22462   6.935   5.545  12.869  1.8214  1.2584 -1.0205
  183DOPC   H3S22463   6.758   5.574  12.882 -0.7766  1.4046  3.6024
  183DOPC   C2422464   6.865   5.684  13.021  0.3857  0.6550 -0.0759
  183DOPC   H4R22465   6.766   5.728  13.048  0.3492  0.9402 -0.6717
  183DOPC   H4S22466   6.937   5.768  13.016  0.9755  0.0985 -1.0976
  183DOPC   C2522467   6.912   5.591  13.135 -0.6619 -0.5017  0.1139
  183DOPC   H5R22468   7.022   5.573  13.127 -0.7868 -1.0977 -0.3757
  183DOPC   H5S22469   6.880   5.488  13.110  0.5223 -0.8484 -0.0642
  183DOPC   C2622470   6.870   5.631  13.278 -0.0155 -0.6916 -0.0360
  183DOPC   H6R22471   6.785   5.703  13.280 -0.1373 -0.6946 -2.1681
  183DOPC   H6S22472   6.957   5.683  13.325  0.2699 -0.3337 -0.9349
  183DOPC   C2722473   6.827   5.516  13.367  0.3993  0.4572  0.5481
  183DOPC   H7R22474   6.914   5.449  13.352 -0.0272 -0.4700  2.0263
  183DOPC   H7S22475   6.735   5.477  13.319 -0.3566  2.7411  0.0019
  183DOPC   C2822476   6.799   5.543  13.518 -0.0984 -0.5375  0.4688
  183DOPC   H8R22477   6.700   5.592  13.525  0.1694 -0.0170  0.7246
  183DOPC   H8S22478   6.884   5.609  13.548  0.4673 -1.9036  2.0045
  183DOPC   C2922479   6.810   5.430  13.608  0.1832  0.5967 -0.3243
  183DOPC   H9R22480   6.877   5.349  13.577  0.1041  0.4098 -0.0163
  183DOPC  C21022481   6.760   5.428  13.735 -0.2296 -0.0869  0.2585
  183DOPC  H10R22482   6.763   5.330  13.784 -0.4808  0.9777  2.5403
  183DOPC  C21122483   6.692   5.537  13.813  0.2016 -0.5717  0.1260
  183DOPC  H11R22484   6.723   5.636  13.775 -0.9471  0.0047  0.6656
  183DOPC  H11S22485   6.708   5.517  13.921 -0.1071 -2.6624 -0.1568
  183DOPC  C21222486   6.537   5.548  13.811 -0.2821 -0.8895  0.5085
  183DOPC  H12R22487   6.497   5.453  13.853 -0.7894 -0.5637  0.7590
  183DOPC  H12S22488   6.503   5.565  13.707 -0.9526  0.4753  0.9373
  183DOPC  C21322489   6.489   5.666  13.901 -0.7535  0.4020 -0.5396
  183DOPC  H13R22490   6.535   5.762  13.868  1.4665  0.9032  3.3717
  183DOPC  H13S22491   6.543   5.643  13.995  1.1182 -0.6987 -1.8130
  183DOPC  C21422492   6.333   5.685  13.922 -0.4916  0.5302  0.3313
  183DOPC  H14R22493   6.300   5.712  13.819 -1.1683 -1.3194  0.0144
  183DOPC  H14S22494   6.305   5.761  13.998 -0.6773 -0.6388  1.4642
  183DOPC  C21522495   6.261   5.555  13.946 -0.5116  0.6693  0.6493
  183DOPC  H15R22496   6.305   5.488  13.868 -2.1437 -0.0538  0.3050
  183DOPC  H15S22497   6.153   5.565  13.921 -0.3327  1.5256  0.1850
  183DOPC  C21622498   6.295   5.482  14.074 -0.3724 -0.5417 -0.1363
  183DOPC  H16R22499   6.405   5.471  14.086 -0.1055  0.2781 -1.5794
  183DOPC  H16S22500   6.255   5.379  14.064 -1.2276 -0.2771  0.4104
  183DOPC  C21722501   6.229   5.552  14.185  0.2271 -0.4716 -0.1830
  183DOPC  H17R22502   6.135   5.602  14.153  0.5804  0.1199 -0.2953
  183DOPC  H17S22503   6.296   5.635  14.216 -1.4991  0.9720 -0.1751
  183DOPC  C21822504   6.202   5.470  14.308 -0.4384  0.3308  0.1533
  183DOPC  H18R22505   6.290   5.423  14.357 -0.0884  0.9332  0.1171
  183DOPC  H18S22506   6.148   5.376  14.281 -0.3580  0.7155 -1.4753
  183DOPC  H18T22507   6.151   5.543  14.374 -1.7059  0.8886 -1.3781
  183DOPC   C3322508   7.336   5.974  13.207 -0.1962 -0.8147  0.1249
  183DOPC   H3X22509   7.317   6.083  13.220 -1.7118 -0.9047 -1.1672
  183DOPC   H3Y22510   7.440   5.961  13.170 -0.1396  0.0009 -0.0302
  183DOPC   C3422511   7.314   5.906  13.343 -0.1745  0.6479 -0.1946
  183DOPC   H4X22512   7.367   5.808  13.340  0.4734  0.8443  2.3919
  183DOPC   H4Y22513   7.206   5.878  13.350  0.3427 -1.6147 -0.3927
  183DOPC   C3522514   7.369   5.982  13.474 -0.3261 -0.3224 -0.4772
  183DOPC   H5X22515   7.329   6.083  13.449 -0.7625 -0.2862  0.3359
  183DOPC   H5Y22516   7.479   5.982  13.466 -0.2250 -2.7492  0.1751
  183DOPC   C3622517   7.315   5.937  13.610  0.2908 -0.1074 -0.1518
  183DOPC   H6X22518   7.338   6.009  13.691  0.8457 -1.4405  0.9188
  183DOPC   H6Y22519   7.204   5.942  13.600  0.3503  1.0083 -0.3286
  183DOPC   C3722520   7.369   5.797  13.636  0.5496 -0.2368  0.1506
  183DOPC   H7X22521   7.289   5.735  13.681 -0.2482  1.3198  0.9350
  183DOPC   H7Y22522   7.392   5.727  13.553 -1.0811  0.2657 -0.7804
  183DOPC   C3822523   7.486   5.790  13.729  0.2006  0.2457  0.2133
  183DOPC   H8X22524   7.469   5.850  13.821  1.7306  1.8879 -0.5207
  183DOPC   H8Y22525   7.571   5.843  13.681  1.5440 -0.7022  1.4361
  183DOPC   C3922526   7.519   5.644  13.773 -0.5658 -1.3476  0.2817
  183DOPC   H9X22527   7.568   5.580  13.698  1.3467  0.4100 -0.0668
  183DOPC  C31022528   7.489   5.597  13.901  0.1998  0.8971  0.3914
  183DOPC  H10X22529   7.516   5.492  13.916 -3.0364 -0.0064  0.7316
  183DOPC  C31122530   7.416   5.665  14.013  0.4735 -0.3583 -0.5821
  183DOPC  H11X22531   7.355   5.751  13.977 -1.8820 -1.8297 -0.3339
  183DOPC  H11Y22532   7.489   5.693  14.092  0.3236 -0.3815 -0.4353
  183DOPC  C31222533   7.302   5.570  14.075 -0.0626 -0.1269  0.1094
  183DOPC  H12X22534   7.256   5.624  14.161  0.5623  1.4657 -0.5163
  183DOPC  H12Y22535   7.360   5.486  14.120 -1.5719 -0.0591  2.3484
  183DOPC  C31322536   7.207   5.508  13.975 -0.3366  0.1912  0.3165
  183DOPC  H13X22537   7.180   5.594  13.910  3.1867  1.3401  0.1966
  183DOPC  H13Y22538   7.261   5.442  13.905 -0.7380 -0.8032  0.9237
  183DOPC  C31422539   7.084   5.439  14.037 -0.1511 -0.1130 -0.3212
  183DOPC  H14X22540   7.016   5.518  14.076 -0.8806 -1.4163  1.1610
  183DOPC  H14Y22541   7.035   5.387  13.952 -0.0400 -0.9889  0.1290
  183DOPC  C31522542   7.113   5.337  14.153 -0.2667 -0.3625 -0.1853
  183DOPC  H15X22543   7.160   5.401  14.230 -0.8517 -0.2034  0.0453
  183DOPC  H15Y22544   7.188   5.260  14.124 -1.2181 -0.7464 -1.8152
  183DOPC  C31622545   6.984   5.270  14.201 -0.1123  0.3700 -0.3926
  183DOPC  H16X22546   6.903   5.341  14.228 -1.0295 -0.5309 -0.6966
  183DOPC  H16Y22547   6.928   5.209  14.127 -3.1647  2.4387  0.0284
  183DOPC  C31722548   7.017   5.176  14.317 -0.1906 -0.5152 -0.0123
  183DOPC  H17X22549   7.104   5.122  14.275 -0.3804  0.1371 -1.3011
  183DOPC  H17Y22550   7.065   5.221  14.407  3.6111  1.0606 -2.5654
  183DOPC  C31822551   6.909   5.084  14.356  0.0448 -0.9193  0.2625
  183DOPC  H18X22552   6.821   5.146  14.382  0.3268  0.6918 -2.2418
  183DOPC  H18Y22553   6.890   5.019  14.268  2.6756  0.1721 -1.2427
  183DOPC  H18Z22554   6.936   5.014  14.438 -0.4281 -1.4268 -0.0052
  184DOPC     N22555   5.114   1.019  12.033  0.2991  0.2285  0.0571
  184DOPC   C1222556   5.030   0.983  12.145  0.0402  0.0009  0.2738
  184DOPC  H12A22557   4.938   0.944  12.105  1.0602 -0.1326 -2.1024
  184DOPC  H12B22558   5.024   1.074  12.202  3.0333  0.8373 -0.5970
  184DOPC   C1322559   5.258   1.048  12.075  0.3344 -0.4949 -0.4552
  184DOPC  H13A22560   5.305   0.960  12.116 -1.1305 -1.3521 -0.5466
  184DOPC  H13B22561   5.323   1.086  11.997  0.4554 -0.3682 -0.2959
  184DOPC  H13C22562   5.256   1.126  12.150  1.5571 -2.3026  1.5848
  184DOPC   C1422563   5.059   1.150  11.974  0.1756  0.3692  0.1255
  184DOPC  H14A22564   4.957   1.136  11.941 -0.8380  3.0264  1.7540
  184DOPC  H14B22565   5.061   1.234  12.042 -0.1695 -2.1326  3.4282
  184DOPC  H14C22566   5.105   1.178  11.880 -2.1826  0.6002 -1.0464
  184DOPC   C1522567   5.116   0.913  11.929 -0.4478 -0.4119  0.3191
  184DOPC  H15A22568   5.168   0.825  11.964 -0.2511  0.3801  2.1074
  184DOPC  H15B22569   5.168   0.945  11.839 -0.1265  0.5498  0.8304
  184DOPC  H15C22570   5.015   0.892  11.896  0.1424 -0.8735 -1.3205
  184DOPC   C1122571   5.078   0.877  12.245  0.2034  0.3812 -0.0643
  184DOPC  H11A22572   5.181   0.901  12.279  0.6416 -1.5428  0.0573
  184DOPC  H11B22573   5.008   0.868  12.331 -0.8170 -2.2350 -1.0695
  184DOPC     P22574   4.978   0.649  12.171 -0.1931  0.1754  0.3148
  184DOPC   O1322575   5.017   0.539  12.072 -0.2846  0.5471  0.0757
  184DOPC   O1422576   4.849   0.715  12.152 -0.1565 -0.7322  0.3542
  184DOPC   O1222577   5.091   0.758  12.172  0.2615  0.7594  0.0396
  184DOPC   O1122578   4.987   0.586  12.317  0.0066  0.2983  0.6094
  184DOPC    C122579   4.873   0.595  12.410 -0.0970  0.5772 -0.7793
  184DOPC    HA22580   4.783   0.544  12.367 -0.1754 -0.9177  1.0300
  184DOPC    HB22581   4.839   0.698  12.430 -1.4270  0.5575 -2.6554
  184DOPC    C222582   4.929   0.544  12.555  0.1423 -0.2357  0.1281
  184DOPC    HS22583   4.851   0.579  12.626 -1.7249 -2.7634 -0.5470
  184DOPC   O2122584   5.064   0.586  12.582 -0.3146 -0.0458 -0.5190
  184DOPC   C2122585   5.063   0.708  12.632  0.3662 -0.6446  0.0803
  184DOPC   O2222586   4.966   0.781  12.635  0.1420 -0.1816 -0.2141
  184DOPC   C2222587   5.199   0.729  12.708 -0.1580 -0.0829  0.5837
  184DOPC   H2R22588   5.200   0.828  12.760 -1.7737  1.1169 -1.5275
  184DOPC   H2S22589   5.281   0.721  12.634 -1.4097 -1.9979 -0.6656
  184DOPC    C322590   4.922   0.386  12.562  0.0648  0.4659  0.1954
  184DOPC    HX22591   5.020   0.360  12.517  0.6119  1.6997  0.6371
  184DOPC    HY22592   4.833   0.358  12.502 -0.7593  0.7520  1.2437
  184DOPC   O3122593   4.898   0.341  12.693  0.4637 -0.7540 -0.4214
  184DOPC   C3122594   4.999   0.312  12.772 -0.4361 -0.2174  0.6557
  184DOPC   O3222595   5.120   0.324  12.737 -0.1403  0.1225  0.2954
  184DOPC   C3222596   4.936   0.265  12.905  0.2090 -0.1281  0.4408
  184DOPC   H2X22597   4.831   0.303  12.909  0.1215 -0.2419 -0.5141
  184DOPC   H2Y22598   4.924   0.155  12.906  0.1214 -0.1408 -0.7914
  184DOPC   C2322599   5.208   0.623  12.822 -0.5902 -0.2996 -0.3721
  184DOPC   H3R22600   5.244   0.528  12.777 -1.8164 -0.0814 -1.8957
  184DOPC   H3S22601   5.105   0.603  12.860  0.6365 -2.1515  2.3763
  184DOPC   C2422602   5.299   0.663  12.943 -0.6263  0.2030  0.3190
  184DOPC   H4R22603   5.265   0.763  12.979 -1.3725  0.2816 -0.5538
  184DOPC   H4S22604   5.403   0.682  12.909 -0.5805  1.2740  1.0013
  184DOPC   C2522605   5.320   0.557  13.051  0.0493 -0.0862  0.7055
  184DOPC   H5R22606   5.348   0.461  13.004 -1.4996  0.2649 -1.0366
  184DOPC   H5S22607   5.223   0.544  13.104 -0.7118 -0.4467 -0.7213
  184DOPC   C2622608   5.438   0.603  13.139 -0.1710  0.4782 -0.0385
  184DOPC   H6R22609   5.410   0.708  13.164 -0.1699  0.6648 -0.7828
  184DOPC   H6S22610   5.534   0.623  13.088 -0.3695  0.7059 -0.3314
  184DOPC   C2722611   5.455   0.514  13.262 -0.0596 -0.1382  0.2795
  184DOPC   H7R22612   5.472   0.412  13.222  3.5798  0.6458 -0.4870
  184DOPC   H7S22613   5.365   0.526  13.327  0.3742  2.2788  0.5217
  184DOPC   C2822614   5.576   0.556  13.350 -0.5489 -0.4956 -0.6620
  184DOPC   H8R22615   5.559   0.664  13.369  0.8745 -0.5355  1.1063
  184DOPC   H8S22616   5.674   0.556  13.296  0.8450  0.9958  1.6869
  184DOPC   C2922617   5.594   0.473  13.478  0.6137 -0.4567 -0.1316
  184DOPC   H9R22618   5.641   0.374  13.467 -2.0597 -1.8787  0.4584
  184DOPC  C21022619   5.555   0.504  13.601  0.8340 -0.3384 -0.6496
  184DOPC  H10R22620   5.573   0.432  13.682 -0.5271 -0.6035 -0.5531
  184DOPC  C21122621   5.473   0.619  13.654 -0.5260  0.0774  0.3561
  184DOPC  H11R22622   5.378   0.568  13.678 -0.8916  0.6821  0.2204
  184DOPC  H11S22623   5.439   0.690  13.576  0.6546 -0.6882 -0.9061
  184DOPC  C21222624   5.517   0.700  13.775 -0.1845  0.0182 -0.2071
  184DOPC  H12R22625   5.442   0.780  13.790 -2.0339 -1.4451 -1.2589
  184DOPC  H12S22626   5.615   0.750  13.756 -1.7048  3.0975 -0.5709
  184DOPC  C21322627   5.530   0.609  13.892 -0.6802 -0.1575  0.6546
  184DOPC  H13R22628   5.620   0.546  13.879 -0.2644  0.2578  1.4387
  184DOPC  H13S22629   5.438   0.547  13.894 -0.5902 -0.4026 -1.3520
  184DOPC  C21422630   5.558   0.686  14.029  0.0787  0.1685  0.1526
  184DOPC  H14R22631   5.469   0.752  14.037 -0.3482 -0.5983  2.4882
  184DOPC  H14S22632   5.646   0.751  14.008  0.2208 -0.7132 -2.3062
  184DOPC  C21522633   5.570   0.580  14.134 -0.3397  0.0502  0.1419
  184DOPC  H15R22634   5.657   0.515  14.111  1.6171  2.5544  0.0759
  184DOPC  H15S22635   5.481   0.514  14.141 -0.8631  0.6661 -0.5050
  184DOPC  C21622636   5.597   0.638  14.278 -0.1921  0.3584  0.1369
  184DOPC  H16R22637   5.575   0.562  14.356 -1.2606 -0.7813 -1.2265
  184DOPC  H16S22638   5.532   0.726  14.296  0.6285  1.0677 -0.2748
  184DOPC  C21722639   5.739   0.694  14.293 -0.0792 -0.0682  0.5053
  184DOPC  H17R22640   5.764   0.732  14.192 -1.0800  2.9504  1.3042
  184DOPC  H17S22641   5.812   0.611  14.309 -0.3152 -0.4107 -0.1540
  184DOPC  C21822642   5.757   0.807  14.395  0.3142 -0.4303  0.6464
  184DOPC  H18R22643   5.662   0.863  14.405  0.9653  0.7342  0.5160
  184DOPC  H18S22644   5.831   0.886  14.370 -1.8950  0.9214 -2.0250
  184DOPC  H18T22645   5.775   0.761  14.495 -1.5854 -1.1355  0.7080
  184DOPC   C3322646   5.029   0.314  13.018 -0.6224 -0.2507  0.2611
  184DOPC   H3X22647   5.026   0.425  13.018 -0.0599 -0.2304 -0.1577
  184DOPC   H3Y22648   5.130   0.289  12.978 -0.7252 -0.5141  0.1614
  184DOPC   C3422649   5.015   0.257  13.156 -0.3754  0.6779  0.6207
  184DOPC   H4X22650   5.032   0.148  13.155 -2.4888  0.3015 -1.0356
  184DOPC   H4Y22651   4.908   0.277  13.178 -0.6510  0.4373 -0.4219
  184DOPC   C3522652   5.094   0.330  13.270 -0.4195  0.8744 -0.1266
  184DOPC   H5X22653   5.044   0.429  13.278 -0.7270  0.9642 -2.5869
  184DOPC   H5Y22654   5.196   0.345  13.228  0.5067 -2.0602  0.8023
  184DOPC   C3622655   5.100   0.251  13.400  0.5316  0.5522  0.4268
  184DOPC   H6X22656   4.994   0.231  13.426  0.7394 -1.4549 -0.0761
  184DOPC   H6Y22657   5.147   0.151  13.387 -0.2753  0.4418 -2.2856
  184DOPC   C3722658   5.176   0.326  13.507 -0.1281  0.2372 -0.2972
  184DOPC   H7X22659   5.286   0.323  13.492  0.0268  1.3038  0.5320
  184DOPC   H7Y22660   5.139   0.429  13.493 -0.3567  0.1488 -0.3478
  184DOPC   C3822661   5.143   0.270  13.652  0.0288  0.4020 -0.4354
  184DOPC   H8X22662   5.227   0.310  13.712 -0.1739 -1.2843  1.0234
  184DOPC   H8Y22663   5.142   0.159  13.641 -0.4586  0.2860  0.6904
  184DOPC   C3922664   5.002   0.300  13.704  0.1945 -0.0453 -0.3265
  184DOPC   H9X22665   4.921   0.233  13.674  0.2557 -0.6583  0.8260
  184DOPC  C31022666   4.963   0.401  13.785 -0.4851  0.0057  0.7378
  184DOPC  H10X22667   4.857   0.413  13.811 -0.5452  1.1154  0.0251
  184DOPC  C31122668   5.061   0.498  13.846 -0.3618  0.2111  0.5797
  184DOPC  H11X22669   5.164   0.461  13.829 -1.6300 -2.4911 -2.3041
  184DOPC  H11Y22670   5.050   0.505  13.957  0.6097  0.3807  0.6714
  184DOPC  C31222671   5.035   0.643  13.804  0.4425 -0.3096  0.7924
  184DOPC  H12X22672   4.962   0.643  13.720  1.3869  1.3236 -0.0505
  184DOPC  H12Y22673   5.129   0.684  13.762 -0.6428  0.8090 -0.6254
  184DOPC  C31322674   4.996   0.737  13.914 -0.5432 -0.4499 -0.6282
  184DOPC  H13X22675   4.885   0.734  13.922 -0.7372  2.7808 -0.8399
  184DOPC  H13Y22676   5.041   0.707  14.010 -0.1799 -0.4400 -0.7931
  184DOPC  C31422677   5.025   0.885  13.880  0.6233 -0.2472 -0.1304
  184DOPC  H14X22678   5.028   0.912  13.772 -0.1326  0.7284  0.0830
  184DOPC  H14Y22679   4.950   0.953  13.926  1.9053  0.9806  0.2237
  184DOPC  C31522680   5.161   0.944  13.929  0.3086 -0.4121  0.3516
  184DOPC  H15X22681   5.246   0.906  13.868  0.9983  2.2277 -0.4231
  184DOPC  H15Y22682   5.181   0.917  14.036  0.3903 -0.3697  0.3476
  184DOPC  C31622683   5.162   1.099  13.914  0.0946  0.8787  0.7777
  184DOPC  H16X22684   5.109   1.123  13.819  0.1267 -0.7390  0.3089
  184DOPC  H16Y22685   5.107   1.151  13.995  1.9572  0.9843  2.0431
  184DOPC  C31722686   5.302   1.154  13.905 -0.3589 -0.2668 -0.1356
  184DOPC  H17X22687   5.364   1.101  13.830  1.3262 -0.3495  1.2555
  184DOPC  H17Y22688   5.291   1.260  13.875 -2.5297 -0.1871  0.7314
  184DOPC  C31822689   5.382   1.158  14.042  0.1986 -0.2273 -0.2036
  184DOPC  H18X22690   5.407   1.059  14.086  0.1338 -1.0703 -1.9940
  184DOPC  H18Y22691   5.474   1.214  14.016  0.7331 -0.0823  1.8246
  184DOPC  H18Z22692   5.326   1.221  14.116 -1.0046  0.2388 -1.4642
  185DOPC     N22693   6.440   6.229  12.343 -0.0321 -0.2934 -0.1139
  185DOPC   C1222694   6.441   6.328  12.452  0.9073 -0.5320  0.0612
  185DOPC  H12A22695   6.338   6.354  12.470  0.7622  0.7880 -2.2874
  185DOPC  H12B22696   6.480   6.421  12.412 -0.9788  0.9100  1.4235
  185DOPC   C1322697   6.418   6.090  12.395 -0.0857  0.2094 -0.2572
  185DOPC  H13A22698   6.450   6.026  12.314  0.2916 -1.6008  1.2624
  185DOPC  H13B22699   6.479   6.057  12.478  1.0954 -0.3843 -1.3008
  185DOPC  H13C22700   6.316   6.066  12.418 -0.5012 -0.0295 -2.1730
  185DOPC   C1422701   6.575   6.232  12.281 -0.6015  1.2246  0.2914
  185DOPC  H14A22702   6.613   6.327  12.248  1.8779  0.2605  0.1998
  185DOPC  H14B22703   6.645   6.215  12.361 -0.8214 -1.3790  0.0140
  185DOPC  H14C22704   6.587   6.169  12.194 -1.0175  0.3758  0.8281
  185DOPC   C1522705   6.339   6.261  12.235  0.4010  0.4455 -0.2530
  185DOPC  H15A22706   6.327   6.189  12.155  1.4983  0.5597 -0.5385
  185DOPC  H15B22707   6.380   6.347  12.185  1.5114  0.6722  0.9797
  185DOPC  H15C22708   6.245   6.294  12.277  0.3979 -0.2185  0.2717
  185DOPC   C1122709   6.512   6.306  12.582  1.5074 -0.0502  0.1594
  185DOPC  H11A22710   6.452   6.373  12.647 -0.5259 -1.2157 -0.4526
  185DOPC  H11B22711   6.500   6.200  12.613 -1.5374  0.3985  0.7592
  185DOPC     P22712   6.761   6.256  12.642 -0.2486  0.1279  0.3984
  185DOPC   O1322713   6.891   6.317  12.613 -0.1073  0.4761 -0.2239
  185DOPC   O1422714   6.741   6.121  12.585  0.1878 -0.1525  0.1951
  185DOPC   O1222715   6.651   6.348  12.583  0.5085  0.2207  0.3124
  185DOPC   O1122716   6.742   6.252  12.801  0.1804 -0.1472  0.2123
  185DOPC    C122717   6.678   6.373  12.854 -0.0839 -0.1914  0.0900
  185DOPC    HA22718   6.572   6.382  12.823 -0.2097  0.8606  0.7758
  185DOPC    HB22719   6.732   6.461  12.813 -1.8267  1.3739  1.0406
  185DOPC    C222720   6.680   6.384  13.010 -0.0250  0.7218 -0.1708
  185DOPC    HS22721   6.772   6.444  13.030 -0.3336  1.2884 -0.4354
  185DOPC   O2122722   6.687   6.246  13.073  0.2552 -0.5760 -0.4351
  185DOPC   C2122723   6.809   6.200  13.104 -1.0420 -0.5452  0.4668
  185DOPC   O2222724   6.911   6.267  13.090 -0.6303  0.0386  0.2186
  185DOPC   C2222725   6.801   6.054  13.143  0.0438  0.7091  0.3347
  185DOPC   H2R22726   6.823   5.989  13.056 -1.5453  0.8608 -0.2208
  185DOPC   H2S22727   6.701   6.025  13.181 -0.1807  0.7314 -0.2331
  185DOPC    C322728   6.560   6.457  13.071  0.1803 -0.4432  0.3394
  185DOPC    HX22729   6.470   6.392  13.062 -0.0616 -0.0328 -0.3190
  185DOPC    HY22730   6.535   6.549  13.014 -1.7677 -1.1795 -0.0806
  185DOPC   O3122731   6.583   6.498  13.205 -0.3722 -0.1825 -0.1278
  185DOPC   C3122732   6.626   6.619  13.227 -0.0789 -0.2010 -0.6043
  185DOPC   O3222733   6.642   6.704  13.143  0.8662  0.5252  0.0439
  185DOPC   C3222734   6.667   6.630  13.375  0.2917  0.0239 -0.2201
  185DOPC   H2X22735   6.579   6.665  13.433  1.1276  1.8280  0.0388
  185DOPC   H2Y22736   6.710   6.538  13.420  0.7654  0.0397 -0.6259
  185DOPC   C2322737   6.906   6.030  13.253  0.5183 -0.8116  0.1496
  185DOPC   H3R22738   6.997   6.084  13.220  0.6665 -0.1268  1.6122
  185DOPC   H3S22739   6.921   5.920  13.254 -0.7608 -1.0026  1.3027
  185DOPC   C2422740   6.865   6.073  13.404  0.1031  0.4489  0.2217
  185DOPC   H4R22741   6.761   6.038  13.425 -0.2391  0.4951 -1.2363
  185DOPC   H4S22742   6.874   6.183  13.404  1.4613  0.3598 -0.0925
  185DOPC   C2522743   6.949   6.018  13.521  0.1831 -0.3029  0.0974
  185DOPC   H5R22744   7.042   6.076  13.543 -0.7092  0.5909  1.6892
  185DOPC   H5S22745   6.984   5.914  13.503  1.9615  0.1225  0.8604
  185DOPC   C2622746   6.869   6.019  13.658 -0.1262 -0.4194  0.1645
  185DOPC   H6R22747   6.782   5.950  13.663  0.5001 -1.1644  1.3885
  185DOPC   H6S22748   6.825   6.120  13.670 -0.7776 -0.5562 -0.9757
  185DOPC   C2722749   6.961   6.000  13.782  0.3982  0.6556 -0.1711
  185DOPC   H7R22750   7.035   6.083  13.784  2.2615 -0.9080 -0.4099
  185DOPC   H7S22751   7.024   5.908  13.777  1.3232  1.1155  1.8969
  185DOPC   C2822752   6.883   5.975  13.914  0.0193 -0.6123  0.1468
  185DOPC   H8R22753   6.951   5.933  13.991  0.1102 -0.9811 -0.1279
  185DOPC   H8S22754   6.805   5.895  13.908 -0.5334 -0.1016  0.3977
  185DOPC   C2922755   6.831   6.097  13.976  0.4676 -0.3855 -0.1896
  185DOPC   H9R22756   6.887   6.187  13.947  0.0127 -0.6371 -1.9602
  185DOPC  C21022757   6.719   6.096  14.053  0.3681 -0.4463  0.5272
  185DOPC  H10R22758   6.687   6.194  14.092 -0.4914 -0.0896 -1.0149
  185DOPC  C21122759   6.637   5.984  14.101 -0.0654 -0.9202  0.2968
  185DOPC  H11R22760   6.611   5.914  14.019 -0.9367 -2.6489  1.9569
  185DOPC  H11S22761   6.544   6.026  14.144 -0.7750 -0.8556 -1.2562
  185DOPC  C21222762   6.711   5.899  14.213  0.6169  0.2507  0.5295
  185DOPC  H12R22763   6.722   5.962  14.304  1.2752 -0.4054  0.9129
  185DOPC  H12S22764   6.805   5.863  14.167 -0.6390 -0.6249 -1.5223
  185DOPC  C21322765   6.630   5.774  14.252  0.5407  0.1392 -0.6416
  185DOPC  H13R22766   6.628   5.690  14.180 -0.9043 -1.7497  1.4467
  185DOPC  H13S22767   6.524   5.801  14.272  0.8876  0.4567  0.9298
  185DOPC  C21422768   6.678   5.694  14.378 -0.3433  0.4140  0.3117
  185DOPC  H14R22769   6.696   5.775  14.452 -1.1829  0.8572  0.0440
  185DOPC  H14S22770   6.769   5.636  14.355 -2.4370 -2.5030 -1.2557
  185DOPC  C21522771   6.602   5.565  14.420  0.2488 -0.5016  0.9837
  185DOPC  H15R22772   6.605   5.485  14.343  1.1690 -1.6329  2.1382
  185DOPC  H15S22773   6.496   5.588  14.444  0.3400 -0.1278  1.0339
  185DOPC  C21622774   6.647   5.492  14.550  0.2278  0.2042  0.2713
  185DOPC  H16R22775   6.554   5.455  14.597  0.2062  0.9575  0.8383
  185DOPC  H16S22776   6.684   5.565  14.625 -2.2748 -0.6056  2.4277
  185DOPC  C21722777   6.748   5.380  14.532  0.0054 -0.7623  0.4365
  185DOPC  H17R22778   6.843   5.412  14.483  0.9621 -0.3933  2.4590
  185DOPC  H17S22779   6.698   5.300  14.473 -0.9518  0.8010 -0.9541
  185DOPC  C21822780   6.787   5.326  14.676 -0.4110  0.2933  0.1164
  185DOPC  H18R22781   6.704   5.264  14.717 -0.5940  0.5475  0.1327
  185DOPC  H18S22782   6.804   5.415  14.741  0.7269 -0.6602  1.1890
  185DOPC  H18T22783   6.877   5.263  14.668  0.3228  1.3671 -0.2788
  185DOPC   C3322784   6.782   6.734  13.387 -0.2732  0.0413 -0.0315
  185DOPC   H3X22785   6.803   6.739  13.496  2.6552  0.8880 -0.5468
  185DOPC   H3Y22786   6.750   6.835  13.355 -0.8959 -0.5485 -1.3448
  185DOPC   C3422787   6.901   6.685  13.309 -0.6045  0.8095 -0.4926
  185DOPC   H4X22788   6.981   6.761  13.323 -0.6038  0.4296  1.8712
  185DOPC   H4Y22789   6.887   6.667  13.200  0.3775  2.3583 -0.9144
  185DOPC   C3522790   6.950   6.543  13.355 -0.2700 -0.3141 -0.1559
  185DOPC   H5X22791   6.874   6.468  13.323 -1.7085  0.0820  2.0983
  185DOPC   H5Y22792   6.959   6.548  13.465 -0.6937  3.3453 -0.1664
  185DOPC   C3622793   7.090   6.512  13.300 -0.2134 -0.3874 -0.2093
  185DOPC   H6X22794   7.087   6.499  13.190 -1.6470 -3.2957  0.0624
  185DOPC   H6Y22795   7.160   6.595  13.324 -1.4325  0.7580 -0.5406
  185DOPC   C3722796   7.144   6.370  13.337  0.1687 -0.6198 -0.0326
  185DOPC   H7X22797   7.062   6.301  13.307  0.7868 -1.0744 -0.7034
  185DOPC   H7Y22798   7.224   6.344  13.265 -0.7129  1.5983 -1.9150
  185DOPC   C3822799   7.189   6.358  13.484 -0.3574  1.1674 -0.1169
  185DOPC   H8X22800   7.219   6.255  13.510  2.1032  2.0730  0.9180
  185DOPC   H8Y22801   7.098   6.382  13.544 -0.5660  1.1105 -0.4105
  185DOPC   C3922802   7.309   6.439  13.525 -0.5494 -0.1569  0.6723
  185DOPC   H9X22803   7.333   6.508  13.443 -1.5080 -0.2023  0.3401
  185DOPC  C31022804   7.370   6.434  13.647 -0.2048  0.5388  0.1999
  185DOPC  H10X22805   7.448   6.509  13.665  0.0605  0.2812  0.1195
  185DOPC  C31122806   7.310   6.353  13.764  0.4388  0.0599  0.5029
  185DOPC  H11X22807   7.403   6.317  13.814  0.5310  0.8756  0.9404
  185DOPC  H11Y22808   7.242   6.269  13.738 -1.0050  0.2567  3.2896
  185DOPC  C31222809   7.245   6.445  13.865 -0.1281 -0.9508  0.3759
  185DOPC  H12X22810   7.209   6.380  13.949 -0.5123 -1.4563 -0.1726
  185DOPC  H12Y22811   7.165   6.500  13.812  1.3035  0.4377 -0.4245
  185DOPC  C31322812   7.344   6.554  13.906 -0.0645  0.2343 -0.3794
  185DOPC  H13X22813   7.442   6.512  13.936 -0.8807 -0.3313  1.6474
  185DOPC  H13Y22814   7.353   6.625  13.821 -1.3376  0.0867 -0.6508
  185DOPC  C31422815   7.292   6.631  14.032 -0.6627 -0.1057 -0.8104
  185DOPC  H14X22816   7.189   6.669  14.013 -0.7901  0.0349  0.1334
  185DOPC  H14Y22817   7.286   6.557  14.115 -0.0737  2.9775  2.1968
  185DOPC  C31522818   7.383   6.741  14.068 -0.2251 -0.2334  0.1752
  185DOPC  H15X22819   7.366   6.809  13.982 -1.8286 -0.4443  0.2931
  185DOPC  H15Y22820   7.482   6.692  14.062 -0.5605 -0.7578 -1.2607
  185DOPC  C31622821   7.349   6.818  14.200  0.1223 -0.7991  0.4944
  185DOPC  H16X22822   7.244   6.854  14.190 -0.7651 -3.6099 -1.4325
  185DOPC  H16Y22823   7.351   6.745  14.284  1.6238  0.8388  1.9807
  185DOPC  C31722824   7.460   6.921  14.225  0.0326 -0.2723  1.1509
  185DOPC  H17X22825   7.554   6.864  14.247 -1.1258 -2.4851  0.6933
  185DOPC  H17Y22826   7.480   6.987  14.139  1.4544 -0.2514  1.4602
  185DOPC  C31822827   7.450   7.010  14.349  0.3989  0.0624 -0.2569
  185DOPC  H18X22828   7.435   6.948  14.440  0.0631 -2.2668 -1.7949
  185DOPC  H18Y22829   7.544   7.069  14.357 -0.5876  1.6195  0.1818
  185DOPC  H18Z22830   7.370   7.084  14.328  0.5840  0.1827 -0.5508
  186DOPC     N22831   7.176   2.403  12.165 -1.0528  0.0095 -0.2004
  186DOPC   C1222832   7.204   2.557  12.172 -0.0583  0.1482 -0.5880
  186DOPC  H12A22833   7.290   2.569  12.236  1.4319  3.1644 -2.9249
  186DOPC  H12B22834   7.124   2.601  12.231  1.0097 -1.4609  2.2676
  186DOPC   C1322835   7.279   2.344  12.074  0.1154  0.1489 -0.3325
  186DOPC  H13A22836   7.274   2.374  11.970  0.3113  0.1215 -0.3518
  186DOPC  H13B22837   7.375   2.374  12.113  0.4893 -0.7818 -0.5164
  186DOPC  H13C22838   7.277   2.236  12.072 -0.2845  0.1564 -2.3882
  186DOPC   C1422839   7.041   2.372  12.123  0.4453  0.2762 -0.9186
  186DOPC  H14A22840   7.022   2.399  12.020 -0.4473  1.3018 -0.5080
  186DOPC  H14B22841   7.026   2.265  12.122 -1.2322  0.2677  3.1514
  186DOPC  H14C22842   6.964   2.410  12.189 -0.7869 -2.2684 -0.7441
  186DOPC   C1522843   7.208   2.349  12.298 -0.2428  0.8048  0.1321
  186DOPC  H15A22844   7.139   2.386  12.373 -0.0399 -1.5363  1.5809
  186DOPC  H15B22845   7.309   2.360  12.334  0.4068 -0.2446 -1.2866
  186DOPC  H15C22846   7.202   2.241  12.299 -1.7972  0.8652 -0.1253
  186DOPC   C1122847   7.240   2.629  12.048 -0.6592  0.3078 -0.5667
  186DOPC  H11A22848   7.345   2.618  12.012 -0.3630  0.3978  0.2589
  186DOPC  H11B22849   7.170   2.609  11.964  1.3422 -0.5434 -2.1138
  186DOPC     P22850   7.328   2.857  12.157  0.0113 -0.3880 -0.3777
  186DOPC   O1322851   7.274   2.996  12.164 -0.3987  0.0916  0.0012
  186DOPC   O1422852   7.458   2.834  12.086 -0.1813 -0.3839 -0.6998
  186DOPC   O1222853   7.219   2.767  12.082 -0.0411  0.1093 -0.2971
  186DOPC   O1122854   7.341   2.799  12.305  0.8413 -0.3511  0.1744
  186DOPC    C122855   7.220   2.790  12.383 -0.5789 -0.2404 -0.3394
  186DOPC    HA22856   7.212   2.699  12.446 -0.9861  0.0181 -0.0130
  186DOPC    HB22857   7.126   2.793  12.324 -0.1678  0.3805 -0.9865
  186DOPC    C222858   7.203   2.892  12.491 -0.3776 -0.0585  0.4519
  186DOPC    HS22859   7.123   2.853  12.556 -0.7251 -2.5673 -1.3603
  186DOPC   O2122860   7.165   3.018  12.433  0.2696 -0.4092 -0.2101
  186DOPC   C2122861   7.036   3.048  12.432  0.2892  0.5757  0.6278
  186DOPC   O2222862   6.941   2.975  12.452 -0.2396  0.8483  0.0878
  186DOPC   C2222863   7.018   3.195  12.398 -0.0991 -0.3605 -0.0615
  186DOPC   H2R22864   6.911   3.222  12.387  0.0004 -0.5060 -1.7090
  186DOPC   H2S22865   7.074   3.218  12.305  0.9902  0.0277  0.6719
  186DOPC    C322866   7.323   2.920  12.583 -0.0196 -0.1166  0.1404
  186DOPC    HX22867   7.280   2.993  12.655  1.4116 -1.1793  2.2009
  186DOPC    HY22868   7.404   2.970  12.526 -1.3824  1.1131 -0.7904
  186DOPC   O3122869   7.376   2.794  12.641 -0.0541 -0.3981 -0.5087
  186DOPC   C3122870   7.407   2.804  12.770 -0.6669 -0.1800  0.5006
  186DOPC   O3222871   7.369   2.893  12.844 -0.1575 -0.0814 -0.5023
  186DOPC   C3222872   7.517   2.706  12.794  0.0516  0.2991 -0.4607
  186DOPC   H2X22873   7.466   2.614  12.830 -1.7415  1.4517  0.0875
  186DOPC   H2Y22874   7.582   2.690  12.705 -1.5840  0.3952 -1.7023
  186DOPC   C2322875   7.091   3.302  12.495  0.0816  0.2248 -0.5945
  186DOPC   H3R22876   7.082   3.400  12.443 -0.7432 -0.1974 -1.2756
  186DOPC   H3S22877   7.199   3.282  12.510  0.3373  2.4243  0.8351
  186DOPC   C2422878   7.030   3.312  12.635  0.0187  0.5659 -0.1374
  186DOPC   H4R22879   7.040   3.215  12.688 -1.0914 -0.3933 -1.6054
  186DOPC   H4S22880   6.922   3.338  12.625 -0.4199 -1.3434 -0.8833
  186DOPC   C2522881   7.098   3.429  12.712  0.5354  0.1588  0.0327
  186DOPC   H5R22882   7.041   3.524  12.704 -1.5508 -1.1664 -1.7399
  186DOPC   H5S22883   7.191   3.457  12.658  0.2162  3.3799  0.9257
  186DOPC   C2622884   7.130   3.388  12.857 -0.1305 -0.0649 -0.0066
  186DOPC   H6R22885   7.171   3.286  12.844 -0.6194 -0.2590 -0.0422
  186DOPC   H6S22886   7.030   3.373  12.902  0.0381 -1.0962  0.0309
  186DOPC   C2722887   7.218   3.492  12.942  0.3807  0.7093  1.0043
  186DOPC   H7R22888   7.185   3.598  12.939  0.6679  0.7944 -1.5858
  186DOPC   H7S22889   7.322   3.481  12.906  0.1244  2.0443 -0.2106
  186DOPC   C2822890   7.209   3.452  13.091 -0.5662 -0.1595 -0.5958
  186DOPC   H8R22891   7.261   3.354  13.094 -0.3959 -0.0578  1.2371
  186DOPC   H8S22892   7.105   3.458  13.131  0.2190  2.3805  1.3194
  186DOPC   C2922893   7.282   3.540  13.183  0.3853 -0.5497 -0.2913
  186DOPC   H9R22894   7.365   3.597  13.137 -0.1407  0.8703  0.4632
  186DOPC  C21022895   7.256   3.556  13.317  0.1401 -0.7629  0.4760
  186DOPC  H10R22896   7.329   3.623  13.366  0.0360  0.8811 -1.4707
  186DOPC  C21122897   7.149   3.498  13.399 -0.2230 -0.4205  0.3816
  186DOPC  H11R22898   7.196   3.490  13.499  0.5502 -0.6753  0.0056
  186DOPC  H11S22899   7.117   3.397  13.366 -0.3198 -0.0248 -0.7875
  186DOPC  C21222900   7.017   3.581  13.415 -0.2682  0.2468  0.3105
  186DOPC  H12R22901   6.946   3.524  13.479  1.4913 -0.5321  1.6444
  186DOPC  H12S22902   6.974   3.599  13.314 -2.3494 -2.1954  0.6429
  186DOPC  C21322903   7.032   3.717  13.488  0.1123  0.5546  0.1513
  186DOPC  H13R22904   7.070   3.790  13.414  0.8174  1.1288  1.0676
  186DOPC  H13S22905   7.112   3.706  13.564  0.2146 -2.0068 -0.2342
  186DOPC  C21422906   6.916   3.763  13.565 -0.4657  0.2547 -0.5746
  186DOPC  H14R22907   6.893   3.684  13.640 -0.3870  0.4917 -0.2965
  186DOPC  H14S22908   6.832   3.766  13.492  1.1459  0.9068 -2.4682
  186DOPC  C21522909   6.934   3.898  13.638  0.1908  0.3291 -0.0108
  186DOPC  H15R22910   6.983   3.977  13.578  1.7428  1.3497  2.4358
  186DOPC  H15S22911   7.005   3.887  13.723 -0.2177 -3.2375  0.0396
  186DOPC  C21622912   6.799   3.970  13.670 -0.4597  0.3938  1.0036
  186DOPC  H16R22913   6.725   3.984  13.589 -1.0658  0.1374  1.5103
  186DOPC  H16S22914   6.819   4.076  13.699 -1.5105  0.6666  0.7780
  186DOPC  C21722915   6.721   3.907  13.782 -0.4198  0.4224  0.2022
  186DOPC  H17R22916   6.725   3.796  13.771  0.3618 -0.0272  3.8936
  186DOPC  H17S22917   6.619   3.948  13.768  0.2813  2.3920  0.5263
  186DOPC  C21822918   6.776   3.941  13.924 -0.3545  0.1967 -0.1004
  186DOPC  H18R22919   6.786   4.050  13.940  1.7378  0.1395 -0.7580
  186DOPC  H18S22920   6.864   3.885  13.961 -0.4336 -0.7079 -1.2191
  186DOPC  H18T22921   6.689   3.906  13.983 -0.2087  1.7660  1.0975
  186DOPC   C3322922   7.613   2.737  12.915  0.7156 -0.1801 -0.3937
  186DOPC   H3X22923   7.646   2.843  12.908 -1.0859  0.3719 -1.3838
  186DOPC   H3Y22924   7.702   2.672  12.905  0.8431 -0.0744  0.0725
  186DOPC   C3422925   7.534   2.717  13.045  0.3067 -0.0337  0.6908
  186DOPC   H4X22926   7.497   2.613  13.055 -1.9334  0.6928  0.5347
  186DOPC   H4Y22927   7.444   2.781  13.059  0.2483  0.0215  0.0980
  186DOPC   C3522928   7.619   2.757  13.171 -0.7708  0.6399  0.4185
  186DOPC   H5X22929   7.621   2.868  13.177 -2.3394  0.7815 -1.0267
  186DOPC   H5Y22930   7.724   2.722  13.172 -0.7878  0.5287 -0.8474
  186DOPC   C3622931   7.549   2.718  13.303 -0.2359  0.6076 -0.5047
  186DOPC   H6X22932   7.454   2.775  13.306 -0.3992  0.3134 -0.0878
  186DOPC   H6Y22933   7.528   2.609  13.300 -0.9746  0.6633  1.5596
  186DOPC   C3722934   7.648   2.746  13.424 -0.1194  0.2478 -0.2482
  186DOPC   H7X22935   7.733   2.679  13.402 -1.9286 -1.9636 -0.8421
  186DOPC   H7Y22936   7.692   2.848  13.415  1.0205  0.0307  2.0784
  186DOPC   C3822937   7.596   2.720  13.560  0.5431  0.1533  0.5152
  186DOPC   H8X22938   7.673   2.750  13.634  0.8974  4.0373 -1.1501
  186DOPC   H8Y22939   7.574   2.612  13.571 -2.5276  0.6191  0.1213
  186DOPC   C3922940   7.472   2.798  13.592 -0.4353 -0.2999 -0.1313
  186DOPC   H9X22941   7.441   2.854  13.503  1.1871 -0.4783 -0.8520
  186DOPC  C31022942   7.409   2.800  13.709  0.3163  0.2507 -0.3175
  186DOPC  H10X22943   7.319   2.860  13.725 -0.1810 -0.2327 -1.2675
  186DOPC  C31122944   7.452   2.717  13.834 -0.7626  0.2956 -0.2086
  186DOPC  H11X22945   7.528   2.636  13.820 -0.7842 -0.0692  1.5214
  186DOPC  H11Y22946   7.364   2.657  13.865  0.4239 -1.8619 -0.7720
  186DOPC  C31222947   7.482   2.807  13.947 -0.2123 -0.4800 -0.3707
  186DOPC  H12X22948   7.490   2.741  14.036  0.8492 -0.0281 -0.1262
  186DOPC  H12Y22949   7.404   2.883  13.971  1.6740  1.4635 -0.1262
  186DOPC  C31322950   7.615   2.890  13.925  0.2153 -0.4664 -0.1517
  186DOPC  H13X22951   7.709   2.844  13.888  1.6389  1.5555  0.7801
  186DOPC  H13Y22952   7.583   2.965  13.850  0.8106  1.5576  1.5349
  186DOPC  C31422953   7.660   2.960  14.058 -0.2612 -0.1489  0.8191
  186DOPC  H14X22954   7.696   2.881  14.128  0.5811  0.2604  0.8636
  186DOPC  H14Y22955   7.748   3.019  14.025 -0.4220 -0.2035  0.2829
  186DOPC  C31522956   7.568   3.064  14.117  0.2223  0.1704 -0.3151
  186DOPC  H15X22957   7.592   3.074  14.225 -0.4659 -1.4482  0.0179
  186DOPC  H15Y22958   7.466   3.021  14.108  0.0319  0.6824 -0.6658
  186DOPC  C31622959   7.570   3.203  14.052  0.1554 -0.9129  0.3220
  186DOPC  H16X22960   7.676   3.236  14.050 -0.1640  0.1909 -1.5913
  186DOPC  H16Y22961   7.532   3.190  13.948  0.1197  0.9517  0.0634
  186DOPC  C31722962   7.473   3.294  14.128 -0.3135 -0.2510 -0.8899
  186DOPC  H17X22963   7.516   3.304  14.230  0.5277 -0.2256 -1.2324
  186DOPC  H17Y22964   7.485   3.397  14.089  0.2223  0.5732  1.3183
  186DOPC  C31822965   7.322   3.251  14.147  0.5156  0.2348  0.2702
  186DOPC  H18X22966   7.300   3.196  14.053 -0.8611  0.0484  0.6744
  186DOPC  H18Y22967   7.322   3.188  14.238  1.3627 -1.0973 -0.6232
  186DOPC  H18Z22968   7.258   3.342  14.157  1.7260  1.0688  0.7899
  187DOPC     N22969   6.677   0.998  12.105 -0.6292 -0.6666  0.3478
  187DOPC   C1222970   6.737   1.052  12.232 -0.7053  0.6810 -0.0855
  187DOPC  H12A22971   6.675   1.129  12.275  0.0802  0.5326  1.3847
  187DOPC  H12B22972   6.833   1.097  12.214  0.7974 -1.9574  0.8224
  187DOPC   C1322973   6.771   0.895  12.043 -0.1353  0.1138 -0.5375
  187DOPC  H13A22974   6.872   0.926  12.025  1.5195 -3.5176  1.4557
  187DOPC  H13B22975   6.783   0.812  12.112  3.1464  0.2095 -0.8518
  187DOPC  H13C22976   6.735   0.858  11.948  3.0714  1.4363 -2.4248
  187DOPC   C1422977   6.669   1.114  12.005 -0.1281  0.2273  0.6813
  187DOPC  H14A22978   6.601   1.184  12.050 -0.7647  0.2943 -0.3382
  187DOPC  H14B22979   6.759   1.166  11.975 -0.8747  0.4494 -1.3417
  187DOPC  H14C22980   6.618   1.094  11.912  0.1322  1.5375  0.2358
  187DOPC   C1522981   6.536   0.945  12.116 -0.5148 -0.3087  0.2989
  187DOPC  H15A22982   6.530   0.883  12.203  2.0915 -1.8014 -0.4581
  187DOPC  H15B22983   6.512   0.881  12.032  1.3363  0.8680 -1.2411
  187DOPC  H15C22984   6.471   1.031  12.123  0.2494  0.3074  0.0683
  187DOPC   C1122985   6.751   0.937  12.338  0.0661 -0.1071 -0.5671
  187DOPC  H11A22986   6.798   0.844  12.299 -2.5451 -1.5688 -0.4443
  187DOPC  H11B22987   6.814   0.973  12.422 -1.1859 -0.5300  0.5819
  187DOPC     P22988   6.534   0.973  12.507 -0.3527 -0.2084  0.3641
  187DOPC   O1322989   6.421   0.888  12.546  0.4703  0.5019  0.0836
  187DOPC   O1422990   6.506   1.113  12.467  0.3782  0.7540 -0.2916
  187DOPC   O1222991   6.619   0.900  12.392  0.0135 -0.0555 -0.2968
  187DOPC   O1122992   6.645   0.966  12.616  0.5101 -0.4290  0.5102
  187DOPC    C122993   6.720   0.855  12.656  0.2002 -0.4643 -0.0030
  187DOPC    HA22994   6.789   0.830  12.572 -1.1057  0.8472 -1.5422
  187DOPC    HB22995   6.662   0.765  12.684  0.3334 -0.3063  0.7822
  187DOPC    C222996   6.805   0.896  12.771 -0.1516  0.7025  0.0822
  187DOPC    HS22997   6.869   0.809  12.798  0.5617  0.1661 -3.0106
  187DOPC   O2122998   6.722   0.932  12.888 -0.7390  0.7096  0.4940
  187DOPC   C2122999   6.638   0.844  12.934  0.6966  0.4848 -0.2566
  187DOPC   O2223000   6.641   0.728  12.905 -0.0143  0.0432  0.0455
  187DOPC   C2223001   6.546   0.912  13.030  0.1233 -0.0585  0.1469
  187DOPC   H2R23002   6.484   0.989  12.979 -0.2554  1.5535  2.8213
  187DOPC   H2S23003   6.614   0.968  13.098  0.6023  1.0576 -1.1928
  187DOPC    C323004   6.902   1.022  12.735  0.9970 -0.2352  0.5994
  187DOPC    HX23005   6.835   1.106  12.705  2.8520  1.7687  1.8543
  187DOPC    HY23006   6.973   0.987  12.657  2.3275  0.2485  1.5549
  187DOPC   O3123007   6.976   1.047  12.858 -0.0626 -0.2666  0.3205
  187DOPC   C3123008   7.065   1.150  12.839 -0.7488 -0.4012 -0.3989
  187DOPC   O3223009   7.075   1.221  12.742  0.1142 -0.1142 -0.2604
  187DOPC   C3223010   7.167   1.134  12.951 -0.1853 -0.4450 -0.2503
  187DOPC   H2X23011   7.192   1.029  12.978  3.1345  0.8912  2.7289
  187DOPC   H2Y23012   7.258   1.188  12.917  0.9438 -3.2527 -2.0636
  187DOPC   C2323013   6.457   0.811  13.109 -0.5170 -0.1283  0.3414
  187DOPC   H3R23014   6.509   0.713  13.119 -0.3850 -0.1586 -0.5774
  187DOPC   H3S23015   6.379   0.793  13.032  0.2829 -1.4364 -0.1985
  187DOPC   C2423016   6.420   0.858  13.245 -0.0546 -0.0540 -0.7580
  187DOPC   H4R23017   6.499   0.842  13.321 -0.8740 -0.1960  0.0888
  187DOPC   H4S23018   6.342   0.789  13.284  0.7510 -1.4320 -1.4967
  187DOPC   C2523019   6.381   1.010  13.253  0.0147 -0.1980  0.2588
  187DOPC   H5R23020   6.343   1.057  13.159  2.3766  0.3950 -0.4649
  187DOPC   H5S23021   6.481   1.057  13.263 -0.2903  0.2824  1.1980
  187DOPC   C2623022   6.300   1.040  13.378  0.7161  0.5590  0.3632
  187DOPC   H6R23023   6.323   0.969  13.461 -0.3025 -1.4090 -0.9713
  187DOPC   H6S23024   6.194   1.016  13.359  0.9094 -0.1306  0.1342
  187DOPC   C2723025   6.304   1.190  13.425  0.2171 -0.1593  0.4318
  187DOPC   H7R23026   6.211   1.215  13.481 -0.3531 -0.2634 -0.4425
  187DOPC   H7S23027   6.323   1.243  13.330  2.1519 -1.0056  0.2985
  187DOPC   C2823028   6.421   1.208  13.522 -0.0301 -0.3158  0.1603
  187DOPC   H8R23029   6.519   1.178  13.478  0.6922  0.2289  1.3285
  187DOPC   H8S23030   6.415   1.139  13.609 -2.0305  1.4055  1.4704
  187DOPC   C2923031   6.427   1.347  13.575  0.3478  1.1511  0.2675
  187DOPC   H9R23032   6.483   1.418  13.513  2.0229  1.7498  2.3305
  187DOPC  C21023033   6.404   1.396  13.700  0.0438 -0.2724 -0.4409
  187DOPC  H10R23034   6.391   1.505  13.714 -0.3234 -0.4696  0.9876
  187DOPC  C21123035   6.367   1.309  13.817  0.1897 -0.1959 -0.0494
  187DOPC  H11R23036   6.315   1.215  13.789  0.5830  0.0393 -1.7225
  187DOPC  H11S23037   6.296   1.372  13.874  0.0889  1.1821 -1.6166
  187DOPC  C21223038   6.480   1.266  13.910 -0.8250 -0.5914  0.5849
  187DOPC  H12R23039   6.547   1.201  13.851 -0.9539  0.1559 -0.4050
  187DOPC  H12S23040   6.444   1.221  14.005  0.1423  1.0895  1.7998
  187DOPC  C21323041   6.569   1.378  13.963 -0.3197 -0.1828  0.4734
  187DOPC  H13R23042   6.511   1.455  14.017  1.1803  1.3579 -0.0219
  187DOPC  H13S23043   6.601   1.434  13.872  0.7110  1.5967  1.8708
  187DOPC  C21423044   6.695   1.332  14.039  0.2771  0.4006 -0.2574
  187DOPC  H14R23045   6.780   1.403  14.031  1.2650 -0.9032 -1.8781
  187DOPC  H14S23046   6.728   1.238  13.992 -0.5095  0.9351 -1.9382
  187DOPC  C21523047   6.661   1.308  14.186 -0.4125  0.2815 -0.6938
  187DOPC  H15R23048   6.740   1.244  14.230 -0.6461  2.0992  2.7487
  187DOPC  H15S23049   6.568   1.250  14.207  0.2294 -0.0163  1.5480
  187DOPC  C21623050   6.646   1.442  14.256  0.3332 -0.0680  0.0375
  187DOPC  H16R23051   6.548   1.487  14.228  0.6526  1.9560  1.8646
  187DOPC  H16S23052   6.727   1.508  14.220 -1.2788  1.5691 -0.7649
  187DOPC  C21723053   6.638   1.430  14.410 -0.6200  0.9041 -0.2758
  187DOPC  H17R23054   6.717   1.355  14.432 -2.9035 -1.2003  1.3213
  187DOPC  H17S23055   6.539   1.391  14.443 -0.1633 -0.2410 -0.2358
  187DOPC  C21823056   6.663   1.560  14.485  0.1806 -0.5679  1.0922
  187DOPC  H18R23057   6.755   1.614  14.454 -0.7914  0.6831  0.2690
  187DOPC  H18S23058   6.656   1.546  14.595 -0.0096 -3.2101  0.8108
  187DOPC  H18T23059   6.574   1.620  14.456  1.2415 -0.0779 -1.3548
  187DOPC   C3323060   7.123   1.203  13.080  0.4021  0.4144 -0.5484
  187DOPC   H3X23061   7.046   1.138  13.125 -1.6029  1.1381 -2.7179
  187DOPC   H3Y23062   7.072   1.301  13.064 -1.8112 -0.0648  2.6580
  187DOPC   C3423063   7.234   1.201  13.189  0.6576 -0.0696  0.7891
  187DOPC   H4X23064   7.312   1.262  13.139  1.0896 -0.3084  1.1561
  187DOPC   H4Y23065   7.284   1.102  13.201  2.8059  1.1229  2.3821
  187DOPC   C3523066   7.177   1.244  13.320 -0.4303  0.1282 -0.2894
  187DOPC   H5X23067   7.088   1.189  13.358  0.2401 -0.2606  0.7857
  187DOPC   H5Y23068   7.147   1.350  13.309 -2.3245 -0.5633 -2.6732
  187DOPC   C3623069   7.283   1.227  13.431  0.2633  0.2000  0.0265
  187DOPC   H6X23070   7.294   1.118  13.446 -0.3552  0.0450 -0.6005
  187DOPC   H6Y23071   7.380   1.274  13.407 -0.2074  0.9548 -0.4360
  187DOPC   C3723072   7.223   1.294  13.553  0.5450  1.1229  0.5138
  187DOPC   H7X23073   7.192   1.399  13.532 -1.4533  0.7328  1.2348
  187DOPC   H7Y23074   7.130   1.240  13.582  1.0032  1.1943  2.2258
  187DOPC   C3823075   7.315   1.303  13.676 -1.1692 -0.3581  0.0038
  187DOPC   H8X23076   7.418   1.330  13.643 -0.6605  1.3186  2.6779
  187DOPC   H8Y23077   7.324   1.202  13.720  2.0875 -0.3634 -0.4588
  187DOPC   C3923078   7.265   1.403  13.776 -0.3257 -0.0793 -0.0268
  187DOPC   H9X23079   7.189   1.368  13.848  0.4760  0.7157  1.2606
  187DOPC  C31023080   7.309   1.531  13.787  0.0011  0.2827  0.0941
  187DOPC  H10X23081   7.263   1.600  13.859 -0.0646  1.7833 -1.3292
  187DOPC  C31123082   7.424   1.598  13.712 -0.3339  0.2053 -0.7817
  187DOPC  H11X23083   7.405   1.700  13.671  1.5651  0.7104 -0.5079
  187DOPC  H11Y23084   7.456   1.531  13.629 -1.3404  0.2068 -1.1806
  187DOPC  C31223085   7.550   1.611  13.807  0.2520  0.0108 -0.2812
  187DOPC  H12X23086   7.641   1.654  13.758 -0.3438  1.0879 -0.4800
  187DOPC  H12Y23087   7.573   1.511  13.848 -0.4081  0.4446  1.2113
  187DOPC  C31323088   7.519   1.704  13.924 -0.1096 -0.0262  0.2668
  187DOPC  H13X23089   7.444   1.782  13.897 -0.4346  0.0151  1.2178
  187DOPC  H13Y23090   7.468   1.644  14.003 -2.3452  2.1832  0.6313
  187DOPC  C31423091   7.645   1.771  13.973 -0.1688  0.2098 -0.0981
  187DOPC  H14X23092   7.727   1.698  13.956  0.8091  1.3166 -0.2268
  187DOPC  H14Y23093   7.675   1.860  13.914  0.1928  0.9532  1.1804
  187DOPC  C31523094   7.643   1.815  14.117 -0.1082 -0.5118 -0.2330
  187DOPC  H15X23095   7.675   1.733  14.185  1.5608 -0.3732 -0.8259
  187DOPC  H15Y23096   7.541   1.851  14.144  0.1195  3.2517 -3.4929
  187DOPC  C31623097   7.735   1.936  14.152  0.0239 -0.3713 -0.1866
  187DOPC  H16X23098   7.839   1.928  14.115  0.8083  0.2234  1.7878
  187DOPC  H16Y23099   7.675   2.014  14.099 -1.3632 -1.6081 -0.5038
  187DOPC  C31723100   7.729   1.979  14.298 -0.4110  0.5886  0.1958
  187DOPC  H17X23101   7.630   1.996  14.347  0.6270  4.9112  1.1280
  187DOPC  H17Y23102   7.779   1.901  14.360 -0.4230  0.0690 -0.4354
  187DOPC  C31823103   7.814   2.102  14.319  0.1110 -0.2228  0.5863
  187DOPC  H18X23104   7.912   2.075  14.275  0.1061  1.5223 -0.5924
  187DOPC  H18Y23105   7.781   2.193  14.264  3.2040  2.0203  2.1510
  187DOPC  H18Z23106   7.830   2.126  14.426 -0.5234  0.7010  0.4805
  188DOPC     N23107   2.409   0.163  12.045  0.0540 -0.7175 -0.5520
  188DOPC   C1223108   2.475   0.089  12.155 -0.1813  0.2633 -0.2562
  188DOPC  H12A23109   2.564   0.049  12.109  0.2149  1.2916 -0.4093
  188DOPC  H12B23110   2.401   0.019  12.192 -1.4113  2.4138  1.6847
  188DOPC   C1323111   2.272   0.223  12.078 -0.6372 -0.7320 -0.0406
  188DOPC  H13A23112   2.228   0.276  11.994 -1.9936 -1.6246  0.0699
  188DOPC  H13B23113   2.200   0.149  12.108 -0.6311 -0.4579  0.6717
  188DOPC  H13C23114   2.290   0.294  12.158  0.6780 -0.7588 -0.2980
  188DOPC   C1423115   2.387   0.072  11.927  0.8799 -0.1361  0.2245
  188DOPC  H14A23116   2.321   0.119  11.855  2.8986  1.1478 -0.8635
  188DOPC  H14B23117   2.476   0.059  11.868  0.9858  2.4594 -0.3183
  188DOPC  H14C23118   2.347  -0.026  11.949  0.2154 -0.1742 -1.0171
  188DOPC   C1523119   2.492   0.271  11.985  0.1195 -0.8996  0.1699
  188DOPC  H15A23120   2.589   0.232  11.956 -0.4050 -1.5660 -0.7324
  188DOPC  H15B23121   2.502   0.360  12.046  0.2685  0.6310 -1.9919
  188DOPC  H15C23122   2.448   0.309  11.895  0.7241  0.1115  0.2843
  188DOPC   C1123123   2.523   0.173  12.280 -0.1676 -0.2575  0.1631
  188DOPC  H11A23124   2.587   0.113  12.349  0.8729 -0.0009 -0.5609
  188DOPC  H11B23125   2.585   0.251  12.231 -0.9579  0.8451  0.8742
  188DOPC     P23126   2.444   0.377  12.417  0.0558  0.0563 -0.1216
  188DOPC   O1323127   2.319   0.429  12.471  0.9752 -0.4458 -0.4347
  188DOPC   O1423128   2.520   0.457  12.320  0.3021 -0.2767 -0.0039
  188DOPC   O1223129   2.410   0.236  12.345  0.2460  0.0577  0.3534
  188DOPC   O1123130   2.547   0.336  12.530  0.1948 -0.3314  0.0874
  188DOPC    C123131   2.503   0.265  12.648  0.7496 -0.5144 -0.4197
  188DOPC    HA23132   2.548   0.164  12.652 -0.5949 -1.0805  0.8347
  188DOPC    HB23133   2.393   0.250  12.647  0.8316 -1.3364  1.1649
  188DOPC    C223134   2.537   0.350  12.770 -0.1843 -0.2434 -0.6632
  188DOPC    HS23135   2.536   0.274  12.851 -0.2858 -0.3682 -0.7811
  188DOPC   O2123136   2.444   0.461  12.789 -0.5532  0.5321 -0.7098
  188DOPC   C2123137   2.338   0.434  12.859 -0.2085  0.5215 -0.3099
  188DOPC   O2223138   2.308   0.327  12.915  0.3070 -0.4992  0.1361
  188DOPC   C2223139   2.251   0.567  12.865 -0.7092 -0.1113 -0.3380
  188DOPC   H2R23140   2.169   0.548  12.793 -0.5007  1.0138 -0.9029
  188DOPC   H2S23141   2.313   0.647  12.818  0.1175  0.2169  1.2426
  188DOPC    C323142   2.683   0.410  12.759 -0.2588 -0.0785  0.2860
  188DOPC    HX23143   2.687   0.480  12.673 -1.8651  0.8166  0.9178
  188DOPC    HY23144   2.753   0.325  12.739 -0.9598 -0.8289  0.9529
  188DOPC   O3123145   2.719   0.475  12.883 -0.3770 -0.2371  0.2046
  188DOPC   C3123146   2.794   0.588  12.873 -1.0090  0.7045  0.6435
  188DOPC   O3223147   2.832   0.641  12.768 -0.1746 -0.2905  0.4459
  188DOPC   C3223148   2.835   0.632  13.010  0.1527  0.4046  0.0720
  188DOPC   H2X23149   2.813   0.555  13.087 -0.9605  0.2637 -0.3682
  188DOPC   H2Y23150   2.946   0.635  13.005  0.1544 -0.6012 -2.3103
  188DOPC   C2323151   2.213   0.600  13.012  0.2995  0.1006  0.9215
  188DOPC   H3R23152   2.300   0.638  13.071  0.2832  1.8856 -0.1341
  188DOPC   H3S23153   2.191   0.501  13.059  0.7570  0.6672  2.3910
  188DOPC   C2423154   2.092   0.689  13.029  0.0164  0.4709  0.3903
  188DOPC   H4R23155   2.067   0.737  12.932 -2.7169  1.9920  1.7372
  188DOPC   H4S23156   2.132   0.758  13.106  1.8862  0.1035 -0.2124
  188DOPC   C2523157   1.947   0.634  13.060  0.0125  0.3236  0.5165
  188DOPC   H5R23158   1.911   0.569  12.977 -0.4054  1.9950 -0.6677
  188DOPC   H5S23159   1.873   0.714  13.082 -1.8532 -1.3172  0.4170
  188DOPC   C2623160   1.956   0.547  13.188  0.5197  0.7031 -0.3029
  188DOPC   H6R23161   1.952   0.606  13.282 -0.7219  0.7042 -0.3302
  188DOPC   H6S23162   2.046   0.482  13.191  0.2596  0.3798  1.8573
  188DOPC   C2723163   1.830   0.460  13.194  0.4247  0.7593 -0.1117
  188DOPC   H7R23164   1.808   0.404  13.100  0.0222 -0.7500  0.8410
  188DOPC   H7S23165   1.746   0.531  13.210 -0.4172 -0.6083  2.0155
  188DOPC   C2823166   1.826   0.353  13.306  0.5050 -0.3915  0.0135
  188DOPC   H8R23167   1.724   0.307  13.306  0.1095  0.3617  2.2512
  188DOPC   H8S23168   1.833   0.400  13.406 -0.2447 -0.1671 -0.0335
  188DOPC   C2923169   1.932   0.245  13.286 -0.3232 -0.1364 -0.3744
  188DOPC   H9R23170   2.029   0.276  13.245 -0.5324 -0.6342 -1.2743
  188DOPC  C21023171   1.922   0.118  13.319 -0.7219 -0.4916 -0.5958
  188DOPC  H10R23172   2.003   0.055  13.279  0.5304  1.6631 -1.6172
  188DOPC  C21123173   1.802   0.051  13.375 -0.2233 -0.1816 -0.5891
  188DOPC  H11R23174   1.785  -0.044  13.320  0.0656 -0.2013 -0.6493
  188DOPC  H11S23175   1.710   0.109  13.353  1.3643  2.0466 -1.8302
  188DOPC  C21223176   1.814   0.023  13.526  0.4954 -0.4249 -0.4891
  188DOPC  H12R23177   1.871   0.110  13.564 -0.6393  0.0167  0.2592
  188DOPC  H12S23178   1.864  -0.075  13.545 -1.1272 -1.0207  1.0221
  188DOPC  C21323179   1.683   0.023  13.602 -0.1643  0.2934 -0.2531
  188DOPC  H13R23180   1.618  -0.059  13.564 -0.1952 -0.8593  2.1288
  188DOPC  H13S23181   1.621   0.114  13.587 -1.2232 -0.0560  1.6855
  188DOPC  C21423182   1.693  -0.001  13.756 -0.0937 -0.3658  0.3937
  188DOPC  H14R23183   1.596   0.025  13.803 -0.6970 -0.9594 -0.5031
  188DOPC  H14S23184   1.784   0.050  13.794  1.2099 -3.1113  1.1960
  188DOPC  C21523185   1.731  -0.146  13.789 -0.6984  0.3015 -0.6380
  188DOPC  H15R23186   1.738  -0.153  13.900 -0.1584 -0.2889 -0.7023
  188DOPC  H15S23187   1.832  -0.161  13.745  0.1508 -1.1491  1.6249
  188DOPC  C21623188   1.639  -0.256  13.728  0.0261 -0.0093 -0.8745
  188DOPC  H16R23189   1.636  -0.246  13.617 -1.0015 -0.4920 -0.9035
  188DOPC  H16S23190   1.533  -0.231  13.751 -0.1986 -2.0131  0.5060
  188DOPC  C21723191   1.672  -0.389  13.791 -0.1120  0.5616  0.2184
  188DOPC  H17R23192   1.689  -0.367  13.899  1.3771 -0.5198  0.2374
  188DOPC  H17S23193   1.766  -0.414  13.738 -0.0840 -0.6537  0.7857
  188DOPC  C21823194   1.569  -0.509  13.779 -0.1668 -0.4868  0.4716
  188DOPC  H18R23195   1.542  -0.542  13.676  0.0017 -0.3994  0.3967
  188DOPC  H18S23196   1.473  -0.479  13.825 -0.1514 -0.7699  0.6894
  188DOPC  H18T23197   1.611  -0.587  13.846 -0.0936  1.7094  3.1637
  188DOPC   C3323198   2.797   0.779  13.043 -0.1626  0.6907 -0.8663
  188DOPC   H3X23199   2.716   0.773  13.119  1.0978  1.2797  0.5830
  188DOPC   H3Y23200   2.767   0.830  12.950  0.6737  1.5590 -0.6711
  188DOPC   C3423201   2.903   0.858  13.122  0.5335 -1.2213 -0.1192
  188DOPC   H4X23202   2.859   0.959  13.132 -2.8113 -2.6846  1.4599
  188DOPC   H4Y23203   3.005   0.859  13.078  0.0128  3.6129 -1.8169
  188DOPC   C3523204   2.915   0.797  13.265  0.1673 -0.1917 -0.0436
  188DOPC   H5X23205   2.974   0.704  13.258  0.5770  0.0631  0.0070
  188DOPC   H5Y23206   2.812   0.773  13.299 -0.0223  0.7156  0.0464
  188DOPC   C3623207   2.970   0.904  13.368  0.5478  0.3633 -0.4223
  188DOPC   H6X23208   3.070   0.943  13.341  0.1516  0.7126 -1.4504
  188DOPC   H6Y23209   2.906   0.994  13.378  2.1751  1.3457  1.7308
  188DOPC   C3723210   2.987   0.841  13.512  0.3293  0.1568  0.0457
  188DOPC   H7X23211   3.056   0.754  13.510  0.0692 -0.0948  1.2380
  188DOPC   H7Y23212   3.030   0.913  13.584  1.9418  0.8416 -1.5128
  188DOPC   C3823213   2.849   0.782  13.570 -0.4961 -0.4461 -0.4734
  188DOPC   H8X23214   2.817   0.707  13.494 -0.5111  0.4338 -1.3576
  188DOPC   H8Y23215   2.789   0.876  13.570  2.5788  1.6410 -0.8855
  188DOPC   C3923216   2.849   0.727  13.715 -0.3957 -0.3388 -0.0156
  188DOPC   H9X23217   2.928   0.656  13.741 -0.8705 -0.5893  0.7620
  188DOPC  C31023218   2.739   0.728  13.804  0.0238 -0.7652  0.1964
  188DOPC  H10X23219   2.739   0.666  13.895 -2.0982 -0.8464  0.1853
  188DOPC  C31123220   2.603   0.791  13.777  0.6080 -0.3294 -0.2400
  188DOPC  H11X23221   2.573   0.773  13.672  1.5156 -1.9337 -0.2562
  188DOPC  H11Y23222   2.592   0.900  13.799  3.4616 -0.2573  1.3814
  188DOPC  C31223223   2.493   0.729  13.874  0.4393  0.3171 -0.2649
  188DOPC  H12X23224   2.401   0.787  13.854  1.1780  0.8532 -2.3855
  188DOPC  H12Y23225   2.523   0.749  13.979  0.5772 -0.4339 -0.1509
  188DOPC  C31323226   2.473   0.575  13.858  0.5468 -0.0110  0.8268
  188DOPC  H13X23227   2.456   0.560  13.749  0.3911 -1.3019  1.0141
  188DOPC  H13Y23228   2.570   0.529  13.883  0.8954 -0.9170 -1.8394
  188DOPC  C31423229   2.359   0.517  13.950 -0.1259 -0.1822 -0.9939
  188DOPC  H14X23230   2.383   0.542  14.056 -2.2164 -1.0289 -0.2798
  188DOPC  H14Y23231   2.261   0.558  13.918 -0.2476 -0.8559 -1.4903
  188DOPC  C31523232   2.351   0.364  13.933  0.5775 -0.5977  0.1710
  188DOPC  H15X23233   2.294   0.319  14.016 -0.7757  0.0633 -0.3664
  188DOPC  H15Y23234   2.454   0.322  13.937  0.5597 -1.0907 -2.6299
  188DOPC  C31623235   2.276   0.336  13.803 -0.1757 -0.4379  0.3239
  188DOPC  H16X23236   2.167   0.353  13.810 -0.1265  0.1786 -0.2733
  188DOPC  H16Y23237   2.321   0.390  13.717  0.5800  0.6809  1.3952
  188DOPC  C31723238   2.286   0.185  13.763  0.2085  0.8674 -0.1939
  188DOPC  H17X23239   2.389   0.165  13.801 -0.8623 -1.2186  1.8356
  188DOPC  H17Y23240   2.221   0.120  13.825  0.3695  1.1384  0.2644
  188DOPC  C31823241   2.266   0.148  13.617  0.5628 -0.2364  0.3097
  188DOPC  H18X23242   2.353   0.182  13.558  1.7486 -0.3242  1.9490
  188DOPC  H18Y23243   2.252   0.039  13.598 -1.2613  0.2141 -1.2629
  188DOPC  H18Z23244   2.174   0.194  13.575  1.2059 -0.4110 -1.3886
  189DOPC     N23245   2.858   0.895  12.001  0.5218 -0.0309  0.0928
  189DOPC   C1223246   2.945   0.892  12.119 -0.3720  0.7043 -0.3653
  189DOPC  H12A23247   2.954   0.993  12.157  1.2822  0.0451  1.1332
  189DOPC  H12B23248   3.042   0.863  12.081 -1.3828 -1.2942 -1.6080
  189DOPC   C1323249   2.878   0.771  11.923 -0.3039  0.0778 -0.1404
  189DOPC  H13A23250   2.834   0.777  11.824  2.5573  1.6759 -1.4344
  189DOPC  H13B23251   2.984   0.753  11.912 -0.2929  1.0503 -2.0067
  189DOPC  H13C23252   2.832   0.693  11.983 -1.5998  1.9499  1.4068
  189DOPC   C1423253   2.873   1.004  11.912 -0.0911 -0.2224  0.4925
  189DOPC  H14A23254   2.975   1.003  11.876  0.1350  0.9521  1.0722
  189DOPC  H14B23255   2.810   0.990  11.825  2.3411 -1.0396 -1.2470
  189DOPC  H14C23256   2.854   1.096  11.965  1.1314  0.2310  0.1857
  189DOPC   C1523257   2.715   0.889  12.046 -0.1073  0.1841  0.1734
  189DOPC  H15A23258   2.699   0.974  12.112  2.3594  1.6169 -0.9384
  189DOPC  H15B23259   2.699   0.803  12.108  1.8003 -0.2511  0.0938
  189DOPC  H15C23260   2.647   0.897  11.962  1.2111  1.0880 -0.8392
  189DOPC   C1123261   2.908   0.807  12.244 -0.5395 -0.1766  0.1787
  189DOPC  H11A23262   2.981   0.828  12.325 -0.0589 -3.3553  0.6827
  189DOPC  H11B23263   2.807   0.839  12.277 -0.2719 -0.6138  1.4547
  189DOPC     P23264   3.051   0.584  12.222  0.7360  0.1700 -0.0143
  189DOPC   O1323265   3.151   0.649  12.137 -0.2107  0.0192 -0.5254
  189DOPC   O1423266   3.025   0.437  12.203  0.3477 -0.3440 -0.1713
  189DOPC   O1223267   2.921   0.670  12.215  0.7085  0.4900  0.5158
  189DOPC   O1123268   3.106   0.614  12.369 -0.0921  0.1071  0.1755
  189DOPC    C123269   3.025   0.589  12.487 -0.4268  0.7342 -0.8800
  189DOPC    HA23270   2.922   0.549  12.476 -0.0753 -0.9949  1.3232
  189DOPC    HB23271   3.016   0.687  12.539  2.6833  0.1645  0.9810
  189DOPC    C223272   3.101   0.492  12.593  0.1803  0.2932  0.3253
  189DOPC    HS23273   3.034   0.489  12.682  2.2370  0.1038  1.9212
  189DOPC   O2123274   3.221   0.570  12.637 -0.1888  0.8080 -0.3193
  189DOPC   C2123275   3.209   0.641  12.748 -0.4270 -0.8623 -0.3457
  189DOPC   O2223276   3.109   0.667  12.811  0.4578 -0.3841  0.1605
  189DOPC   C2223277   3.349   0.686  12.798 -1.0196 -0.1541 -0.3473
  189DOPC   H2R23278   3.378   0.764  12.725  0.3675  1.1091  1.4399
  189DOPC   H2S23279   3.422   0.602  12.792  1.3212  1.7186  0.3947
  189DOPC    C323280   3.132   0.352  12.530  0.3480 -0.5531  0.7653
  189DOPC    HX23281   3.212   0.374  12.456 -0.8474 -1.7678 -0.9709
  189DOPC    HY23282   3.054   0.317  12.459  1.4074 -0.2077 -0.6113
  189DOPC   O3123283   3.158   0.250  12.625 -0.3552 -0.8092 -0.3993
  189DOPC   C3123284   3.285   0.232  12.646 -0.0519  0.2787 -0.1949
  189DOPC   O3223285   3.370   0.290  12.580 -0.4060  0.3103 -0.0505
  189DOPC   C3223286   3.307   0.138  12.771 -0.0925  0.0445  0.0420
  189DOPC   H2X23287   3.224   0.155  12.843  0.5313  1.1321  0.5262
  189DOPC   H2Y23288   3.303   0.034  12.731 -0.9136  0.0256  0.1586
  189DOPC   C2323289   3.350   0.739  12.948  0.1665 -0.4097  0.4194
  189DOPC   H3R23290   3.285   0.673  13.009 -0.6910 -0.5096 -0.5715
  189DOPC   H3S23291   3.305   0.841  12.947  1.9803  0.4785  2.0361
  189DOPC   C2423292   3.493   0.752  13.001  0.5056  0.2761  0.5018
  189DOPC   H4R23293   3.547   0.657  12.983 -0.4323 -0.3016  0.6626
  189DOPC   H4S23294   3.496   0.772  13.110  1.8051  3.4752 -0.0305
  189DOPC   C2523295   3.573   0.862  12.922 -0.9251  0.4369  0.7412
  189DOPC   H5R23296   3.525   0.962  12.924  0.0779  1.1957 -3.1811
  189DOPC   H5S23297   3.577   0.824  12.817 -0.7774  2.3830 -0.0001
  189DOPC   C2623298   3.723   0.871  12.974 -0.0414 -0.2343 -0.2319
  189DOPC   H6R23299   3.739   0.903  13.079  1.9107 -0.7236 -0.3352
  189DOPC   H6S23300   3.781   0.941  12.909 -2.5477  2.0877 -0.1586
  189DOPC   C2723301   3.796   0.735  12.962 -0.4799  0.1961  0.2856
  189DOPC   H7R23302   3.770   0.673  12.873  0.3383  0.8118 -0.4048
  189DOPC   H7S23303   3.763   0.677  13.051  0.0098 -1.4581 -0.5637
  189DOPC   C2823304   3.951   0.753  12.983  0.3156  0.3466  0.3638
  189DOPC   H8R23305   3.950   0.802  13.083 -2.2891 -1.3517  1.2458
  189DOPC   H8S23306   3.992   0.824  12.908 -0.2168 -0.7537 -1.0047
  189DOPC   C2923307   4.019   0.619  12.981 -0.7932 -0.2492  0.2014
  189DOPC   H9R23308   3.976   0.541  12.917 -0.8721 -0.8066  0.9262
  189DOPC  C21023309   4.137   0.584  13.041 -0.4002 -0.4553 -0.6230
  189DOPC  H10R23310   4.173   0.480  13.029 -0.2219 -0.7862  2.1840
  189DOPC  C21123311   4.236   0.672  13.105  0.4080  0.0526  0.2809
  189DOPC  H11R23312   4.225   0.771  13.055  0.2215  0.0311  0.2767
  189DOPC  H11S23313   4.341   0.638  13.102  0.3695 -0.1239  0.8858
  189DOPC  C21223314   4.197   0.701  13.248 -0.1737  0.4421 -0.1952
  189DOPC  H12R23315   4.187   0.604  13.300  1.6222 -0.6382 -1.7162
  189DOPC  H12S23316   4.100   0.755  13.256 -0.0029  0.5695  1.3375
  189DOPC  C21323317   4.303   0.790  13.316  0.1287  0.5516 -1.1974
  189DOPC  H13R23318   4.259   0.837  13.407 -0.7555 -2.8175  0.2493
  189DOPC  H13S23319   4.334   0.876  13.252  1.7139  2.3137  1.6950
  189DOPC  C21423320   4.420   0.699  13.367 -0.1136  0.3311 -0.0259
  189DOPC  H14R23321   4.455   0.634  13.284 -1.2730 -1.4088  0.7877
  189DOPC  H14S23322   4.381   0.623  13.438 -1.0077  0.7190 -0.0884
  189DOPC  C21523323   4.529   0.783  13.419 -0.3227 -0.0283  0.2460
  189DOPC  H15R23324   4.500   0.839  13.511  1.0659  2.5860 -0.8022
  189DOPC  H15S23325   4.556   0.866  13.350 -0.6832  2.0942  2.5228
  189DOPC  C21623326   4.659   0.706  13.454 -0.1427  0.0099  0.5124
  189DOPC  H16R23327   4.745   0.773  13.474  0.4398 -0.6272  0.1903
  189DOPC  H16S23328   4.681   0.646  13.364  2.0172  1.4315  0.0244
  189DOPC  C21723329   4.649   0.598  13.568  0.7065 -0.0884  0.3403
  189DOPC  H17R23330   4.731   0.524  13.559  0.2477 -0.4262 -1.4555
  189DOPC  H17S23331   4.561   0.533  13.547  1.0211 -0.9685  1.6548
  189DOPC  C21823332   4.638   0.648  13.710 -0.0529 -0.1254  0.1799
  189DOPC  H18R23333   4.731   0.702  13.739 -0.0019  0.3418 -0.8206
  189DOPC  H18S23334   4.621   0.563  13.780 -1.1664 -1.4111 -1.5999
  189DOPC  H18T23335   4.556   0.723  13.711  0.1975  0.1717 -0.8372
  189DOPC   C3323336   3.456   0.150  12.823  1.1099  0.0921  0.4075
  189DOPC   H3X23337   3.529   0.150  12.739  0.5948  0.8473 -0.0518
  189DOPC   H3Y23338   3.464   0.066  12.895  1.7560 -0.2504 -0.0545
  189DOPC   C3423339   3.475   0.269  12.913 -0.1572  0.0089  0.7849
  189DOPC   H4X23340   3.387   0.300  12.973  0.6084 -0.8275  2.3953
  189DOPC   H4Y23341   3.505   0.363  12.862 -1.3238 -0.2987 -0.5277
  189DOPC   C3523342   3.578   0.232  13.022 -0.5182  0.2936  0.2927
  189DOPC   H5X23343   3.671   0.197  12.973  0.6997  2.1703  1.1499
  189DOPC   H5Y23344   3.528   0.152  13.081  1.7267 -1.0011  0.5335
  189DOPC   C3623345   3.603   0.353  13.111  0.2580  0.4250 -0.6801
  189DOPC   H6X23346   3.645   0.437  13.052  0.6677 -0.3146 -1.4704
  189DOPC   H6Y23347   3.503   0.383  13.149 -0.2862  1.8171 -2.9970
  189DOPC   C3723348   3.701   0.317  13.221 -0.3813 -0.0418  0.1961
  189DOPC   H7X23349   3.647   0.239  13.280  0.2948 -1.8726 -1.4982
  189DOPC   H7Y23350   3.799   0.271  13.198 -0.9867 -1.1696 -0.2270
  189DOPC   C3823351   3.726   0.437  13.318 -0.0511  0.4318 -0.6755
  189DOPC   H8X23352   3.623   0.478  13.324 -0.7453 -1.1017 -1.5494
  189DOPC   H8Y23353   3.796   0.510  13.271  0.4463  0.5863  0.2901
  189DOPC   C3923354   3.772   0.395  13.453  0.7462 -0.3009  0.1762
  189DOPC   H9X23355   3.691   0.334  13.496  0.3913 -0.6973 -1.0126
  189DOPC  C31023356   3.890   0.425  13.520  0.5515  0.0956  0.4832
  189DOPC  H10X23357   3.904   0.367  13.613 -2.3289 -1.5291  0.0289
  189DOPC  C31123358   4.009   0.495  13.467 -0.1257  0.3186  0.1822
  189DOPC  H11X23359   3.982   0.545  13.372 -1.0393 -1.3150 -0.4624
  189DOPC  H11Y23360   4.088   0.417  13.455 -0.4547  0.2157 -1.7027
  189DOPC  C31223361   4.060   0.592  13.568  0.5487 -0.8524 -0.0906
  189DOPC  H12X23362   3.975   0.644  13.619 -0.8199 -1.5253 -1.6160
  189DOPC  H12Y23363   4.127   0.668  13.522 -0.5860 -0.4754 -1.1818
  189DOPC  C31323364   4.153   0.540  13.689 -0.0403  0.7380  0.7474
  189DOPC  H13X23365   4.103   0.452  13.735  0.3633  0.1990  0.1713
  189DOPC  H13Y23366   4.242   0.487  13.648 -0.1445  0.9603  0.2292
  189DOPC  C31423367   4.185   0.645  13.785 -0.1830  0.1300 -0.0571
  189DOPC  H14X23368   4.247   0.725  13.738  1.5461 -0.4514  1.1509
  189DOPC  H14Y23369   4.091   0.692  13.823 -1.4583 -1.0003 -1.6725
  189DOPC  C31523370   4.258   0.582  13.905  0.3076  0.0512 -0.2135
  189DOPC  H15X23371   4.346   0.524  13.870  0.0249  0.2556 -1.2983
  189DOPC  H15Y23372   4.200   0.494  13.939  0.3073  0.3692  0.6348
  189DOPC  C31623373   4.298   0.670  14.023 -0.7930  0.3212 -0.0534
  189DOPC  H16X23374   4.363   0.602  14.082 -0.1804  0.2307 -0.8196
  189DOPC  H16Y23375   4.357   0.762  14.001  2.2160 -1.5617 -0.3593
  189DOPC  C31723376   4.188   0.692  14.121  0.0422  0.6117  0.0550
  189DOPC  H17X23377   4.126   0.772  14.073  1.5649  0.9017 -1.5524
  189DOPC  H17Y23378   4.133   0.596  14.110 -0.1231  0.9288 -2.6919
  189DOPC  C31823379   4.231   0.720  14.263 -0.4318  0.5476  0.6900
  189DOPC  H18X23380   4.281   0.632  14.311 -0.6613  0.7264  1.2717
  189DOPC  H18Y23381   4.300   0.806  14.262  0.9878 -0.5598 -0.3781
  189DOPC  H18Z23382   4.145   0.740  14.331 -1.6259 -0.9189 -0.3310
  190DOPC     N23383   2.645   6.622  12.535 -0.1950 -0.1294  0.3860
  190DOPC   C1223384   2.668   6.708  12.655  0.5505 -0.1451 -0.2029
  190DOPC  H12A23385   2.703   6.801  12.614 -1.7903 -0.2136 -2.6371
  190DOPC  H12B23386   2.747   6.666  12.716 -0.0526 -0.6798  0.2192
  190DOPC   C1323387   2.612   6.485  12.576 -0.2300  0.3585 -0.1436
  190DOPC  H13A23388   2.698   6.430  12.611  1.3223  0.5401 -3.3647
  190DOPC  H13B23389   2.528   6.480  12.645  0.4103  1.0860  0.7125
  190DOPC  H13C23390   2.573   6.433  12.490 -1.6600  0.7970  0.1938
  190DOPC   C1423391   2.770   6.626  12.452  0.1123  0.6449  0.0284
  190DOPC  H14A23392   2.736   6.598  12.353  0.3534  0.6900 -0.0664
  190DOPC  H14B23393   2.812   6.725  12.443 -1.1377  1.2198  0.1763
  190DOPC  H14C23394   2.840   6.556  12.493  2.0277  2.4264 -0.0356
  190DOPC   C1523395   2.537   6.673  12.449 -0.3403  0.3612  0.7883
  190DOPC  H15A23396   2.444   6.697  12.498 -1.5474 -0.3144 -1.1014
  190DOPC  H15B23397   2.528   6.617  12.358  1.8320  2.8763 -1.1460
  190DOPC  H15C23398   2.570   6.766  12.407  0.5804 -0.4825 -0.4238
  190DOPC   C1123399   2.539   6.740  12.737 -0.2604  0.5058  0.6227
  190DOPC  H11A23400   2.481   6.647  12.751  0.3472  0.1181  0.5966
  190DOPC  H11B23401   2.560   6.769  12.843 -0.5057 -0.6580  1.0047
  190DOPC     P23402   2.515   6.987  12.661  0.1155 -0.1564  0.1500
  190DOPC   O1323403   2.426   7.072  12.580  0.6285 -0.5764  0.1040
  190DOPC   O1423404   2.658   6.990  12.622  0.4548 -0.6908  0.2543
  190DOPC   O1223405   2.456   6.839  12.677 -0.2670  0.2787 -0.2410
  190DOPC   O1123406   2.517   7.040  12.811 -0.8665 -0.1781 -0.5054
  190DOPC    C123407   2.391   7.047  12.877  0.3570 -0.1144 -0.0993
  190DOPC    HA23408   2.335   6.952  12.866  2.7023 -1.6379  0.5076
  190DOPC    HB23409   2.338   7.134  12.832 -0.2770 -0.0880  0.6637
  190DOPC    C223410   2.412   7.086  13.025 -0.0382  0.3367  0.0195
  190DOPC    HS23411   2.307   7.086  13.063  0.0786 -0.6315  0.3699
  190DOPC   O2123412   2.482   7.211  13.041  0.0547 -0.0622  0.4995
  190DOPC   C2123413   2.450   7.280  13.148  0.0196 -0.0917 -0.6634
  190DOPC   O2223414   2.363   7.249  13.230 -0.8563  0.3623 -0.1683
  190DOPC   C2223415   2.539   7.394  13.164  0.2328  0.2317 -0.0942
  190DOPC   H2R23416   2.635   7.386  13.107 -0.0930  2.5983 -1.1035
  190DOPC   H2S23417   2.568   7.406  13.270  1.1783 -0.2985 -0.2756
  190DOPC    C323418   2.486   6.965  13.099  0.5480  0.1967  0.0147
  190DOPC    HX23419   2.594   6.966  13.072  0.7627 -0.3659  0.8238
  190DOPC    HY23420   2.449   6.868  13.061 -1.4703  0.0346  2.1834
  190DOPC   O3123421   2.465   6.976  13.240  0.3412  0.0284 -1.5441
  190DOPC   C3123422   2.346   6.946  13.283  0.5804  0.0562  0.5159
  190DOPC   O3223423   2.256   6.905  13.215  0.6741  0.1343 -0.2788
  190DOPC   C3223424   2.340   6.943  13.434 -0.9201 -0.1627  0.2696
  190DOPC   H2X23425   2.406   6.859  13.467  1.9053  1.5256 -0.7401
  190DOPC   H2Y23426   2.364   7.046  13.466 -2.8291  0.4444 -0.1007
  190DOPC   C2323427   2.476   7.528  13.125  0.4050 -0.1190 -0.4352
  190DOPC   H3R23428   2.373   7.548  13.160  0.9263  2.4113 -0.1160
  190DOPC   H3S23429   2.471   7.534  13.014  0.8619 -0.8993 -0.4994
  190DOPC   C2423430   2.557   7.650  13.171  0.1601 -0.2715  0.1294
  190DOPC   H4R23431   2.659   7.633  13.129 -1.0234 -0.5986 -2.8500
  190DOPC   H4S23432   2.562   7.662  13.281 -0.5711  2.6929 -0.0586
  190DOPC   C2523433   2.498   7.782  13.109 -0.8179 -0.0213 -0.0244
  190DOPC   H5R23434   2.393   7.785  13.144 -1.1791 -0.8744 -0.9838
  190DOPC   H5S23435   2.485   7.790  12.999 -1.9231  0.9223  0.1583
  190DOPC   C2623436   2.582   7.900  13.157  0.6055  0.2078 -0.2888
  190DOPC   H6R23437   2.558   7.986  13.092 -1.6170  0.6393  0.9812
  190DOPC   H6S23438   2.691   7.882  13.143  0.5597  1.2430 -2.2625
  190DOPC   C2723439   2.555   7.937  13.307  0.3013 -0.4297  0.0126
  190DOPC   H7R23440   2.575   7.851  13.374 -2.0480 -0.1266  1.2165
  190DOPC   H7S23441   2.449   7.971  13.311  0.8098  1.2948 -0.2856
  190DOPC   C2823442   2.660   8.040  13.365 -0.2885  0.2587  0.6592
  190DOPC   H8R23443   2.653   8.129  13.298 -1.5993 -0.8574 -0.7753
  190DOPC   H8S23444   2.756   7.985  13.359 -0.4069  0.1821 -1.3026
  190DOPC   C2923445   2.625   8.079  13.506 -0.3442 -0.6219 -0.6715
  190DOPC   H9R23446   2.518   8.103  13.516 -1.0599 -3.5603 -0.4721
  190DOPC  C21023447   2.708   8.076  13.616  0.2155  0.9859 -0.0559
  190DOPC  H10R23448   2.662   8.100  13.713  2.0441 -0.2101  1.1723
  190DOPC  C21123449   2.857   8.055  13.625 -0.5113 -0.5750 -0.2329
  190DOPC  H11R23450   2.909   8.153  13.625 -2.3995  0.4860 -0.7393
  190DOPC  H11S23451   2.898   8.015  13.529 -0.7125  0.1612 -0.6379
  190DOPC  C21223452   2.907   7.974  13.749 -0.2947 -0.5213  0.2443
  190DOPC  H12R23453   2.915   7.864  13.738 -2.4828 -0.7897  0.8854
  190DOPC  H12S23454   2.841   7.997  13.834 -0.0717  2.6218 -0.3167
  190DOPC  C21323455   3.048   8.027  13.790 -0.2793 -0.1538 -0.6801
  190DOPC  H13R23456   3.039   8.136  13.807  0.2396  0.2078 -2.4782
  190DOPC  H13S23457   3.117   8.012  13.704 -0.3313  1.0784 -0.9589
  190DOPC  C21423458   3.100   7.957  13.912  0.3165  0.0899  0.3869
  190DOPC  H14R23459   3.126   7.856  13.874 -1.2095 -0.8720  1.7199
  190DOPC  H14S23460   3.028   7.945  13.997  0.4458 -0.0313  0.4792
  190DOPC  C21523461   3.219   8.022  13.975  0.1331  0.2348 -0.0870
  190DOPC  H15R23462   3.218   8.132  13.961  1.8320 -0.0163 -3.1781
  190DOPC  H15S23463   3.308   7.985  13.920  0.1274  0.8949 -0.5573
  190DOPC  C21623464   3.244   7.985  14.123  0.3163  0.9427 -0.0532
  190DOPC  H16R23465   3.236   7.875  14.128  0.3965  0.8223 -1.7722
  190DOPC  H16S23466   3.159   8.024  14.182 -0.3364  2.0591 -1.6453
  190DOPC  C21723467   3.373   8.041  14.179 -0.3787 -0.1107  0.7268
  190DOPC  H17R23468   3.358   8.151  14.178 -0.2211 -0.0865 -0.7969
  190DOPC  H17S23469   3.463   8.034  14.114 -1.9648  1.9720 -1.9194
  190DOPC  C21823470   3.410   7.997  14.314 -0.2064  0.7055 -0.3258
  190DOPC  H18R23471   3.328   8.007  14.388  0.8546 -3.3245  1.6677
  190DOPC  H18S23472   3.498   8.054  14.351  0.5671 -2.2749  2.9056
  190DOPC  H18T23473   3.427   7.887  14.316  0.0387  0.7364 -0.6992
  190DOPC   C3323474   2.197   6.922  13.482 -0.2668 -0.4520  0.1820
  190DOPC   H3X23475   2.149   6.839  13.427 -0.5604 -0.0298 -0.2087
  190DOPC   H3Y23476   2.138   7.014  13.461 -1.9062 -1.3181  0.8314
  190DOPC   C3423477   2.198   6.907  13.631 -0.1581  0.0499 -1.2703
  190DOPC   H4X23478   2.279   6.966  13.679  0.1332 -1.5789  0.3735
  190DOPC   H4Y23479   2.200   6.800  13.659 -0.8546 -0.0620 -1.6120
  190DOPC   C3523480   2.068   6.956  13.696  0.0507 -0.0279 -1.2903
  190DOPC   H5X23481   1.983   6.900  13.651  0.7579 -1.2681 -1.1270
  190DOPC   H5Y23482   2.050   7.064  13.679 -2.0411  0.0812  1.0708
  190DOPC   C3623483   2.063   6.932  13.848  0.0311  0.8750 -0.1611
  190DOPC   H6X23484   2.081   6.823  13.856  0.0569  0.9506  0.9232
  190DOPC   H6Y23485   2.163   6.968  13.879  0.6398  1.3679 -2.4844
  190DOPC   C3723486   1.933   6.973  13.915  0.0180 -0.2463 -0.0630
  190DOPC   H7X23487   1.905   7.078  13.894  1.9111  0.7739  2.1218
  190DOPC   H7Y23488   1.860   6.899  13.874  0.8131 -1.1684  0.1436
  190DOPC   C3823489   1.945   6.962  14.070 -0.3031 -0.2095  0.2247
  190DOPC   H8X23490   2.046   6.996  14.102  1.2608 -3.2914 -1.0499
  190DOPC   H8Y23491   1.938   6.855  14.096  2.5627 -0.1603  1.5044
  190DOPC   C3923492   1.832   7.035  14.126  0.2542  0.3728 -1.0216
  190DOPC   H9X23493   1.736   6.983  14.134  0.3753  0.1855 -0.7927
  190DOPC  C31023494   1.844   7.166  14.169  0.7710  0.2880  1.1525
  190DOPC  H10X23495   1.752   7.208  14.212 -0.5805 -1.6287  0.2924
  190DOPC  C31123496   1.969   7.256  14.180 -0.1387 -0.1087 -0.2611
  190DOPC  H11X23497   2.056   7.212  14.126  0.8118 -0.5177  1.5337
  190DOPC  H11Y23498   1.992   7.271  14.287 -2.5362 -3.0450  0.8164
  190DOPC  C31223499   1.939   7.386  14.106  1.2184  0.1183  0.8762
  190DOPC  H12X23500   1.855   7.437  14.158  0.9411  0.1789  0.3722
  190DOPC  H12Y23501   1.912   7.376  13.999  0.5779  5.4544  0.3020
  190DOPC  C31323502   2.067   7.473  14.108 -0.0438 -0.1953  0.2709
  190DOPC  H13X23503   2.101   7.487  14.213 -0.2886  0.4335  0.2719
  190DOPC  H13Y23504   2.158   7.438  14.055  0.9041  0.4993  1.4014
  190DOPC  C31423505   2.041   7.618  14.051  0.7035 -0.3169 -0.2518
  190DOPC  H14X23506   2.129   7.680  14.075 -0.3138  0.1708  2.6189
  190DOPC  H14Y23507   2.015   7.605  13.943  1.9185 -2.4165 -0.3340
  190DOPC  C31523508   1.929   7.687  14.130  0.4163  0.1833  0.6547
  190DOPC  H15X23509   1.986   7.693  14.225  2.8596 -0.4244 -0.6643
  190DOPC  H15Y23510   1.838   7.624  14.126  1.3605 -1.1866 -1.5502
  190DOPC  C31623511   1.888   7.833  14.085  0.6707 -0.0810  0.4938
  190DOPC  H16X23512   1.866   7.829  13.976  1.3062  2.0235  0.2454
  190DOPC  H16Y23513   1.814   7.881  14.152 -0.5701 -0.6888 -0.4070
  190DOPC  C31723514   2.014   7.922  14.107 -0.6501 -0.4662 -0.1185
  190DOPC  H17X23515   2.043   7.918  14.214  1.6657 -1.4057 -0.7131
  190DOPC  H17Y23516   2.105   7.884  14.055  1.1451  1.3838  1.4695
  190DOPC  C31823517   1.999   8.065  14.057  0.3297  0.3435  0.0078
  190DOPC  H18X23518   1.959   8.063  13.953 -0.1764 -1.2713  0.1978
  190DOPC  H18Y23519   1.930   8.115  14.128 -0.9432  0.4190 -1.2352
  190DOPC  H18Z23520   2.098   8.115  14.050  0.3536  0.2819 -0.1024
  191DOPC     N23521   4.850   6.879  12.155 -0.4398  0.1897  0.5627
  191DOPC   C1223522   4.799   6.993  12.230 -0.3291  0.4973  0.1554
  191DOPC  H12A23523   4.739   6.957  12.312  0.5833 -0.1946  0.5336
  191DOPC  H12B23524   4.731   7.044  12.164 -1.4770 -0.0238  0.9082
  191DOPC   C1323525   4.954   6.803  12.231 -0.6224  0.5714  0.3153
  191DOPC  H13A23526   5.006   6.733  12.167 -1.5338  0.0551  0.1234
  191DOPC  H13B23527   5.028   6.864  12.281  1.7063 -0.8405 -1.1707
  191DOPC  H13C23528   4.920   6.739  12.311 -0.1664  0.0126  0.0736
  191DOPC   C1423529   4.913   6.932  12.035 -0.7400  0.3286  0.3491
  191DOPC  H14A23530   4.957   6.859  11.968 -2.5033  0.4458 -1.0190
  191DOPC  H14B23531   4.843   6.980  11.968  0.5520  1.5035 -0.1921
  191DOPC  H14C23532   4.986   7.004  12.067  0.1895  0.7612 -2.4440
  191DOPC   C1523533   4.749   6.780  12.111  0.4617 -0.3013  0.2602
  191DOPC  H15A23534   4.678   6.829  12.047 -0.4352 -0.9034  0.7739
  191DOPC  H15B23535   4.696   6.726  12.189  0.5953 -1.7468 -0.6097
  191DOPC  H15C23536   4.800   6.705  12.051 -0.0419  0.0289 -0.5890
  191DOPC   C1123537   4.901   7.098  12.286  0.3796  0.1484  0.3932
  191DOPC  H11A23538   4.978   7.130  12.213 -0.7215 -1.0460 -1.3536
  191DOPC  H11B23539   4.851   7.193  12.313 -1.9192 -0.6055 -0.8860
  191DOPC     P23540   4.912   6.997  12.523 -0.1562  0.0719  0.6576
  191DOPC   O1323541   4.994   6.895  12.583  0.3243 -0.4284 -0.0168
  191DOPC   O1423542   4.769   6.966  12.509  0.2444 -0.5218  0.0083
  191DOPC   O1223543   4.985   7.042  12.393  0.0754 -0.2022 -0.3803
  191DOPC   O1123544   4.915   7.124  12.618 -0.3121 -0.1239  0.2217
  191DOPC    C123545   5.021   7.222  12.591  0.4875 -0.2404 -0.4599
  191DOPC    HA23546   4.992   7.282  12.502 -1.8848  3.4323  2.5139
  191DOPC    HB23547   5.119   7.171  12.577  0.5000 -0.5305  0.6123
  191DOPC    C223548   5.046   7.321  12.710  0.0781 -0.1169 -0.3607
  191DOPC    HS23549   5.079   7.256  12.795  0.3806  0.9913  0.3944
  191DOPC   O2123550   4.935   7.394  12.740  0.2498  0.4623 -0.0635
  191DOPC   C2123551   4.923   7.447  12.861 -0.1172 -1.1520  0.2912
  191DOPC   O2223552   4.999   7.429  12.955 -0.8562 -0.3203 -0.1941
  191DOPC   C2223553   4.807   7.548  12.870 -0.4352  0.7862  0.9898
  191DOPC   H2R23554   4.721   7.491  12.829  1.4700 -1.3217 -0.3272
  191DOPC   H2S23555   4.832   7.622  12.791 -0.1701  1.1474  1.4010
  191DOPC    C323556   5.162   7.419  12.692 -0.7071  0.4786 -0.6366
  191DOPC    HX23557   5.119   7.513  12.649 -0.8657 -0.0966 -1.7707
  191DOPC    HY23558   5.231   7.372  12.619  1.6823 -1.0649  2.3947
  191DOPC   O3123559   5.243   7.428  12.815  0.2396 -0.1897  0.2112
  191DOPC   C3123560   5.282   7.559  12.837 -0.1585  0.3263 -0.1113
  191DOPC   O3223561   5.258   7.650  12.765 -0.2401 -0.3597 -0.1710
  191DOPC   C3223562   5.374   7.566  12.962  0.9794 -0.5955 -0.7399
  191DOPC   H2X23563   5.367   7.467  13.011 -0.1752 -0.0936  0.1667
  191DOPC   H2Y23564   5.476   7.591  12.927  1.3340 -1.7332 -0.5457
  191DOPC   C2323565   4.777   7.615  13.007 -0.5149 -0.4490 -0.8934
  191DOPC   H3R23566   4.728   7.711  12.982  1.2766  0.2300 -1.9718
  191DOPC   H3S23567   4.879   7.638  13.046  0.8814 -1.6489 -3.5573
  191DOPC   C2423568   4.687   7.527  13.099 -0.9959 -0.0774  0.3749
  191DOPC   H4R23569   4.676   7.577  13.197  2.6457 -0.4993  1.1380
  191DOPC   H4S23570   4.744   7.434  13.119 -0.3834 -0.5030 -2.7309
  191DOPC   C2523571   4.548   7.486  13.048 -0.1716 -0.3817  0.8243
  191DOPC   H5R23572   4.557   7.405  12.973  1.2494 -1.8900  2.5008
  191DOPC   H5S23573   4.507   7.578  13.001 -0.1143 -0.2356  1.0549
  191DOPC   C2623574   4.459   7.442  13.163  0.4859  0.1507 -0.0348
  191DOPC   H6R23575   4.459   7.526  13.236 -2.5277 -0.4854  0.8385
  191DOPC   H6S23576   4.508   7.352  13.206  0.8679 -0.0265 -0.8178
  191DOPC   C2723577   4.316   7.419  13.118  0.0611  0.4313 -0.8900
  191DOPC   H7R23578   4.321   7.395  13.010  0.7297 -1.6766 -0.4307
  191DOPC   H7S23579   4.262   7.516  13.124  1.3578  1.1010  0.7460
  191DOPC   C2823580   4.244   7.302  13.184 -0.0111 -0.4857 -0.4928
  191DOPC   H8R23581   4.316   7.218  13.191 -1.1593 -1.4279  0.6234
  191DOPC   H8S23582   4.159   7.275  13.118 -1.4041  0.4474  0.8323
  191DOPC   C2923583   4.174   7.331  13.315  0.1877 -0.0450  0.2981
  191DOPC   H9R23584   4.082   7.389  13.299  0.8848  0.4345 -2.5425
  191DOPC  C21023585   4.223   7.316  13.441 -0.0745  0.0975 -0.0679
  191DOPC  H10R23586   4.153   7.325  13.526 -0.6244 -2.5856 -0.1568
  191DOPC  C21123587   4.354   7.252  13.489  1.2351 -0.0605  0.1350
  191DOPC  H11R23588   4.405   7.190  13.412 -0.1417 -0.6441 -0.3352
  191DOPC  H11S23589   4.338   7.176  13.568  0.1441 -0.6923 -0.6642
  191DOPC  C21223590   4.455   7.358  13.547 -0.5910  0.0858 -0.2316
  191DOPC  H12R23591   4.417   7.382  13.648 -1.6369  0.2365 -0.6456
  191DOPC  H12S23592   4.450   7.452  13.487  0.4895 -0.3430 -1.0218
  191DOPC  C21323593   4.604   7.326  13.568  0.6254  0.1174 -0.1027
  191DOPC  H13R23594   4.634   7.303  13.464 -0.0630 -0.0634 -0.2644
  191DOPC  H13S23595   4.600   7.235  13.632  1.2918 -0.7255 -1.2166
  191DOPC  C21423596   4.683   7.437  13.622  0.3376 -0.4979  0.0242
  191DOPC  H14R23597   4.650   7.486  13.717  0.0445 -1.0886  0.2332
  191DOPC  H14S23598   4.664   7.520  13.551  1.9259  0.2768  0.4654
  191DOPC  C21523599   4.835   7.414  13.628 -0.6255 -0.5669 -0.6892
  191DOPC  H15R23600   4.860   7.362  13.534  1.1456 -1.0420 -0.0037
  191DOPC  H15S23601   4.863   7.346  13.712  1.5565  2.0770  0.9044
  191DOPC  C21623602   4.917   7.546  13.629  0.1929  0.2804 -0.5988
  191DOPC  H16R23603   4.980   7.556  13.720 -0.5933  0.1174 -0.0234
  191DOPC  H16S23604   4.847   7.632  13.614 -1.1028 -0.8710 -1.4657
  191DOPC  C21723605   5.004   7.554  13.506 -0.0166 -0.2653 -0.4621
  191DOPC  H17R23606   5.056   7.459  13.480 -1.7285 -0.6303 -2.9642
  191DOPC  H17S23607   5.070   7.643  13.509  0.0418 -0.2906 -0.9817
  191DOPC  C21823608   4.936   7.592  13.370 -0.5332 -0.4930  0.0970
  191DOPC  H18R23609   5.009   7.593  13.287  1.4680 -1.8456  1.7372
  191DOPC  H18S23610   4.886   7.690  13.388 -0.0850 -0.3406  0.5289
  191DOPC  H18T23611   4.861   7.516  13.338  0.5780 -1.1630 -0.9748
  191DOPC   C3323612   5.329   7.677  13.059 -0.3456  0.5615 -0.5546
  191DOPC   H3X23613   5.229   7.656  13.103  0.4821 -1.7711  0.3205
  191DOPC   H3Y23614   5.318   7.779  13.014 -2.1526  0.4958 -0.3307
  191DOPC   C3423615   5.419   7.702  13.181 -0.3146 -0.2831  0.9603
  191DOPC   H4X23616   5.408   7.808  13.212 -0.6847  1.0592 -3.0860
  191DOPC   H4Y23617   5.521   7.694  13.139  0.1589  0.4948  1.9336
  191DOPC   C3523618   5.406   7.603  13.294  0.1112  0.3485  0.2996
  191DOPC   H5X23619   5.465   7.514  13.264 -0.1152  0.7961 -1.6346
  191DOPC   H5Y23620   5.306   7.554  13.296  1.0110 -1.5655  1.2829
  191DOPC   C3623621   5.454   7.647  13.426 -0.2692  0.9321 -0.2737
  191DOPC   H6X23622   5.558   7.684  13.424 -0.2797  1.0726  1.1282
  191DOPC   H6Y23623   5.396   7.726  13.478  1.8151  2.2055  0.2425
  191DOPC   C3723624   5.463   7.528  13.525  0.4490  0.6395 -0.0503
  191DOPC   H7X23625   5.370   7.471  13.546  1.8025 -1.8754 -0.4351
  191DOPC   H7Y23626   5.522   7.443  13.483  0.3663  0.9029 -0.7156
  191DOPC   C3823627   5.533   7.561  13.661 -0.4136 -0.6803  0.1039
  191DOPC   H8X23628   5.633   7.600  13.633 -0.5599 -0.0497  0.4402
  191DOPC   H8Y23629   5.537   7.457  13.699 -0.9560 -1.1402 -1.0352
  191DOPC   C3923630   5.456   7.664  13.742  0.9180 -0.0842 -0.4748
  191DOPC   H9X23631   5.475   7.770  13.718 -0.4731  0.2756 -0.0414
  191DOPC  C31023632   5.375   7.633  13.850  0.0385  0.2446 -0.2339
  191DOPC  H10X23633   5.323   7.712  13.906  0.6655  0.5665 -0.0976
  191DOPC  C31123634   5.351   7.489  13.893 -0.2145  0.1733  0.0242
  191DOPC  H11X23635   5.398   7.474  13.993  0.0822 -0.2289 -0.1752
  191DOPC  H11Y23636   5.383   7.420  13.812  4.0971  1.8009  0.0597
  191DOPC  C31223637   5.200   7.461  13.921  0.4816  0.1936 -0.3966
  191DOPC  H12X23638   5.142   7.515  13.842 -0.6450  0.7815  0.7973
  191DOPC  H12Y23639   5.177   7.508  14.019  1.6214 -0.1523  0.0482
  191DOPC  C31323640   5.175   7.309  13.927 -0.3688  0.7403 -0.5995
  191DOPC  H13X23641   5.202   7.265  13.828  0.0774  1.9392 -1.0369
  191DOPC  H13Y23642   5.244   7.268  14.003  0.0953  0.9712 -0.8939
  191DOPC  C31423643   5.037   7.255  13.976  0.2689  0.7424  0.4315
  191DOPC  H14X23644   4.960   7.292  13.905 -1.2490 -0.6130  1.3280
  191DOPC  H14Y23645   5.038   7.144  13.976 -1.3532  0.5944 -3.0071
  191DOPC  C31523646   4.995   7.301  14.117  0.0270  0.2848  0.7089
  191DOPC  H15X23647   4.996   7.412  14.120  0.7930  0.3594 -0.9455
  191DOPC  H15Y23648   5.067   7.267  14.194  1.5102  1.2123 -0.2272
  191DOPC  C31623649   4.853   7.261  14.148 -0.1410  0.6682 -0.1986
  191DOPC  H16X23650   4.805   7.345  14.202  0.8969  0.6725  0.7662
  191DOPC  H16Y23651   4.799   7.237  14.055  1.3864 -1.1298 -0.6940
  191DOPC  C31723652   4.853   7.140  14.240 -0.5828  0.1368 -0.2090
  191DOPC  H17X23653   4.894   7.053  14.183 -2.6911 -0.5106 -0.8058
  191DOPC  H17Y23654   4.916   7.161  14.329  0.6245  0.2602 -1.0640
  191DOPC  C31823655   4.719   7.089  14.292 -0.0121 -0.2064 -0.2768
  191DOPC  H18X23656   4.662   7.172  14.338 -0.9122 -2.5322  3.1901
  191DOPC  H18Y23657   4.657   7.050  14.209  0.6413 -0.1510 -0.7933
  191DOPC  H18Z23658   4.722   7.004  14.364  0.9683 -1.1634 -1.4182
  192DOPC     N23659   1.041   4.977  12.380 -0.1976 -0.6737 -0.0861
  192DOPC   C1223660   0.910   5.047  12.407  0.1622  0.0836  0.4612
  192DOPC  H12A23661   0.924   5.135  12.467 -0.9259 -1.4533  3.1185
  192DOPC  H12B23662   0.851   4.974  12.459  0.5064 -0.9835 -0.5940
  192DOPC   C1323663   1.132   5.079  12.322 -0.2838  0.4748 -0.0655
  192DOPC  H13A23664   1.093   5.109  12.226  1.7808  1.8085 -0.5476
  192DOPC  H13B23665   1.152   5.162  12.387  1.9239 -0.1949  0.1807
  192DOPC  H13C23666   1.223   5.023  12.308 -0.8177 -0.3169 -0.4816
  192DOPC   C1423667   1.018   4.854  12.295 -0.0578  0.6268 -0.6182
  192DOPC  H14A23668   0.974   4.883  12.201  1.0563 -0.1227 -1.3944
  192DOPC  H14B23669   1.115   4.811  12.273 -0.6927 -1.1519 -0.1416
  192DOPC  H14C23670   0.976   4.782  12.364 -0.3415  1.8995  0.5861
  192DOPC   C1523671   1.102   4.937  12.509 -0.4185  0.0100 -0.4041
  192DOPC  H15A23672   1.143   5.016  12.570 -2.1436  0.5685  0.0696
  192DOPC  H15B23673   1.186   4.870  12.495  0.1682  0.6958 -0.2162
  192DOPC  H15C23674   1.045   4.877  12.578  0.4814  0.5564  0.8476
  192DOPC   C1123675   0.817   5.099  12.286 -0.8276  0.0575  0.7622
  192DOPC  H11A23676   0.745   5.175  12.322 -1.3965 -0.1721  0.1155
  192DOPC  H11B23677   0.888   5.158  12.225 -0.8456 -1.4029 -0.7620
  192DOPC     P23678   0.645   4.912  12.279 -0.3232  0.2847  0.1820
  192DOPC   O1323679   0.690   4.835  12.400 -0.2656  0.0414  0.1022
  192DOPC   O1423680   0.568   4.844  12.170 -0.7969  0.7755 -0.1691
  192DOPC   O1223681   0.756   4.998  12.209  0.0044  0.2100 -0.5621
  192DOPC   O1123682   0.554   5.029  12.338 -0.0206 -0.0479  0.1166
  192DOPC    C123683   0.429   4.982  12.387 -0.2026 -0.0149 -0.5106
  192DOPC    HA23684   0.450   4.895  12.452  0.4902  0.3214 -0.2745
  192DOPC    HB23685   0.362   4.960  12.300 -2.5199  1.2804  0.8607
  192DOPC    C223686   0.363   5.099  12.479  0.2491  0.2105  0.4861
  192DOPC    HS23687   0.363   5.191  12.418  0.4506 -0.4211 -0.4922
  192DOPC   O2123688   0.444   5.103  12.600  0.1067 -0.5719  0.7007
  192DOPC   C2123689   0.522   5.209  12.608 -0.2642 -0.2725 -0.1090
  192DOPC   O2223690   0.540   5.291  12.519 -0.2126 -0.7268  0.2913
  192DOPC   C2223691   0.583   5.231  12.752  0.6566 -0.5325  0.5034
  192DOPC   H2R23692   0.621   5.336  12.751 -0.1403 -0.2248 -1.3482
  192DOPC   H2S23693   0.669   5.162  12.766  0.6218 -0.2863  2.1642
  192DOPC    C323694   0.224   5.051  12.517  0.3201 -0.7959  0.3076
  192DOPC    HX23695   0.232   4.947  12.554 -0.8293 -1.3677 -0.9521
  192DOPC    HY23696   0.161   5.036  12.426 -0.7293  1.3441  0.6168
  192DOPC   O3123697   0.157   5.150  12.602  0.2976  0.0454  0.0436
  192DOPC   C3123698   0.044   5.103  12.638 -0.2434 -0.0316 -0.8153
  192DOPC   O3223699  -0.004   4.991  12.620  0.7199  0.6041 -0.2028
  192DOPC   C3223700  -0.027   5.212  12.715 -0.3613  0.5176 -0.1590
  192DOPC   H2X23701   0.037   5.295  12.753  0.4125 -0.6135  1.0717
  192DOPC   H2Y23702  -0.097   5.257  12.641 -1.6899 -2.2599 -0.7143
  192DOPC   C2323703   0.477   5.226  12.861  0.1223 -0.7858  0.1760
  192DOPC   H3R23704   0.425   5.130  12.841  0.5136 -0.8240 -0.6798
  192DOPC   H3S23705   0.401   5.303  12.839 -0.6883 -1.6262 -0.0395
  192DOPC   C2423706   0.532   5.231  13.002  0.3228  0.0375  0.2256
  192DOPC   H4R23707   0.586   5.326  13.024 -1.4399  0.9370  0.8695
  192DOPC   H4S23708   0.608   5.151  13.009  0.5891  0.1854 -0.8141
  192DOPC   C2523709   0.425   5.209  13.105 -0.1313  0.2143 -0.2414
  192DOPC   H5R23710   0.378   5.113  13.077 -1.0106  0.6879 -0.4334
  192DOPC   H5S23711   0.356   5.296  13.100  0.3449  0.6736  0.8028
  192DOPC   C2623712   0.486   5.195  13.247  0.1702  0.5052  0.0588
  192DOPC   H6R23713   0.576   5.132  13.256  0.8520  1.6047  1.3211
  192DOPC   H6S23714   0.412   5.131  13.301  1.1376 -1.7760 -1.2270
  192DOPC   C2723715   0.513   5.329  13.307 -0.5889 -0.1353  0.0849
  192DOPC   H7R23716   0.423   5.395  13.309 -2.9577 -3.1518 -0.0206
  192DOPC   H7S23717   0.593   5.376  13.245 -0.2430  0.3162  0.8630
  192DOPC   C2823718   0.583   5.330  13.451  0.0228  0.3731  0.4310
  192DOPC   H8R23719   0.645   5.421  13.464  1.6027 -0.4140 -1.1599
  192DOPC   H8S23720   0.662   5.253  13.452  0.8148  0.9161 -3.3472
  192DOPC   C2923721   0.486   5.315  13.564  0.5528  1.3374 -0.2241
  192DOPC   H9R23722   0.443   5.213  13.556  0.5719  1.2972  0.1454
  192DOPC  C21023723   0.432   5.406  13.649 -0.1484 -0.4821  0.0052
  192DOPC  H10R23724   0.364   5.379  13.731 -0.6391  0.1809 -0.1703
  192DOPC  C21123725   0.454   5.552  13.635 -0.0672  0.1436 -0.7297
  192DOPC  H11R23726   0.495   5.592  13.540  0.7123 -0.5949 -0.7101
  192DOPC  H11S23727   0.523   5.581  13.718 -2.7781  0.4418  1.5953
  192DOPC  C21223728   0.320   5.629  13.648  0.3860 -0.2299 -0.5638
  192DOPC  H12R23729   0.243   5.603  13.573 -2.3735  0.2097  1.9159
  192DOPC  H12S23730   0.345   5.736  13.632 -0.7479  0.2581  0.7211
  192DOPC  C21323731   0.252   5.605  13.786  0.0609  0.2965 -0.8759
  192DOPC  H13R23732   0.336   5.572  13.850 -1.5802 -2.9946 -0.1945
  192DOPC  H13S23733   0.179   5.522  13.775  0.4796 -0.1745 -0.1336
  192DOPC  C21423734   0.186   5.737  13.848 -0.3017  0.0471 -0.6074
  192DOPC  H14R23735   0.084   5.755  13.806 -1.1259 -0.1858  1.1740
  192DOPC  H14S23736   0.243   5.827  13.817 -0.6458  0.8719  1.0283
  192DOPC  C21523737   0.168   5.726  13.997 -0.0035  0.4506  0.1383
  192DOPC  H15R23738   0.262   5.705  14.052 -1.1410 -0.1807  1.9119
  192DOPC  H15S23739   0.106   5.640  14.029  1.1241  0.8006  3.6995
  192DOPC  C21623740   0.109   5.852  14.064 -0.0785 -0.0199  0.5518
  192DOPC  H16R23741   0.005   5.859  14.026  0.1580  0.7265  0.0190
  192DOPC  H16S23742   0.159   5.950  14.047 -1.0633  0.4636  0.3594
  192DOPC  C21723743   0.095   5.844  14.214  0.2047  0.0902 -0.0776
  192DOPC  H17R23744   0.053   5.746  14.245  1.9524 -0.6097  0.1787
  192DOPC  H17S23745   0.023   5.924  14.241  0.1459  0.3226 -0.8882
  192DOPC  C21823746   0.237   5.858  14.290  1.1475  0.1876  0.1817
  192DOPC  H18R23747   0.300   5.767  14.283 -0.1879 -0.8258  0.8480
  192DOPC  H18S23748   0.213   5.875  14.397  0.6401 -2.2001  0.5124
  192DOPC  H18T23749   0.289   5.946  14.248  0.5117 -0.8528 -3.0942
  192DOPC   C3323750  -0.116   5.156  12.831 -0.3632 -0.2373 -0.0089
  192DOPC   H3X23751  -0.168   5.064  12.796 -0.1993  0.0954 -1.1675
  192DOPC   H3Y23752  -0.191   5.238  12.838  0.5266  0.7359 -1.3996
  192DOPC   C3423753  -0.044   5.140  12.964  0.1415 -0.1100  0.4319
  192DOPC   H4X23754  -0.015   5.241  13.002 -0.7600 -0.5508  2.4193
  192DOPC   H4Y23755   0.043   5.075  12.941 -0.5882  0.0989 -3.7018
  192DOPC   C3523756  -0.121   5.065  13.073 -0.4007 -0.1800  0.5149
  192DOPC   H5X23757  -0.168   4.981  13.018  2.1197 -0.0826 -2.0037
  192DOPC   H5Y23758  -0.185   5.140  13.124 -2.0809  0.1697 -1.9635
  192DOPC   C3623759  -0.019   5.012  13.170  0.1860  0.8422 -0.1855
  192DOPC   H6X23760  -0.072   4.940  13.237  1.3543 -1.5766 -1.7046
  192DOPC   H6Y23761   0.048   4.940  13.119  0.8970  2.0226 -0.9517
  192DOPC   C3723762   0.041   5.124  13.251  0.7388 -0.1118  0.4242
  192DOPC   H7X23763   0.106   5.180  13.181 -0.6214  1.2030  0.1529
  192DOPC   H7Y23764  -0.037   5.198  13.279 -2.2636 -2.3899 -1.2551
  192DOPC   C3823765   0.116   5.081  13.381  0.8242  0.1577  0.0289
  192DOPC   H8X23766   0.165   5.168  13.430  3.4992 -2.4525  2.3752
  192DOPC   H8Y23767   0.201   5.013  13.360  2.0620  1.1126  1.7182
  192DOPC   C3923768   0.014   5.019  13.476 -0.1509  0.0564  0.0595
  192DOPC   H9X23769  -0.026   4.920  13.447 -1.3179  0.2520  0.9452
  192DOPC  C31023770  -0.048   5.096  13.574  0.1004  0.3375 -0.2798
  192DOPC  H10X23771  -0.120   5.041  13.636 -2.4466  2.0490 -1.5023
  192DOPC  C31123772  -0.018   5.228  13.621  0.3868 -0.5874  0.7718
  192DOPC  H11X23773  -0.109   5.290  13.616  0.5141 -0.4833 -0.6068
  192DOPC  H11Y23774   0.059   5.282  13.562 -0.0786  0.3198  0.9811
  192DOPC  C31223775   0.013   5.244  13.772 -0.2841 -0.6458 -0.1477
  192DOPC  H12X23776  -0.067   5.214  13.843 -1.9246  3.6516  0.1227
  192DOPC  H12Y23777   0.022   5.353  13.794  1.1089 -0.8645  0.4779
  192DOPC  C31323778   0.145   5.176  13.821  0.4102  0.3889  0.1362
  192DOPC  H13X23779   0.135   5.068  13.797 -0.2383  0.1797  1.2456
  192DOPC  H13Y23780   0.240   5.213  13.778  2.1883 -1.5855  2.0902
  192DOPC  C31423781   0.168   5.200  13.970  0.1493  0.2474  0.0468
  192DOPC  H14X23782   0.276   5.180  13.988  0.4410  1.1282 -0.6259
  192DOPC  H14Y23783   0.160   5.309  13.986 -1.3895  0.4189 -1.6351
  192DOPC  C31523784   0.073   5.116  14.058 -0.4501 -0.9067 -0.7042
  192DOPC  H15X23785   0.098   5.011  14.033 -3.0479 -1.3768 -1.6668
  192DOPC  H15Y23786  -0.033   5.146  14.047 -0.8229 -0.7828  2.3194
  192DOPC  C31623787   0.088   5.140  14.213 -0.1898 -0.0166  1.1871
  192DOPC  H16X23788   0.028   5.061  14.262  1.9425 -2.5286 -0.0282
  192DOPC  H16Y23789   0.194   5.121  14.241 -0.0687  2.1334  2.4340
  192DOPC  C31723790   0.042   5.280  14.265 -0.4064 -0.3048  0.7489
  192DOPC  H17X23791  -0.045   5.310  14.203 -0.0431 -0.5942  0.0822
  192DOPC  H17Y23792  -0.001   5.265  14.366 -1.2565 -0.8239  0.3139
  192DOPC  C31823793   0.144   5.388  14.282  0.2468 -0.2094  0.5226
  192DOPC  H18X23794   0.189   5.435  14.192  1.2128  1.9589  2.0703
  192DOPC  H18Y23795   0.092   5.470  14.336  1.0939 -0.4048  1.6602
  192DOPC  H18Z23796   0.218   5.347  14.353 -0.1155 -0.4988  0.7397
  193DOPC     N23797   7.236   1.550  11.949 -0.0477 -0.4346 -0.2751
  193DOPC   C1223798   7.357   1.470  11.908 -0.3736 -0.4024  0.2313
  193DOPC  H12A23799   7.446   1.522  11.939 -0.6852 -0.3182  1.0095
  193DOPC  H12B23800   7.368   1.470  11.800 -1.4002  1.0915  0.1019
  193DOPC   C1323801   7.228   1.571  12.101  0.3511  0.5723 -0.1300
  193DOPC  H13A23802   7.233   1.478  12.157 -0.1098  1.3932  1.3456
  193DOPC  H13B23803   7.309   1.633  12.134 -0.5147  1.5978  0.1345
  193DOPC  H13C23804   7.131   1.610  12.130  0.8256  1.1383  0.7313
  193DOPC   C1423805   7.110   1.482  11.904  0.1512 -0.9419  0.1103
  193DOPC  H14A23806   7.023   1.532  11.944  1.2034  0.5207  0.7054
  193DOPC  H14B23807   7.109   1.479  11.796 -0.2371  0.9174  0.0334
  193DOPC  H14C23808   7.108   1.384  11.948 -1.9931 -1.3755 -0.8572
  193DOPC   C1523809   7.241   1.688  11.895 -0.2352 -0.0260  0.4319
  193DOPC  H15A23810   7.144   1.733  11.909 -1.1967 -2.3115  1.8886
  193DOPC  H15B23811   7.266   1.689  11.790  0.9782  0.4641  0.7087
  193DOPC  H15C23812   7.318   1.740  11.951 -0.2713  2.0086 -1.3122
  193DOPC   C1123813   7.360   1.318  11.950  0.2465 -0.5515 -0.4168
  193DOPC  H11A23814   7.291   1.261  11.884  0.6939 -0.2495 -1.1625
  193DOPC  H11B23815   7.456   1.277  11.913  0.9196 -0.4130  1.1269
  193DOPC     P23816   7.344   1.166  12.146 -0.2362 -0.1160  0.0733
  193DOPC   O1323817   7.300   1.063  12.051  0.1349 -0.9607 -0.0518
  193DOPC   O1423818   7.276   1.164  12.272 -0.3651 -0.1372  0.0038
  193DOPC   O1223819   7.341   1.313  12.089  0.4248  0.1125  0.0599
  193DOPC   O1123820   7.503   1.140  12.169  0.3967  0.1514 -0.1261
  193DOPC    C123821   7.597   1.245  12.174  0.2020  0.1686 -0.2488
  193DOPC    HA23822   7.562   1.338  12.125 -0.6126 -1.0194 -2.0211
  193DOPC    HB23823   7.687   1.213  12.117 -0.2472 -0.9927 -0.3248
  193DOPC    C223824   7.634   1.286  12.325 -0.5476 -0.0716  0.1762
  193DOPC    HS23825   7.727   1.235  12.358  0.9682  0.3366 -3.1024
  193DOPC   O2123826   7.529   1.265  12.420 -0.3618 -0.2405 -0.0349
  193DOPC   C2123827   7.539   1.152  12.486  0.2663 -0.5421 -0.3848
  193DOPC   O2223828   7.621   1.065  12.463 -0.5472  0.3858  0.3082
  193DOPC   C2223829   7.423   1.142  12.584  0.5496  0.3254  0.4681
  193DOPC   H2R23830   7.354   1.066  12.542 -0.0382 -0.3488  2.5316
  193DOPC   H2S23831   7.360   1.234  12.580  2.0676  1.4060  0.4584
  193DOPC    C323832   7.679   1.438  12.332 -0.6696  0.5951 -0.2823
  193DOPC    HX23833   7.592   1.500  12.300 -1.4541 -0.2640  0.1481
  193DOPC    HY23834   7.759   1.437  12.254  1.4203 -0.3422  1.7521
  193DOPC   O3123835   7.720   1.475  12.465  0.2245  1.0333  0.2104
  193DOPC   C3123836   7.630   1.533  12.551  0.2559  0.5990  0.1697
  193DOPC   O3223837   7.518   1.570  12.513  0.2455  0.5153  0.1719
  193DOPC   C3223838   7.684   1.556  12.692 -0.2253 -0.6272  0.4364
  193DOPC   H2X23839   7.648   1.478  12.762  0.7648  0.0530  1.7501
  193DOPC   H2Y23840   7.794   1.563  12.680 -0.3165  1.8112  0.4944
  193DOPC   C2323841   7.457   1.104  12.722 -0.3157 -0.0739  0.0382
  193DOPC   H3R23842   7.521   1.013  12.727 -0.6438 -0.2801  0.8296
  193DOPC   H3S23843   7.368   1.073  12.782 -0.4440 -0.3893 -0.3126
  193DOPC   C2423844   7.537   1.220  12.793 -0.1315  0.1444  0.2077
  193DOPC   H4R23845   7.480   1.315  12.781 -2.1540 -1.0742 -0.3486
  193DOPC   H4S23846   7.631   1.240  12.739 -0.5954 -0.9252 -1.0439
  193DOPC   C2523847   7.571   1.196  12.946  0.0338  0.7053 -0.8275
  193DOPC   H5R23848   7.673   1.153  12.959 -0.6865 -1.5231 -1.9152
  193DOPC   H5S23849   7.493   1.132  12.993 -0.3958  1.2921 -0.7369
  193DOPC   C2623850   7.590   1.324  13.033  0.2440 -0.3676  0.5686
  193DOPC   H6R23851   7.492   1.375  13.031  0.1062 -0.6421 -1.2902
  193DOPC   H6S23852   7.668   1.380  12.976 -0.7462 -0.8093 -1.2836
  193DOPC   C2723853   7.636   1.297  13.176  0.0155  0.1084  0.0294
  193DOPC   H7R23854   7.731   1.242  13.163 -0.9049 -1.8917  1.2420
  193DOPC   H7S23855   7.552   1.232  13.212  0.7984  0.5130  2.8292
  193DOPC   C2823856   7.626   1.422  13.271 -0.1399 -0.5870 -0.4067
  193DOPC   H8R23857   7.620   1.388  13.376  0.8821 -1.3025 -0.5652
  193DOPC   H8S23858   7.527   1.465  13.245  1.0978  1.6014 -1.8830
  193DOPC   C2923859   7.729   1.529  13.247  0.0543 -0.7235 -0.0593
  193DOPC   H9R23860   7.714   1.596  13.161  0.9391  0.7214  0.8798
  193DOPC  C21023861   7.838   1.557  13.319  0.6385  0.0138  1.4091
  193DOPC  H10R23862   7.911   1.628  13.277  1.9567 -1.7774  0.5307
  193DOPC  C21123863   7.878   1.495  13.449  0.5173 -0.3721 -0.0300
  193DOPC  H11R23864   7.970   1.436  13.431  0.3294 -0.7014  0.0708
  193DOPC  H11S23865   7.805   1.421  13.490 -1.5588  1.7013  0.2172
  193DOPC  C21223866   7.920   1.601  13.552  0.2381 -0.7799  0.3786
  193DOPC  H12R23867   7.832   1.649  13.600  2.6810  2.5012  1.9205
  193DOPC  H12S23868   7.986   1.673  13.501  0.4741 -0.2864  1.3606
  193DOPC  C21323869   7.994   1.531  13.661  0.8683  0.9004  0.0155
  193DOPC  H13R23870   8.093   1.579  13.678  1.1384 -0.2261  1.9203
  193DOPC  H13S23871   8.008   1.425  13.632  0.5980  0.5731  1.0433
  193DOPC  C21423872   7.913   1.538  13.798  0.4695  0.3255 -0.3504
  193DOPC  H14R23873   7.810   1.508  13.768  1.0910 -0.3391 -1.9473
  193DOPC  H14S23874   7.929   1.640  13.840  3.4732 -0.8166  1.6167
  193DOPC  C21523875   7.966   1.446  13.899  0.0197 -0.3136  0.2234
  193DOPC  H15R23876   8.075   1.464  13.910 -0.1703  0.5867  0.6972
  193DOPC  H15S23877   7.954   1.343  13.858 -1.9928 -0.1125  0.2171
  193DOPC  C21623878   7.881   1.466  14.022  0.0693  0.0374  0.0677
  193DOPC  H16R23879   7.879   1.376  14.087 -0.5221  0.5694  0.7994
  193DOPC  H16S23880   7.775   1.482  13.994  0.3292  1.2616 -0.2613
  193DOPC  C21723881   7.929   1.580  14.127 -0.6010 -0.6150  0.3614
  193DOPC  H17R23882   7.850   1.583  14.205  0.3633 -1.6468  1.4067
  193DOPC  H17S23883   7.943   1.677  14.073  0.1215 -0.4912  0.7566
  193DOPC  C21823884   8.066   1.548  14.187 -0.4472 -0.2709  0.5951
  193DOPC  H18R23885   8.074   1.439  14.207 -1.3141 -0.6865 -1.1445
  193DOPC  H18S23886   8.085   1.603  14.282 -1.5830  0.4894  0.4019
  193DOPC  H18T23887   8.150   1.575  14.119 -0.1401  0.8547  1.3861
  193DOPC   C3323888   7.634   1.688  12.750  0.5414 -0.0224  0.1562
  193DOPC   H3X23889   7.528   1.684  12.784  1.0441 -0.4668  1.7594
  193DOPC   H3Y23890   7.649   1.770  12.677  0.6988  2.6830  3.0299
  193DOPC   C3423891   7.715   1.729  12.877  0.0676 -0.5382  0.3527
  193DOPC   H4X23892   7.821   1.732  12.844 -0.7600  1.4729 -2.4726
  193DOPC   H4Y23893   7.697   1.654  12.958 -1.7973 -1.4161 -0.8042
  193DOPC   C3523894   7.679   1.872  12.923  0.8020 -0.3684 -0.0584
  193DOPC   H5X23895   7.570   1.889  12.912  0.3216 -0.6363  3.1822
  193DOPC   H5Y23896   7.726   1.940  12.849  1.0259 -0.3139  0.1324
  193DOPC   C3623897   7.718   1.908  13.067  0.3058 -1.0535 -0.2217
  193DOPC   H6X23898   7.689   2.013  13.087  1.5394 -0.8361  0.4833
  193DOPC   H6Y23899   7.661   1.848  13.141  2.1833 -0.6760  1.6034
  193DOPC   C3723900   7.865   1.900  13.105 -0.1123  0.2762 -0.8312
  193DOPC   H7X23901   7.899   1.795  13.099 -0.5217  0.0947 -0.1510
  193DOPC   H7Y23902   7.934   1.958  13.040 -0.6231  1.0435 -0.7063
  193DOPC   C3823903   7.887   1.932  13.255  0.1861  0.2637 -0.4388
  193DOPC   H8X23904   7.831   1.854  13.312 -0.1238  1.2846  0.7100
  193DOPC   H8Y23905   7.839   2.028  13.285  0.6903  0.1708  0.7247
  193DOPC   C3923906   8.032   1.938  13.288 -0.8773  0.0951 -0.0453
  193DOPC   H9X23907   8.103   1.922  13.205 -1.2963 -1.0335 -0.2118
  193DOPC  C31023908   8.083   1.958  13.407 -0.7474 -0.6122  0.3107
  193DOPC  H10X23909   8.193   1.961  13.414 -0.6425 -2.0354 -0.2645
  193DOPC  C31123910   8.006   1.971  13.539  0.8299 -0.4651  0.0657
  193DOPC  H11X23911   7.913   1.911  13.539 -1.7443  3.0830 -1.9772
  193DOPC  H11Y23912   7.975   2.078  13.545  1.2915 -0.2960 -0.4379
  193DOPC  C31223913   8.094   1.947  13.667  0.2933  0.0342 -0.0869
  193DOPC  H12X23914   8.178   2.017  13.688  0.0586  0.2083  0.2947
  193DOPC  H12Y23915   8.143   1.851  13.641 -0.0006 -0.4160  0.9704
  193DOPC  C31323916   8.017   1.938  13.797  0.4417  0.2995 -0.3335
  193DOPC  H13X23917   7.981   2.035  13.837 -2.3981 -0.5822 -0.5206
  193DOPC  H13Y23918   7.931   1.868  13.788 -0.1525  1.0240 -0.3940
  193DOPC  C31423919   8.100   1.883  13.912 -0.1485  0.6457 -0.0477
  193DOPC  H14X23920   8.021   1.858  13.986 -0.4835 -1.2796 -0.9838
  193DOPC  H14Y23921   8.142   1.792  13.864 -2.8939 -0.1132 -1.2610
  193DOPC  C31523922   8.205   1.980  13.963  0.1544  0.7334 -0.1596
  193DOPC  H15X23923   8.155   2.070  14.005 -0.2404  0.5557 -0.2474
  193DOPC  H15Y23924   8.272   2.001  13.877 -0.1112  1.1046 -0.2751
  193DOPC  C31623925   8.281   1.928  14.087 -0.1089  0.7005 -0.5721
  193DOPC  H16X23926   8.297   1.820  14.068 -0.4983  0.8228 -1.6791
  193DOPC  H16Y23927   8.377   1.982  14.101  0.6613 -0.8964  0.7201
  193DOPC  C31723928   8.222   1.954  14.221  1.3335 -0.4955 -0.3584
  193DOPC  H17X23929   8.211   2.064  14.233 -0.2376 -0.8579  2.4825
  193DOPC  H17Y23930   8.115   1.926  14.233  1.5758 -0.8091  1.3560
  193DOPC  C31823931   8.283   1.888  14.343 -0.1221 -0.1845  0.2750
  193DOPC  H18X23932   8.392   1.896  14.327 -0.5291  2.8657 -1.6704
  193DOPC  H18Y23933   8.251   1.932  14.440 -1.6526  1.0008 -0.7159
  193DOPC  H18Z23934   8.264   1.778  14.348  0.1407 -0.1978  1.1451
  194DOPC     N23935   1.958   7.566  12.576 -0.1653  0.5550  0.6523
  194DOPC   C1223936   1.837   7.478  12.616 -0.5764 -0.8578  0.0640
  194DOPC  H12A23937   1.822   7.396  12.547  1.0468  0.1381 -1.5752
  194DOPC  H12B23938   1.755   7.549  12.611  0.4243  0.3080 -0.3222
  194DOPC   C1323939   2.076   7.470  12.563 -0.5016 -0.9348  1.1513
  194DOPC  H13A23940   2.061   7.406  12.478  1.6707  0.6305 -0.5171
  194DOPC  H13B23941   2.166   7.521  12.534 -0.8303 -0.3334  1.1751
  194DOPC  H13C23942   2.099   7.413  12.652  1.0284  1.6580  2.5371
  194DOPC   C1423943   1.980   7.668  12.675 -0.5422 -0.2799 -0.1827
  194DOPC  H14A23944   2.063   7.732  12.649  0.0254 -0.5928  0.7865
  194DOPC  H14B23945   1.888   7.720  12.695  0.2897  1.1425  0.0289
  194DOPC  H14C23946   2.019   7.616  12.762  0.8179 -0.7648 -1.0414
  194DOPC   C1523947   1.929   7.620  12.442 -0.4661 -0.4284  0.3576
  194DOPC  H15A23948   2.015   7.673  12.403  0.4746 -1.1678  1.3909
  194DOPC  H15B23949   1.864   7.706  12.446  0.4040  0.3210 -0.8725
  194DOPC  H15C23950   1.895   7.549  12.368  0.1829 -0.9386  0.5463
  194DOPC   C1123951   1.844   7.404  12.753 -0.3222 -0.3346  0.1070
  194DOPC  H11A23952   1.918   7.450  12.823  0.8012 -5.0566  2.3929
  194DOPC  H11B23953   1.746   7.408  12.805  0.1859 -1.4652  1.1998
  194DOPC     P23954   2.009   7.201  12.808 -0.1531 -0.2165 -0.1714
  194DOPC   O1323955   2.122   7.302  12.808 -0.1408  0.1591 -0.4408
  194DOPC   O1423956   2.032   7.066  12.748 -0.4024 -0.1498 -0.8072
  194DOPC   O1223957   1.886   7.272  12.736 -0.2090  0.3484  0.2178
  194DOPC   O1123958   1.960   7.183  12.957  0.4102  0.6752 -0.3996
  194DOPC    C123959   2.013   7.254  13.066  0.1235  0.0950 -0.9234
  194DOPC    HA23960   2.114   7.298  13.054  0.2998  0.7237  2.0515
  194DOPC    HB23961   2.026   7.190  13.156 -1.1174 -0.4128 -1.0840
  194DOPC    C223962   1.921   7.357  13.108 -0.5320 -0.0752  0.0254
  194DOPC    HS23963   1.939   7.444  13.041 -1.7659 -0.4574 -0.8263
  194DOPC   O2123964   1.958   7.393  13.244  0.0177  0.0220 -0.6981
  194DOPC   C2123965   2.061   7.468  13.262 -0.0496 -0.3937 -0.0677
  194DOPC   O2223966   2.116   7.540  13.183 -0.0417  0.9032  0.5183
  194DOPC   C2223967   2.116   7.454  13.411 -1.0100 -0.1780 -0.4025
  194DOPC   H2R23968   2.126   7.550  13.466  0.1457 -2.0182  2.8142
  194DOPC   H2S23969   2.214   7.402  13.406 -0.3907  1.0198 -1.3125
  194DOPC    C323970   1.770   7.314  13.103  0.1809  0.3159  0.2084
  194DOPC    HX23971   1.743   7.222  13.158 -0.7613  0.6477  0.3175
  194DOPC    HY23972   1.729   7.300  13.000  0.8092 -2.6457  0.2682
  194DOPC   O3123973   1.695   7.417  13.178  0.7014  0.2827  0.0249
  194DOPC   C3123974   1.574   7.381  13.188 -0.4019 -0.1805  0.0765
  194DOPC   O3223975   1.523   7.277  13.152 -0.2756  0.3123 -0.0796
  194DOPC   C3223976   1.496   7.494  13.256  0.4225  0.7387 -0.7721
  194DOPC   H2X23977   1.549   7.533  13.345 -2.3083 -1.2439  1.9423
  194DOPC   H2Y23978   1.485   7.589  13.199  0.9792  0.8554 -0.6914
  194DOPC   C2323979   2.032   7.358  13.504  0.2649 -0.1664  0.2673
  194DOPC   H3R23980   2.046   7.251  13.481 -0.3280 -0.2454  0.2531
  194DOPC   H3S23981   1.922   7.374  13.492  0.1975 -0.4781  0.4604
  194DOPC   C2423982   2.079   7.373  13.649  0.2279  0.5084 -0.0261
  194DOPC   H4R23983   2.018   7.312  13.719  0.9049 -0.2173 -0.0496
  194DOPC   H4S23984   2.060   7.479  13.675  0.1822  0.8691 -1.4315
  194DOPC   C2523985   2.222   7.319  13.675 -0.9618  0.1757  0.6657
  194DOPC   H5R23986   2.295   7.376  13.613 -0.7853 -0.0302  0.6838
  194DOPC   H5S23987   2.223   7.220  13.624  1.5600  0.0973  0.7543
  194DOPC   C2623988   2.258   7.318  13.823 -0.0813  0.2611 -0.4872
  194DOPC   H6R23989   2.191   7.251  13.881  2.3162 -1.5875  0.3614
  194DOPC   H6S23990   2.265   7.422  13.860  0.9330  0.7749 -2.0133
  194DOPC   C2723991   2.395   7.238  13.845 -0.3303 -0.9685 -0.2728
  194DOPC   H7R23992   2.477   7.288  13.788 -0.2846 -0.1876  0.4524
  194DOPC   H7S23993   2.388   7.137  13.800  3.9210 -1.4877 -0.1588
  194DOPC   C2823994   2.434   7.245  13.994  0.0360  0.1952  0.0567
  194DOPC   H8R23995   2.351   7.203  14.055  0.4824  3.5756  3.3999
  194DOPC   H8S23996   2.450   7.351  14.024 -2.0944  1.2493 -2.1971
  194DOPC   C2923997   2.562   7.170  14.020  0.6982 -0.0904  0.6035
  194DOPC   H9R23998   2.627   7.151  13.933  1.1398  0.7386  0.7502
  194DOPC  C21023999   2.597   7.130  14.143 -0.2346 -0.4819  0.4383
  194DOPC  H10R24000   2.698   7.087  14.148  0.7025  1.6337  1.1588
  194DOPC  C21124001   2.525   7.152  14.280 -0.8827  0.4061 -0.1212
  194DOPC  H11R24002   2.484   7.052  14.306  0.4817 -0.1701 -0.0914
  194DOPC  H11S24003   2.427   7.204  14.281 -1.1429 -0.0715  0.3858
  194DOPC  C21224004   2.595   7.206  14.411 -0.7362  1.0763  0.4698
  194DOPC  H12R24005   2.700   7.171  14.410 -0.5700  1.5668  0.5714
  194DOPC  H12S24006   2.532   7.172  14.495  0.0162 -1.2102  0.1695
  194DOPC  C21324007   2.593   7.355  14.403  0.0059 -0.3087  0.2941
  194DOPC  H13R24008   2.490   7.396  14.396 -0.3983 -1.0271  1.6921
  194DOPC  H13S24009   2.648   7.392  14.314  1.0081 -0.7099  0.7307
  194DOPC  C21424010   2.651   7.427  14.529 -0.3840 -0.1666 -0.1304
  194DOPC  H14R24011   2.592   7.389  14.615  1.2766 -1.6868  0.3969
  194DOPC  H14S24012   2.654   7.536  14.507 -0.6355 -0.3200 -0.9901
  194DOPC  C21524013   2.793   7.386  14.557  0.1103 -0.0858  0.2161
  194DOPC  H15R24014   2.840   7.383  14.457 -1.1971  0.0321 -0.4251
  194DOPC  H15S24015   2.799   7.279  14.589  1.1560  0.3787  1.6940
  194DOPC  C21624016   2.868   7.478  14.653 -0.0327  0.5961 -0.0641
  194DOPC  H16R24017   2.806   7.564  14.686  0.4411  0.0875  2.2889
  194DOPC  H16S24018   2.962   7.507  14.601  0.4715 -1.5065 -0.4226
  194DOPC  C21724019   2.902   7.410  14.782 -0.6963  0.5455 -0.9459
  194DOPC  H17R24020   2.960   7.474  14.852 -2.9566 -0.5995  2.2125
  194DOPC  H17S24021   2.976   7.328  14.772  0.2926  0.9139  2.3173
  194DOPC  C21824022   2.795   7.349  14.872  0.3035 -0.0824 -0.0142
  194DOPC  H18R24023   2.703   7.411  14.875  0.4786  0.1575  0.6805
  194DOPC  H18S24024   2.833   7.333  14.976 -1.1724  0.0234  0.5570
  194DOPC  H18T24025   2.762   7.254  14.827  2.0596 -1.2054  0.9250
  194DOPC   C3324026   1.355   7.455  13.294  0.0922 -0.6802  0.4440
  194DOPC   H3X24027   1.314   7.414  13.199  0.1803  0.2592 -0.0086
  194DOPC   H3Y24028   1.290   7.539  13.324 -0.3645 -0.9902  0.3290
  194DOPC   C3424029   1.354   7.360  13.420  0.3082  0.2293  1.0631
  194DOPC   H4X24030   1.419   7.396  13.502  1.0588 -2.3995  1.7301
  194DOPC   H4Y24031   1.399   7.265  13.383  1.8158  1.5993 -0.8251
  194DOPC   C3524032   1.221   7.328  13.486 -0.4068  0.3814  0.4890
  194DOPC   H5X24033   1.146   7.285  13.416  0.7351  1.2187 -1.3219
  194DOPC   H5Y24034   1.182   7.424  13.526 -1.2183  0.7427 -1.0802
  194DOPC   C3624035   1.250   7.222  13.591  0.1284 -0.1779 -0.2463
  194DOPC   H6X24036   1.315   7.143  13.548  1.0399  0.8948 -0.8833
  194DOPC   H6Y24037   1.301   7.269  13.678 -1.5858  1.7564 -0.2170
  194DOPC   C3724038   1.121   7.148  13.624  0.5445  0.0808  0.3841
  194DOPC   H7X24039   1.084   7.111  13.526  0.0832  1.1931  0.1146
  194DOPC   H7Y24040   1.120   7.056  13.686 -1.1409 -0.4680 -0.4110
  194DOPC   C3824041   1.011   7.250  13.676 -0.4040  0.3006  0.0476
  194DOPC   H8X24042   0.914   7.197  13.680  0.1970 -0.8472 -0.2328
  194DOPC   H8Y24043   1.009   7.332  13.600  1.4445  0.1690 -0.1908
  194DOPC   C3924044   1.038   7.312  13.811  0.8206 -1.0922  0.1184
  194DOPC   H9X24045   1.017   7.420  13.818 -1.0577 -1.4091 -0.0877
  194DOPC  C31024046   1.049   7.248  13.932  0.1824 -0.4388  0.2355
  194DOPC  H10X24047   1.049   7.313  14.020  2.6370 -0.4274  0.2975
  194DOPC  C31124048   1.032   7.104  13.958  0.0278 -0.0255  0.5670
  194DOPC  H11X24049   1.098   7.031  13.905  0.9805 -0.3071  2.0751
  194DOPC  H11Y24050   0.932   7.088  13.913  0.3438  0.4429 -0.3314
  194DOPC  C31224051   1.036   7.056  14.104 -0.8626 -0.2163 -0.3402
  194DOPC  H12X24052   0.962   7.120  14.157  2.2213  3.3737  0.0421
  194DOPC  H12Y24053   1.134   7.072  14.154 -1.3249 -0.1703  0.5634
  194DOPC  C31324054   0.984   6.912  14.116 -0.4946  0.5556  0.0418
  194DOPC  H13X24055   0.921   6.901  14.025  0.4348  0.8559 -0.6399
  194DOPC  H13Y24056   1.071   6.844  14.100 -1.2048  0.1650 -2.7302
  194DOPC  C31424057   0.910   6.881  14.244 -0.0158  0.2223  0.1369
  194DOPC  H14X24058   0.977   6.863  14.331 -0.7601 -2.1156  0.3102
  194DOPC  H14Y24059   0.843   6.968  14.255 -0.4403  0.0200 -0.8052
  194DOPC  C31524060   0.839   6.750  14.231 -0.5078 -0.0768 -0.2186
  194DOPC  H15X24061   0.908   6.668  14.203 -1.9068 -1.7728  1.0286
  194DOPC  H15Y24062   0.763   6.758  14.150 -0.3992  1.2363 -0.2064
  194DOPC  C31624063   0.745   6.709  14.350  0.1881  0.7701 -0.6085
  194DOPC  H16X24064   0.799   6.706  14.447  0.6890  0.9747 -0.8752
  194DOPC  H16Y24065   0.669   6.788  14.371  0.2052  0.6978 -0.2609
  194DOPC  C31724066   0.668   6.577  14.332  0.2093 -0.3247  0.2308
  194DOPC  H17X24067   0.610   6.575  14.237  0.5655 -2.9259 -0.0055
  194DOPC  H17Y24068   0.737   6.490  14.324 -0.1293 -0.5968  0.2081
  194DOPC  C31824069   0.570   6.547  14.444 -0.2663 -0.0354  0.4209
  194DOPC  H18X24070   0.504   6.459  14.425 -0.5427  0.4272 -0.8557
  194DOPC  H18Y24071   0.625   6.536  14.540 -0.5412 -0.1822  0.5611
  194DOPC  H18Z24072   0.498   6.630  14.461  0.7427  0.5380  2.2421
  195DOPC     N24073   4.964   7.592  12.119 -0.1999 -0.4740  0.1418
  195DOPC   C1224074   5.090   7.674  12.114 -0.4872  0.1809  0.0079
  195DOPC  H12A24075   5.130   7.659  12.213 -4.7551 -2.1282  1.6921
  195DOPC  H12B24076   5.069   7.779  12.099  2.1774  0.7563 -0.0544
  195DOPC   C1324077   4.881   7.604  12.000 -0.3326 -0.0840 -0.0048
  195DOPC  H13A24078   4.785   7.561  12.023 -0.1719 -0.4992 -0.0999
  195DOPC  H13B24079   4.863   7.704  11.964  0.8733 -0.6713 -2.4899
  195DOPC  H13C24080   4.924   7.554  11.914 -1.9633 -0.4240 -0.6660
  195DOPC   C1424081   4.890   7.641  12.240 -0.3036 -0.3443  1.2173
  195DOPC  H14A24082   4.956   7.631  12.324 -0.2899 -1.3477  1.0954
  195DOPC  H14B24083   4.859   7.743  12.220 -1.4160 -0.8756  0.0570
  195DOPC  H14C24084   4.795   7.599  12.269 -1.1571  0.2533 -0.5140
  195DOPC   C1524085   4.993   7.447  12.137  0.1959 -0.3107 -0.8052
  195DOPC  H15A24086   5.070   7.418  12.067  2.0959  1.9192  0.1986
  195DOPC  H15B24087   4.907   7.383  12.139  0.4966 -0.7098  0.2926
  195DOPC  H15C24088   5.052   7.429  12.226  0.5711 -0.6874 -1.1223
  195DOPC   C1124089   5.191   7.647  11.999  0.2943 -0.0706 -0.8887
  195DOPC  H11A24090   5.131   7.654  11.905 -1.4116 -1.4416  0.0388
  195DOPC  H11B24091   5.272   7.724  11.996 -1.4009  1.7795 -1.9474
  195DOPC     P24092   5.378   7.479  12.073 -0.1435 -0.2667  0.1724
  195DOPC   O1324093   5.496   7.520  11.990  0.5439  0.0686 -0.1770
  195DOPC   O1424094   5.373   7.339  12.110 -0.6671 -0.3145 -0.3176
  195DOPC   O1224095   5.242   7.516  11.995  0.2628 -0.0252  0.2493
  195DOPC   O1124096   5.363   7.562  12.203  0.3065  0.7464 -0.1795
  195DOPC    C124097   5.470   7.655  12.227 -0.2764  0.0416  0.6863
  195DOPC    HA24098   5.427   7.739  12.285  0.0025  0.5557  0.1665
  195DOPC    HB24099   5.510   7.709  12.139 -1.7578 -1.1924 -0.8236
  195DOPC    C224100   5.592   7.591  12.296 -0.0267  0.3428  0.2340
  195DOPC    HS24101   5.622   7.511  12.226 -2.9970 -0.6198 -0.0711
  195DOPC   O2124102   5.546   7.524  12.418 -0.2432 -0.3635  0.2039
  195DOPC   C2124103   5.605   7.415  12.468 -0.4816 -0.4407 -0.2842
  195DOPC   O2224104   5.709   7.366  12.418 -0.2239 -0.9740 -0.1413
  195DOPC   C2224105   5.547   7.375  12.601 -0.3033 -0.6407  0.2043
  195DOPC   H2R24106   5.454   7.320  12.574  0.2586 -0.9032 -1.3150
  195DOPC   H2S24107   5.522   7.469  12.655 -0.8382 -0.1359 -0.8914
  195DOPC    C324108   5.708   7.695  12.323 -0.0572 -0.3556 -0.1316
  195DOPC    HX24109   5.716   7.754  12.229 -1.7011  0.9683  0.5080
  195DOPC    HY24110   5.804   7.640  12.336 -0.5916 -0.6785  3.7182
  195DOPC   O3124111   5.691   7.785  12.435 -0.5438 -0.0724  0.1640
  195DOPC   C3124112   5.753   7.749  12.541  0.2119 -0.3867  0.0298
  195DOPC   O3224113   5.808   7.644  12.571  0.3952  0.1411  0.8285
  195DOPC   C3224114   5.769   7.866  12.634 -0.1568  0.0205  0.6398
  195DOPC   H2X24115   5.877   7.892  12.629 -0.6102  1.8693 -0.3882
  195DOPC   H2Y24116   5.707   7.948  12.590  1.5019  0.6435 -0.6556
  195DOPC   C2324117   5.649   7.300  12.688  0.0114 -0.4785  0.1394
  195DOPC   H3R24118   5.724   7.379  12.711 -0.6315  0.4485 -0.8371
  195DOPC   H3S24119   5.697   7.215  12.635  2.2806  0.5849  0.3713
  195DOPC   C2424120   5.594   7.233  12.814 -0.2493  0.5999  0.0196
  195DOPC   H4R24121   5.561   7.308  12.889 -1.1538 -1.8203  2.2067
  195DOPC   H4S24122   5.662   7.153  12.849 -0.4208 -0.1513 -1.3094
  195DOPC   C2524123   5.462   7.156  12.799  0.1835  1.1338 -0.1111
  195DOPC   H5R24124   5.479   7.081  12.719  2.5684 -0.2811  1.6064
  195DOPC   H5S24125   5.385   7.234  12.781 -2.4407 -1.1539  0.5684
  195DOPC   C2624126   5.409   7.085  12.937 -0.2941  0.8272 -0.2877
  195DOPC   H6R24127   5.492   7.029  12.985 -0.3104 -1.7181 -2.9390
  195DOPC   H6S24128   5.338   7.007  12.901 -0.8694  0.1074  2.2158
  195DOPC   C2724129   5.359   7.183  13.043 -0.2665 -0.4335  0.7489
  195DOPC   H7R24130   5.255   7.209  13.012  0.3282 -0.2853 -1.2974
  195DOPC   H7S24131   5.406   7.284  13.043 -4.1449  1.5756  1.9164
  195DOPC   C2824132   5.352   7.116  13.175 -0.1974  0.0518 -0.5110
  195DOPC   H8R24133   5.314   7.012  13.169 -2.3453  0.7266  0.1612
  195DOPC   H8S24134   5.274   7.169  13.235 -0.8684  0.0420 -1.3570
  195DOPC   C2924135   5.486   7.114  13.250 -0.3393 -0.0783  0.0602
  195DOPC   H9R24136   5.570   7.152  13.191  2.6124 -2.7673  2.2246
  195DOPC  C21024137   5.505   7.078  13.378 -0.3954  0.2814  0.2569
  195DOPC  H10R24138   5.605   7.103  13.419  0.0322  1.4196 -1.3636
  195DOPC  C21124139   5.395   7.040  13.481 -0.4694 -0.2280  0.9357
  195DOPC  H11R24140   5.380   6.930  13.474  0.4133 -0.2981 -0.1119
  195DOPC  H11S24141   5.296   7.077  13.446  0.6475 -0.0584 -2.4278
  195DOPC  C21224142   5.412   7.085  13.629 -0.6801  0.3760  0.0963
  195DOPC  H12R24143   5.341   7.038  13.701  0.6985  0.3438  1.4824
  195DOPC  H12S24144   5.386   7.193  13.637 -1.1487  0.2519  0.3059
  195DOPC  C21324145   5.561   7.064  13.680  0.3462 -0.0944 -0.3934
  195DOPC  H13R24146   5.571   7.099  13.785 -1.0690  1.7960 -0.8322
  195DOPC  H13S24147   5.631   7.128  13.622  0.3680 -0.1601 -0.4411
  195DOPC  C21424148   5.598   6.910  13.681 -0.0870 -0.1938 -0.4518
  195DOPC  H14R24149   5.586   6.871  13.577 -1.9235  2.7888 -1.5090
  195DOPC  H14S24150   5.537   6.855  13.755 -1.5549  0.7849 -0.8896
  195DOPC  C21524151   5.742   6.885  13.736 -0.1422  0.1060 -0.7285
  195DOPC  H15R24152   5.756   6.938  13.832 -0.6634  0.3511 -0.7874
  195DOPC  H15S24153   5.820   6.930  13.671 -0.1986 -0.7379 -1.4055
  195DOPC  C21624154   5.772   6.733  13.756  0.2495  0.2902 -0.7573
  195DOPC  H16R24155   5.765   6.685  13.657  0.0727 -1.1306 -0.0770
  195DOPC  H16S24156   5.685   6.689  13.810  2.8732 -2.7918  1.3734
  195DOPC  C21724157   5.910   6.702  13.819  0.0487 -0.7042  0.1942
  195DOPC  H17R24158   5.922   6.773  13.904 -1.2693 -1.3195  0.9324
  195DOPC  H17S24159   5.977   6.753  13.747  1.4806  3.4572  4.0039
  195DOPC  C21824160   5.944   6.557  13.845  0.4631  0.7330  0.0600
  195DOPC  H18R24161   5.876   6.511  13.919  2.3157 -2.6206 -0.1283
  195DOPC  H18S24162   6.050   6.543  13.875  0.1655 -0.2791  0.6958
  195DOPC  H18T24163   5.940   6.495  13.753  2.8867 -0.3259  0.5742
  195DOPC   C3324164   5.723   7.842  12.777 -0.3382  0.1820 -0.3570
  195DOPC   H3X24165   5.782   7.771  12.839  0.6444  0.5137 -0.9005
  195DOPC   H3Y24166   5.616   7.812  12.778  0.2319 -2.2268 -1.4817
  195DOPC   C3424167   5.726   7.980  12.857 -0.3758  0.1752  0.7471
  195DOPC   H4X24168   5.662   8.055  12.806 -1.7470 -0.7216  1.1076
  195DOPC   H4Y24169   5.833   8.011  12.861 -0.4785  1.0316 -1.6796
  195DOPC   C3524170   5.668   7.975  12.995 -1.3855  0.4635  0.5732
  195DOPC   H5X24171   5.558   7.961  12.987 -1.1903 -0.3457 -1.0199
  195DOPC   H5Y24172   5.664   8.074  13.046 -2.7912  1.5431 -1.4807
  195DOPC   C3624173   5.740   7.868  13.085  0.1853 -0.5655  0.2408
  195DOPC   H6X24174   5.702   7.767  13.058  0.7445 -0.2307 -2.0061
  195DOPC   H6Y24175   5.845   7.880  13.051 -0.6193 -0.2760 -2.3913
  195DOPC   C3724176   5.732   7.899  13.237 -0.2959  0.3643  0.1184
  195DOPC   H7X24177   5.775   7.998  13.264  0.2596  0.4628 -1.0521
  195DOPC   H7Y24178   5.625   7.901  13.266 -0.5347  0.8195 -0.7792
  195DOPC   C3824179   5.799   7.792  13.318  0.1118 -0.1477 -0.7935
  195DOPC   H8X24180   5.771   7.693  13.275 -0.3353 -0.9764  1.3016
  195DOPC   H8Y24181   5.766   7.796  13.423  3.5921 -0.6926  0.4559
  195DOPC   C3924182   5.948   7.816  13.313  0.0465 -0.4163 -0.0733
  195DOPC   H9X24183   5.990   7.824  13.212  1.3419 -0.1158  0.4641
  195DOPC  C31024184   6.022   7.813  13.428 -0.1250  0.2870 -0.6233
  195DOPC  H10X24185   6.123   7.855  13.411 -0.5387  1.7256  0.2677
  195DOPC  C31124186   5.972   7.792  13.571  0.0180 -0.7466 -0.1045
  195DOPC  H11X24187   6.054   7.764  13.640  0.1477 -0.3338 -0.0887
  195DOPC  H11Y24188   5.892   7.715  13.580  0.3013 -1.3288 -2.2368
  195DOPC  C31224189   5.923   7.926  13.631  0.7931  0.4067  0.4094
  195DOPC  H12X24190   5.851   7.977  13.563  0.5890 -1.0721 -0.5423
  195DOPC  H12Y24191   6.010   7.993  13.649 -0.3286  2.0261  0.0305
  195DOPC  C31324192   5.864   7.907  13.766 -0.0623 -0.8836 -0.0120
  195DOPC  H13X24193   5.760   7.869  13.755 -1.1642  1.4798  1.4525
  195DOPC  H13Y24194   5.918   7.829  13.825 -0.4869  0.0772  1.7011
  195DOPC  C31424195   5.858   8.041  13.849 -0.0730 -0.3605  0.0031
  195DOPC  H14X24196   5.838   8.128  13.782 -0.7593  1.0227  1.9004
  195DOPC  H14Y24197   5.773   8.040  13.920  0.7697  4.0630  1.4478
  195DOPC  C31524198   5.983   8.060  13.930  0.3062  0.4074  0.7919
  195DOPC  H15X24199   6.066   8.076  13.859  1.4286 -0.0065  1.9740
  195DOPC  H15Y24200   5.991   7.963  13.983 -1.2370  0.2910  0.8552
  195DOPC  C31624201   5.968   8.168  14.038 -0.8584  0.6778 -0.7309
  195DOPC  H16X24202   5.922   8.263  14.003 -0.2351  0.6075 -1.7676
  195DOPC  H16Y24203   5.910   8.119  14.120  1.9512 -1.4261  0.1563
  195DOPC  C31724204   6.106   8.195  14.104  0.2867  0.0070  0.1361
  195DOPC  H17X24205   6.175   8.110  14.125  0.3448 -0.3479 -1.3632
  195DOPC  H17Y24206   6.171   8.254  14.035  1.9077 -0.0683  1.5337
  195DOPC  C31824207   6.072   8.272  14.226  0.2061  0.2937  0.1213
  195DOPC  H18X24208   6.006   8.354  14.191 -1.2371 -1.0143 -0.3306
  195DOPC  H18Y24209   6.016   8.205  14.293 -1.5186  2.4157  0.9250
  195DOPC  H18Z24210   6.164   8.298  14.284  0.1358 -1.5864  1.1445
  196DOPC     N24211   0.867   0.534  12.156  0.4302  0.2555 -0.0525
  196DOPC   C1224212   0.817   0.673  12.139 -0.2758  0.5242 -0.1264
  196DOPC  H12A24213   0.720   0.674  12.091 -0.2237  0.6868 -0.2276
  196DOPC  H12B24214   0.875   0.717  12.059 -0.9609  2.5687  0.4364
  196DOPC   C1324215   0.794   0.461  12.267 -0.1279  0.3808 -0.3617
  196DOPC  H13A24216   0.692   0.442  12.237  0.3348  0.4170 -2.0585
  196DOPC  H13B24217   0.840   0.366  12.292  2.3347  1.6074  0.0832
  196DOPC  H13C24218   0.794   0.513  12.361  2.3966 -1.0910  0.5545
  196DOPC   C1424219   1.017   0.534  12.196 -0.0348  0.0125 -0.0081
  196DOPC  H14A24220   1.030   0.594  12.286  2.1135 -1.1868  0.5544
  196DOPC  H14B24221   1.044   0.434  12.226  2.9371  0.5558 -0.4894
  196DOPC  H14C24222   1.089   0.567  12.123  0.7755 -1.0030  0.2998
  196DOPC   C1524223   0.867   0.457  12.030  0.3651  0.2375 -0.1192
  196DOPC  H15A24224   0.764   0.445  11.999  0.2370 -0.2043  0.4712
  196DOPC  H15B24225   0.897   0.355  12.048  0.1629  0.1965 -0.0163
  196DOPC  H15C24226   0.927   0.502  11.952 -0.2120  0.8939 -0.1972
  196DOPC   C1124227   0.822   0.773  12.258  0.2181  0.0728 -0.9412
  196DOPC  H11A24228   0.780   0.871  12.226  0.6235  0.6376  0.1833
  196DOPC  H11B24229   0.766   0.744  12.349  2.4722 -0.9626  0.1903
  196DOPC     P24230   0.991   0.866  12.439 -0.1979  0.3128 -0.2859
  196DOPC   O1324231   0.948   1.008  12.453  0.4714  0.1433 -0.3191
  196DOPC   O1424232   1.135   0.843  12.461 -0.1071  0.1757 -0.0040
  196DOPC   O1224233   0.955   0.809  12.296 -0.5772 -0.2874  0.2146
  196DOPC   O1124234   0.908   0.774  12.540  0.1061  0.3718  0.5886
  196DOPC    C124235   0.951   0.641  12.587  0.3701  0.3702  0.4892
  196DOPC    HA24236   1.029   0.595  12.522 -0.6263 -1.9013  0.8143
  196DOPC    HB24237   0.868   0.567  12.586 -0.3470  1.1264  2.0776
  196DOPC    C224238   0.994   0.637  12.730  0.0160 -1.1729 -0.1446
  196DOPC    HS24239   0.985   0.532  12.764  0.4953 -0.7688  1.2977
  196DOPC   O2124240   0.912   0.733  12.811 -0.0220  0.2168  0.2386
  196DOPC   C2124241   0.799   0.677  12.849  0.8342 -0.3607  0.7379
  196DOPC   O2224242   0.758   0.567  12.809  0.2981  0.0971 -0.3125
  196DOPC   C2224243   0.718   0.773  12.940  0.2440  0.3569  0.3194
  196DOPC   H2R24244   0.709   0.873  12.893  2.5353  1.9008  2.8615
  196DOPC   H2S24245   0.778   0.790  13.032  1.1297 -0.8808  0.0016
  196DOPC    C324246   1.133   0.675  12.758 -0.4051  0.9239  0.3177
  196DOPC    HX24247   1.143   0.785  12.759 -1.1777  0.9968  0.9992
  196DOPC    HY24248   1.208   0.635  12.686 -0.6073  0.9154  0.1124
  196DOPC   O3124249   1.169   0.634  12.892 -0.5075  0.5887 -0.0624
  196DOPC   C3124250   1.294   0.665  12.933 -0.1597 -0.6179 -0.2145
  196DOPC   O3224251   1.387   0.701  12.858 -0.1726  0.7417 -0.1695
  196DOPC   C3224252   1.303   0.664  13.081 -0.2332 -0.5855  0.2743
  196DOPC   H2X24253   1.346   0.570  13.123 -3.2390 -1.4308  1.7426
  196DOPC   H2Y24254   1.379   0.741  13.106  0.8695 -1.7757  0.7361
  196DOPC   C2324255   0.587   0.706  12.980 -0.5390 -0.5972 -0.4812
  196DOPC   H3R24256   0.609   0.606  13.022  1.2216  0.4854  1.4109
  196DOPC   H3S24257   0.519   0.698  12.892  0.1951 -0.3121 -1.0906
  196DOPC   C2424258   0.515   0.796  13.081  0.0402  0.0638 -0.0629
  196DOPC   H4R24259   0.494   0.892  13.029 -1.9969 -0.8041 -0.9652
  196DOPC   H4S24260   0.580   0.810  13.170 -0.4139 -1.1347  0.4841
  196DOPC   C2524261   0.384   0.729  13.122 -0.7133  0.3345 -0.3915
  196DOPC   H5R24262   0.417   0.653  13.196  0.9927  0.6753 -0.7769
  196DOPC   H5S24263   0.329   0.682  13.037  0.1573  1.2849 -1.5192
  196DOPC   C2624264   0.290   0.833  13.197  0.7420 -0.1678 -0.4013
  196DOPC   H6R24265   0.273   0.915  13.125 -2.3256 -1.5762 -1.4223
  196DOPC   H6S24266   0.353   0.879  13.277 -2.2982  1.6384  1.1361
  196DOPC   C2724267   0.171   0.780  13.268 -0.1875  1.0151 -0.6072
  196DOPC   H7R24268   0.208   0.702  13.338 -2.3383 -0.2196 -0.7622
  196DOPC   H7S24269   0.099   0.729  13.201  0.1855 -1.5498  0.8062
  196DOPC   C2824270   0.091   0.885  13.347 -1.3414 -0.1997 -0.3596
  196DOPC   H8R24271   0.042   0.952  13.273  0.0838  0.2480 -0.9298
  196DOPC   H8S24272   0.161   0.956  13.396  0.0951 -1.8482  0.0999
  196DOPC   C2924273   0.001   0.826  13.444 -0.5848 -0.3404 -0.7051
  196DOPC   H9R24274  -0.094   0.781  13.410  0.6790 -1.5202 -2.9280
  196DOPC  C21024275   0.041   0.817  13.574  0.7218 -0.0486 -0.5917
  196DOPC  H10R24276  -0.019   0.754  13.641 -0.5088  1.9991  0.3287
  196DOPC  C21124277   0.170   0.864  13.641 -0.4814  0.3437 -0.4060
  196DOPC  H11R24278   0.251   0.848  13.566 -0.2613 -2.8963  0.3422
  196DOPC  H11S24279   0.188   0.791  13.723  1.3174  1.5166  0.3043
  196DOPC  C21224280   0.163   1.007  13.692  0.1076  0.7076 -0.3420
  196DOPC  H12R24281   0.166   1.074  13.603  2.3675 -0.0587 -0.9147
  196DOPC  H12S24282   0.258   1.018  13.748 -1.8804 -1.5062  3.9008
  196DOPC  C21324283   0.040   1.045  13.780 -0.1520 -0.0047  0.7375
  196DOPC  H13R24284   0.038   0.983  13.871 -2.8167 -0.5211  0.4062
  196DOPC  H13S24285  -0.050   1.017  13.721  0.0222 -0.1496  0.5372
  196DOPC  C21424286   0.020   1.193  13.826 -0.3890 -0.0526  0.4102
  196DOPC  H14R24287   0.010   1.262  13.739  0.5944  0.4743  0.7006
  196DOPC  H14S24288   0.101   1.232  13.890  0.5355 -0.6962 -0.3447
  196DOPC  C21524289  -0.106   1.202  13.916 -0.3513  0.2308  0.9411
  196DOPC  H15R24290  -0.185   1.134  13.876 -0.7127  1.4232 -0.5001
  196DOPC  H15S24291  -0.123   1.312  13.921 -0.6944  0.2909 -0.8696
  196DOPC  C21624292  -0.080   1.160  14.060  0.4164 -0.4588  0.6929
  196DOPC  H16R24293  -0.004   1.229  14.102 -1.4514  2.8163 -0.8274
  196DOPC  H16S24294  -0.042   1.056  14.065  1.9772 -0.0035 -0.7938
  196DOPC  C21724295  -0.203   1.192  14.143  0.2025  0.6596 -0.4462
  196DOPC  H17R24296  -0.299   1.163  14.095 -0.0903 -1.5022  1.2882
  196DOPC  H17S24297  -0.218   1.299  14.166  1.6167  0.8436 -0.3500
  196DOPC  C21824298  -0.200   1.122  14.282  0.5906  0.0972  0.2611
  196DOPC  H18R24299  -0.282   1.167  14.342  0.9259 -1.1922  1.7668
  196DOPC  H18S24300  -0.107   1.131  14.342  0.3445  2.3523  0.4115
  196DOPC  H18T24301  -0.221   1.014  14.271  1.5266 -0.0148 -0.5264
  196DOPC   C3324302   1.175   0.699  13.157  1.0299 -0.4918  0.1414
  196DOPC   H3X24303   1.092   0.628  13.137 -0.7885  1.5190  0.2743
  196DOPC   H3Y24304   1.146   0.797  13.113 -2.9924 -1.6766 -0.2470
  196DOPC   C3424305   1.201   0.706  13.308  0.4832 -0.1440 -0.6944
  196DOPC   H4X24306   1.278   0.779  13.341 -2.0527  2.2481  0.3718
  196DOPC   H4Y24307   1.227   0.607  13.351  0.1768  0.3398  0.6551
  196DOPC   C3524308   1.075   0.751  13.385 -1.0204 -0.7426  0.3984
  196DOPC   H5X24309   0.991   0.681  13.364 -2.3910  0.8839  0.2994
  196DOPC   H5Y24310   1.039   0.838  13.327  1.0931  1.1542  1.7672
  196DOPC   C3624311   1.081   0.773  13.537 -0.5406 -0.3099  0.1336
  196DOPC   H6X24312   1.074   0.673  13.584 -0.2598 -0.8527 -0.9264
  196DOPC   H6Y24313   1.180   0.810  13.571 -0.3644 -0.6852  0.0379
  196DOPC   C3724314   0.971   0.869  13.574  0.1109 -1.0808  0.3451
  196DOPC   H7X24315   0.974   0.973  13.535 -2.3314 -1.1819 -0.2899
  196DOPC   H7Y24316   0.874   0.826  13.541 -0.2777  0.9943 -1.4847
  196DOPC   C3824317   0.970   0.880  13.727  0.0568  0.3133  0.5391
  196DOPC   H8X24318   0.968   0.775  13.765  1.1519  0.3965  0.8768
  196DOPC   H8Y24319   0.878   0.927  13.767  0.8050  2.3064  0.0420
  196DOPC   C3924320   1.085   0.949  13.792 -0.7631  0.0023  0.0564
  196DOPC   H9X24321   1.176   0.888  13.786  0.3262  1.6301 -1.1529
  196DOPC  C31024322   1.086   1.076  13.846 -0.0516  0.3327 -0.0193
  196DOPC  H10X24323   1.176   1.097  13.906 -1.1566 -1.6869  2.5773
  196DOPC  C31124324   0.974   1.175  13.838 -0.0072 -0.1490  0.3838
  196DOPC  H11X24325   0.915   1.161  13.931 -1.8056  0.5373 -0.6057
  196DOPC  H11Y24326   0.921   1.145  13.745 -0.5131  0.6218  0.4249
  196DOPC  C31224327   1.018   1.322  13.816 -0.2228 -0.4864 -0.5508
  196DOPC  H12X24328   0.928   1.384  13.796 -0.2353 -0.2342  0.2604
  196DOPC  H12Y24329   1.081   1.330  13.725  2.4308 -0.1631  1.2039
  196DOPC  C31324330   1.086   1.383  13.939 -0.2676 -0.3240  0.3011
  196DOPC  H13X24331   1.164   1.314  13.980  2.1046  2.2709  0.4368
  196DOPC  H13Y24332   1.132   1.483  13.928 -1.2719  0.5038  2.8532
  196DOPC  C31424333   0.980   1.415  14.037  0.6087  0.1044 -0.0109
  196DOPC  H14X24334   0.894   1.465  13.987  0.9418  0.6605 -0.0292
  196DOPC  H14Y24335   0.947   1.319  14.082  0.4321  1.0186  1.9446
  196DOPC  C31524336   1.025   1.501  14.158  0.1066  0.0066 -0.1213
  196DOPC  H15X24337   1.050   1.596  14.106  0.9077  0.4428  1.0230
  196DOPC  H15Y24338   1.110   1.457  14.213 -0.7655  0.0376  1.2942
  196DOPC  C31624339   0.906   1.524  14.262 -0.3136  0.3498 -0.7013
  196DOPC  H16X24340   0.945   1.612  14.318 -1.1544 -0.9337  2.0588
  196DOPC  H16Y24341   0.812   1.542  14.205 -1.0337 -0.3676  0.2343
  196DOPC  C31724342   0.881   1.407  14.353  0.7255  0.4393 -0.0971
  196DOPC  H17X24343   0.840   1.325  14.291  0.2983  2.0784 -2.1027
  196DOPC  H17Y24344   0.972   1.375  14.408  0.5009 -1.6851 -0.8662
  196DOPC  C31824345   0.779   1.434  14.472  0.8365 -0.0712  0.1531
  196DOPC  H18X24346   0.683   1.466  14.425  2.5653  0.6638 -3.2376
  196DOPC  H18Y24347   0.760   1.336  14.520  1.2670 -0.2713 -0.0724
  196DOPC  H18Z24348   0.809   1.517  14.539 -0.8231  1.8041 -1.2875
  197DOPC     N24349   1.502   6.541  12.182  0.2572 -0.0744 -0.0337
  197DOPC   C1224350   1.582   6.502  12.308  0.1727 -0.6731  0.0641
  197DOPC  H12A24351   1.624   6.597  12.337 -1.6368  0.2823 -0.2766
  197DOPC  H12B24352   1.659   6.434  12.277  1.5578  1.1340 -0.6489
  197DOPC   C1324353   1.408   6.651  12.214 -0.8385 -0.5433  0.0877
  197DOPC  H13A24354   1.339   6.636  12.295 -1.1056 -2.7418 -0.4837
  197DOPC  H13B24355   1.465   6.737  12.247 -0.9641 -0.3030 -0.3122
  197DOPC  H13C24356   1.345   6.693  12.136  1.8330 -0.7997 -2.3936
  197DOPC   C1424357   1.412   6.429  12.135  0.5806  0.2644  0.1432
  197DOPC  H14A24358   1.346   6.455  12.054 -0.3611 -0.1287  0.7606
  197DOPC  H14B24359   1.475   6.344  12.114 -1.2074 -1.5735  1.8095
  197DOPC  H14C24360   1.349   6.390  12.214  1.0250  0.3386  0.5418
  197DOPC   C1524361   1.595   6.577  12.070  0.7274  0.1333  1.1834
  197DOPC  H15A24362   1.657   6.494  12.039 -1.8074 -1.0575 -1.1479
  197DOPC  H15B24363   1.650   6.662  12.109 -2.0926  1.6498  2.1072
  197DOPC  H15C24364   1.540   6.619  11.987 -0.4677 -1.9279  0.8575
  197DOPC   C1124365   1.501   6.446  12.428  0.8669 -0.1863 -0.4017
  197DOPC  H11A24366   1.457   6.345  12.412 -0.7214  0.2514  0.9873
  197DOPC  H11B24367   1.585   6.441  12.501  1.3385  1.4731 -0.7949
  197DOPC     P24368   1.432   6.655  12.578 -0.3748 -0.1336  0.5999
  197DOPC   O1324369   1.354   6.777  12.538 -0.0096 -0.1416 -0.1122
  197DOPC   O1424370   1.579   6.666  12.609 -0.0553 -0.7453  0.2364
  197DOPC   O1224371   1.398   6.536  12.474 -0.2607  0.5041  0.9397
  197DOPC   O1124372   1.362   6.606  12.707 -0.0078  0.3219  0.3385
  197DOPC    C124373   1.400   6.652  12.838  0.3957  0.6844  0.4878
  197DOPC    HA24374   1.314   6.644  12.908  1.6508  0.5109  2.0677
  197DOPC    HB24375   1.437   6.757  12.838  0.5719  0.6227  0.7826
  197DOPC    C224376   1.512   6.567  12.913  0.3014 -0.1010 -0.1891
  197DOPC    HS24377   1.606   6.592  12.859  0.5395 -0.4833  0.0437
  197DOPC   O2124378   1.477   6.428  12.892 -0.0125  0.5563 -0.1919
  197DOPC   C2124379   1.581   6.353  12.849 -0.3859  0.0992 -0.4152
  197DOPC   O2224380   1.691   6.404  12.821  0.2016 -0.7390  0.4026
  197DOPC   C2224381   1.553   6.202  12.848  0.3244 -0.3242  0.7268
  197DOPC   H2R24382   1.649   6.157  12.815  0.2397  0.3770 -0.5138
  197DOPC   H2S24383   1.478   6.199  12.766 -0.2783  1.4556  1.1820
  197DOPC    C324384   1.532   6.596  13.059  0.0998  0.0530  0.4886
  197DOPC    HX24385   1.442   6.550  13.105  0.6586 -1.3005  0.2707
  197DOPC    HY24386   1.533   6.707  13.061  1.2336  0.0449  1.9455
  197DOPC   O3124387   1.649   6.532  13.126 -0.3152 -0.0949  0.1651
  197DOPC   C3124388   1.764   6.592  13.093  0.0484  0.2765 -0.5094
  197DOPC   O3224389   1.776   6.689  13.025 -0.2164  0.4540 -0.1623
  197DOPC   C3224390   1.877   6.523  13.157  0.3695 -0.0164 -0.3861
  197DOPC   H2X24391   1.929   6.455  13.086  1.5392 -0.6310  1.0094
  197DOPC   H2Y24392   1.950   6.600  13.189  0.2869 -0.1220  0.0580
  197DOPC   C2324393   1.489   6.141  12.980  0.8461 -0.3587  0.3374
  197DOPC   H3R24394   1.457   6.037  12.955 -0.1974 -0.2691  1.2545
  197DOPC   H3S24395   1.395   6.197  12.999 -0.0458 -1.1488 -1.4678
  197DOPC   C2424396   1.562   6.143  13.116 -0.2354 -0.7098  0.1622
  197DOPC   H4R24397   1.491   6.092  13.185 -0.1517  1.0359  1.6057
  197DOPC   H4S24398   1.576   6.251  13.135 -1.2795 -0.2361 -1.4972
  197DOPC   C2524399   1.705   6.081  13.118 -0.8354  0.1474 -0.3627
  197DOPC   H5R24400   1.752   6.129  13.206  2.3394 -0.7105 -1.4573
  197DOPC   H5S24401   1.763   6.110  13.028 -1.9346 -0.9723 -1.4843
  197DOPC   C2624402   1.705   5.925  13.137  0.0512 -0.3921 -0.1203
  197DOPC   H6R24403   1.661   5.886  13.043  0.7262  2.1229 -1.5520
  197DOPC   H6S24404   1.635   5.907  13.222  0.4715  1.0590  0.5655
  197DOPC   C2724405   1.845   5.860  13.151 -0.1338  0.5197 -0.9094
  197DOPC   H7R24406   1.906   5.891  13.064  1.5998 -1.3084 -0.4275
  197DOPC   H7S24407   1.836   5.750  13.137  0.1681  0.4564 -0.6269
  197DOPC   C2824408   1.929   5.895  13.279  0.3310 -0.0312  1.0069
  197DOPC   H8R24409   1.953   6.003  13.283  0.0978  0.0145  1.2090
  197DOPC   H8S24410   2.026   5.844  13.258  0.9696  1.5583 -0.0745
  197DOPC   C2924411   1.849   5.855  13.402  0.2793  0.0047 -0.1282
  197DOPC   H9R24412   1.775   5.929  13.435  1.3109  1.2881 -0.6053
  197DOPC  C21024413   1.904   5.764  13.483 -0.0280 -0.4780 -0.2190
  197DOPC  H10R24414   1.843   5.717  13.562 -0.3129 -0.9235 -0.6963
  197DOPC  C21124415   2.021   5.677  13.453 -0.1053  0.5375  0.7824
  197DOPC  H11R24416   2.115   5.711  13.501  0.2430  0.6514  0.0252
  197DOPC  H11S24417   2.049   5.676  13.346 -1.6281 -0.5361  0.3571
  197DOPC  C21224418   1.987   5.533  13.494  0.1773  0.1430 -0.0191
  197DOPC  H12R24419   1.982   5.535  13.605  1.1346  1.4360  0.0282
  197DOPC  H12S24420   2.073   5.469  13.466 -0.4055 -0.3032 -0.8564
  197DOPC  C21324421   1.854   5.479  13.431 -0.0916  0.3767 -0.3579
  197DOPC  H13R24422   1.880   5.481  13.323 -0.4540  2.8422 -0.4552
  197DOPC  H13S24423   1.761   5.540  13.444 -0.2116  0.3793 -1.1922
  197DOPC  C21424424   1.818   5.331  13.472  0.3141 -0.3459 -0.3991
  197DOPC  H14R24425   1.902   5.270  13.432  1.3169  2.8057 -3.7287
  197DOPC  H14S24426   1.720   5.298  13.431 -0.0722 -0.6905  0.7788
  197DOPC  C21524427   1.809   5.304  13.625 -0.7646 -0.4030 -0.1524
  197DOPC  H15R24428   1.718   5.358  13.659 -0.9684 -1.0044  0.2806
  197DOPC  H15S24429   1.893   5.346  13.685  1.3188 -1.5009 -2.1548
  197DOPC  C21624430   1.811   5.156  13.665 -0.3616 -0.0584  0.1418
  197DOPC  H16R24431   1.914   5.126  13.695  0.7426  0.9530 -2.3685
  197DOPC  H16S24432   1.774   5.095  13.580  1.9710 -0.3041 -0.7813
  197DOPC  C21724433   1.733   5.131  13.792 -0.2303 -0.0412 -0.2663
  197DOPC  H17R24434   1.647   5.200  13.805  1.3983  1.7678  1.7511
  197DOPC  H17S24435   1.797   5.163  13.877 -1.5430  0.5269  0.5254
  197DOPC  C21824436   1.682   4.987  13.815 -0.8807 -0.6541 -0.0482
  197DOPC  H18R24437   1.619   4.961  13.727 -0.4634  0.2743 -0.6402
  197DOPC  H18S24438   1.618   4.981  13.905 -1.0193 -1.4426 -0.1857
  197DOPC  H18T24439   1.775   4.928  13.834  0.4402  1.7659  1.5123
  197DOPC   C3324440   1.838   6.441  13.282 -0.4747 -0.4889  0.5359
  197DOPC   H3X24441   1.759   6.367  13.258  1.2470 -2.2579 -0.0089
  197DOPC   H3Y24442   1.799   6.507  13.362 -1.7332 -1.0149  0.3844
  197DOPC   C3424443   1.964   6.371  13.331  0.3201  0.7126 -0.4800
  197DOPC   H4X24444   2.043   6.447  13.354  1.1138  0.3730 -1.9657
  197DOPC   H4Y24445   2.004   6.305  13.251 -0.6445  2.2960 -2.3616
  197DOPC   C3524446   1.928   6.291  13.454 -0.8869 -0.7787 -0.0746
  197DOPC   H5X24447   2.018   6.253  13.506 -0.6539  0.2179  0.2760
  197DOPC   H5Y24448   1.863   6.205  13.427  2.0887 -2.6638 -1.7111
  197DOPC   C3624449   1.862   6.384  13.557  0.0408  0.2202 -0.0842
  197DOPC   H6X24450   1.909   6.484  13.558  1.5342 -0.4185  2.2192
  197DOPC   H6Y24451   1.754   6.397  13.534 -0.0098  0.2310  0.1600
  197DOPC   C3724452   1.875   6.326  13.704 -0.2811  0.6660 -0.0763
  197DOPC   H7X24453   1.786   6.267  13.737 -0.5984  0.5611 -1.0974
  197DOPC   H7Y24454   1.950   6.244  13.703  0.2040  1.0817  0.8325
  197DOPC   C3824455   1.919   6.430  13.807 -0.8980 -0.3861 -0.3186
  197DOPC   H8X24456   1.832   6.487  13.846 -1.3897 -0.5671 -1.1156
  197DOPC   H8Y24457   1.986   6.506  13.761  0.1543 -1.2554 -0.2595
  197DOPC   C3924458   2.008   6.365  13.915  0.8316  1.2693  0.4309
  197DOPC   H9X24459   2.072   6.281  13.885 -1.5589 -0.7579  0.6484
  197DOPC  C31024460   2.005   6.399  14.044  0.2725  0.0784  0.0669
  197DOPC  H10X24461   2.050   6.342  14.127  0.5685  1.2406  0.7342
  197DOPC  C31124462   1.923   6.508  14.099  0.1274 -0.4478 -0.5184
  197DOPC  H11X24463   1.936   6.602  14.041  0.9919  0.6801  1.3938
  197DOPC  H11Y24464   1.973   6.537  14.194 -1.5785  1.7067 -0.1963
  197DOPC  C31224465   1.779   6.461  14.144 -0.3802  0.0521 -0.5327
  197DOPC  H12X24466   1.731   6.399  14.065  0.0571 -0.8176 -0.1317
  197DOPC  H12Y24467   1.707   6.542  14.169  0.4792  0.6096  0.1559
  197DOPC  C31324468   1.792   6.367  14.266 -0.0147 -0.4743  0.3476
  197DOPC  H13X24469   1.872   6.292  14.252  0.6963 -0.3492  3.0524
  197DOPC  H13Y24470   1.836   6.420  14.354 -0.1373 -0.4943  0.4223
  197DOPC  C31424471   1.658   6.301  14.305  0.2465 -0.7111  0.0854
  197DOPC  H14X24472   1.574   6.371  14.322 -0.1229 -1.5396  1.8767
  197DOPC  H14Y24473   1.623   6.237  14.221 -1.0090  1.8711 -1.4828
  197DOPC  C31524474   1.650   6.233  14.445  0.3007  0.2654  0.6987
  197DOPC  H15X24475   1.697   6.297  14.522 -1.0128  1.3967  0.6124
  197DOPC  H15Y24476   1.703   6.135  14.449  1.2486  0.6401 -1.2184
  197DOPC  C31624477   1.509   6.195  14.484  0.2573 -0.1667 -0.2334
  197DOPC  H16X24478   1.520   6.133  14.576  2.4873  0.6539  0.1134
  197DOPC  H16Y24479   1.434   6.276  14.494 -0.2122 -0.5504 -0.6022
  197DOPC  C31724480   1.435   6.095  14.388 -0.3580 -0.0281  0.0225
  197DOPC  H17X24481   1.333   6.079  14.429 -0.1326  1.0206  1.0552
  197DOPC  H17Y24482   1.416   6.144  14.290  1.1820  1.3772  0.3780
  197DOPC  C31824483   1.515   5.966  14.373  0.0739  0.9326  0.2088
  197DOPC  H18X24484   1.549   5.921  14.468 -2.6369 -0.3844  0.6648
  197DOPC  H18Y24485   1.453   5.885  14.329 -0.6507  1.6347 -0.1001
  197DOPC  H18Z24486   1.603   5.971  14.306 -0.9294 -0.6962 -1.2970
  198DOPC     N24487   6.855   6.719  12.499 -0.4781  0.1309 -0.5527
  198DOPC   C1224488   6.842   6.867  12.482  1.0002 -0.3326  0.5690
  198DOPC  H12A24489   6.924   6.907  12.424  0.4900  0.6471  0.5037
  198DOPC  H12B24490   6.841   6.912  12.580 -0.0461  0.9572 -0.0049
  198DOPC   C1324491   6.768   6.660  12.609  0.9118  0.8328 -0.2810
  198DOPC  H13A24492   6.746   6.559  12.578  1.9426  0.7916 -0.9410
  198DOPC  H13B24493   6.813   6.668  12.706 -0.0862 -0.0099  0.2717
  198DOPC  H13C24494   6.670   6.702  12.625  0.3506 -0.9392  1.2938
  198DOPC   C1424495   6.992   6.683  12.544  0.4810 -0.1196  0.0799
  198DOPC  H14A24496   7.058   6.717  12.466 -2.1417  1.2978 -1.6928
  198DOPC  H14B24497   7.022   6.733  12.634  0.4690  1.9385 -0.9885
  198DOPC  H14C24498   7.007   6.576  12.545  0.7062 -0.1191 -1.0736
  198DOPC   C1524499   6.838   6.636  12.379 -0.4824 -0.3501  0.2659
  198DOPC  H15A24500   6.836   6.531  12.407 -1.6254 -0.7861 -1.3198
  198DOPC  H15B24501   6.922   6.648  12.312 -0.0967 -0.0621  0.8004
  198DOPC  H15C24502   6.748   6.655  12.323 -0.1495  0.0844 -0.1244
  198DOPC   C1124503   6.717   6.930  12.416  0.6894 -0.1849 -0.3195
  198DOPC  H11A24504   6.735   7.037  12.393 -2.0188  0.4612  0.2135
  198DOPC  H11B24505   6.696   6.886  12.317 -0.3130  1.1992 -0.7490
  198DOPC     P24506   6.574   7.024  12.619 -0.7366  0.4090 -0.1706
  198DOPC   O1324507   6.483   7.136  12.593  0.6134 -0.0348  0.2493
  198DOPC   O1424508   6.710   7.067  12.669 -0.3874  0.9012 -0.3625
  198DOPC   O1224509   6.600   6.925  12.495 -0.1145 -0.2938  0.4069
  198DOPC   O1124510   6.518   6.930  12.733 -0.6007  0.5940  0.4735
  198DOPC    C124511   6.422   6.972  12.828  0.4223  0.6590  0.2295
  198DOPC    HA24512   6.407   6.881  12.890  0.3830 -1.4335 -2.6291
  198DOPC    HB24513   6.334   7.011  12.773  1.6416  0.0481 -2.2832
  198DOPC    C224514   6.481   7.076  12.926  0.3881 -0.0819 -0.7294
  198DOPC    HS24515   6.502   7.170  12.870  4.0339  0.5868  1.4543
  198DOPC   O2124516   6.607   7.026  12.989  0.7029 -0.5592 -0.1727
  198DOPC   C2124517   6.680   7.125  13.037 -0.3539  0.5951 -0.1593
  198DOPC   O2224518   6.665   7.242  13.024 -0.0057  0.0092 -0.7453
  198DOPC   C2224519   6.787   7.063  13.131  0.5514  0.1731 -0.0373
  198DOPC   H2R24520   6.876   7.066  13.064 -0.7958  0.9094 -1.8615
  198DOPC   H2S24521   6.768   6.956  13.153  2.0885  0.2040  1.7071
  198DOPC    C324522   6.368   7.100  13.039  0.8697  0.0375  0.5190
  198DOPC    HX24523   6.367   7.001  13.091  0.7744  0.4416  1.3077
  198DOPC    HY24524   6.267   7.126  13.002  1.1943  0.6765  0.0569
  198DOPC   O3124525   6.409   7.194  13.139 -0.2529 -0.0092 -0.1115
  198DOPC   C3124526   6.375   7.318  13.114  0.1379 -0.1914  0.7678
  198DOPC   O3224527   6.332   7.367  13.009 -0.0085 -0.0073  0.2686
  198DOPC   C3224528   6.385   7.398  13.246  0.2086 -0.6276 -0.2544
  198DOPC   H2X24529   6.296   7.463  13.240  2.6984  3.0215 -0.6613
  198DOPC   H2Y24530   6.378   7.327  13.331  0.0039 -0.7734 -0.3929
  198DOPC   C2324531   6.819   7.147  13.263  0.4662 -0.4034  0.1790
  198DOPC   H3R24532   6.855   7.250  13.239 -0.9724  0.6157  2.0434
  198DOPC   H3S24533   6.903   7.093  13.310  0.2821  0.9304  2.1938
  198DOPC   C2424534   6.707   7.143  13.375  0.8306 -0.2914  0.3288
  198DOPC   H4R24535   6.676   7.038  13.388 -0.8824  0.3731  2.1440
  198DOPC   H4S24536   6.618   7.203  13.344  1.2368 -0.5338 -1.4193
  198DOPC   C2524537   6.768   7.201  13.504  0.2459  0.4314  0.5796
  198DOPC   H5R24538   6.789   7.307  13.480 -0.0914  0.5545  0.8224
  198DOPC   H5S24539   6.865   7.150  13.520 -1.4691 -2.6563  2.2730
  198DOPC   C2624540   6.675   7.186  13.620 -0.0873 -0.3826 -0.5220
  198DOPC   H6R24541   6.673   7.075  13.621  1.2974 -0.4285  0.2254
  198DOPC   H6S24542   6.575   7.228  13.597 -0.8922 -1.0971  1.4342
  198DOPC   C2724543   6.742   7.236  13.750  0.3568 -0.3949  0.6816
  198DOPC   H7R24544   6.774   7.341  13.738  0.2505 -0.1761  2.1109
  198DOPC   H7S24545   6.836   7.181  13.770 -0.1903 -2.0955 -1.1019
  198DOPC   C2824546   6.654   7.192  13.873 -0.5045 -0.0970 -0.3497
  198DOPC   H8R24547   6.724   7.197  13.959  0.2594  1.4649 -1.0404
  198DOPC   H8S24548   6.625   7.085  13.870 -0.1855 -0.2648  1.3997
  198DOPC   C2924549   6.538   7.286  13.902 -0.5932  0.0861  0.3842
  198DOPC   H9R24550   6.467   7.296  13.818  0.0293  0.3023 -0.1297
  198DOPC  C21024551   6.513   7.351  14.016  0.0809  0.5530 -0.2140
  198DOPC  H10R24552   6.434   7.425  14.033 -0.5867 -0.2966  0.4591
  198DOPC  C21124553   6.600   7.352  14.137 -0.0762 -0.5157 -0.0360
  198DOPC  H11R24554   6.669   7.439  14.138  1.8513 -1.9664 -0.2813
  198DOPC  H11S24555   6.666   7.264  14.153 -0.3275 -0.7902 -0.4748
  198DOPC  C21224556   6.527   7.375  14.267  0.4944  0.5175 -0.4405
  198DOPC  H12R24557   6.448   7.452  14.256 -1.4303 -1.4048 -0.6655
  198DOPC  H12S24558   6.595   7.410  14.348  0.4217 -1.2469  0.4527
  198DOPC  C21324559   6.455   7.243  14.307 -0.0120 -0.4430 -0.6795
  198DOPC  H13R24560   6.529   7.160  14.310 -1.7313 -2.0339  0.0669
  198DOPC  H13S24561   6.376   7.223  14.232 -0.7319  0.1031 -0.0849
  198DOPC  C21424562   6.400   7.256  14.448  0.1119 -0.3719 -0.3139
  198DOPC  H14R24563   6.313   7.191  14.473 -0.5593  1.1376  1.5517
  198DOPC  H14S24564   6.361   7.358  14.473  0.8970 -0.2773  0.5903
  198DOPC  C21524565   6.494   7.212  14.566  0.3437 -0.3875  0.0082
  198DOPC  H15R24566   6.577   7.285  14.558  0.0468  0.2980  2.3001
  198DOPC  H15S24567   6.529   7.107  14.565 -0.9157 -0.8645  1.5720
  198DOPC  C21624568   6.418   7.219  14.700 -0.4085 -0.1283  0.4022
  198DOPC  H16R24569   6.331   7.150  14.701  1.3569 -2.5480 -1.2416
  198DOPC  H16S24570   6.379   7.323  14.694  1.7646  0.7546  0.5209
  198DOPC  C21724571   6.509   7.208  14.823 -0.1028  0.5826  0.1639
  198DOPC  H17R24572   6.465   7.269  14.906  0.8647 -1.2766  2.1439
  198DOPC  H17S24573   6.604   7.262  14.801  0.9204 -0.6680  1.3529
  198DOPC  C21824574   6.533   7.068  14.878 -0.0442  1.0889  0.6133
  198DOPC  H18R24575   6.587   7.071  14.975  0.6432 -0.3428  0.2894
  198DOPC  H18S24576   6.587   6.992  14.819 -0.3540 -0.7264  2.5499
  198DOPC  H18T24577   6.432   7.026  14.895 -0.2747  1.4869  0.2503
  198DOPC   C3324578   6.516   7.480  13.245 -0.6577 -0.1094  0.4202
  198DOPC   H3X24579   6.522   7.552  13.161 -1.9718  3.0823  2.8699
  198DOPC   H3Y24580   6.600   7.410  13.225 -0.3573  0.2852  0.2830
  198DOPC   C3424581   6.541   7.532  13.386 -0.2155 -0.0791 -0.8051
  198DOPC   H4X24582   6.648   7.556  13.403 -0.9560  3.7344 -0.7791
  198DOPC   H4Y24583   6.509   7.457  13.462 -1.6685 -0.4221 -1.7110
  198DOPC   C3524584   6.442   7.648  13.422  0.9099  0.3441  0.0133
  198DOPC   H5X24585   6.338   7.625  13.390  0.0486  4.1955 -0.3847
  198DOPC   H5Y24586   6.476   7.740  13.370  1.1610 -0.7740 -1.9008
  198DOPC   C3624587   6.436   7.669  13.572  0.1082 -0.1348  0.1508
  198DOPC   H6X24588   6.354   7.743  13.580  1.0926  1.1172 -1.0365
  198DOPC   H6Y24589   6.411   7.574  13.624  0.2792 -0.2245  0.0717
  198DOPC   C3724590   6.576   7.716  13.626 -0.5607  0.1318  0.7377
  198DOPC   H7X24591   6.655   7.640  13.607  0.2227  1.0304  0.3512
  198DOPC   H7Y24592   6.596   7.811  13.573 -2.3867  0.3926  0.4228
  198DOPC   C3824593   6.581   7.729  13.780  0.7808 -0.2586 -0.7461
  198DOPC   H8X24594   6.686   7.743  13.813  0.5003 -0.7907  0.4476
  198DOPC   H8Y24595   6.553   7.632  13.827  0.3688 -1.5296 -3.3824
  198DOPC   C3924596   6.501   7.847  13.831  0.1739 -0.5020 -0.0992
  198DOPC   H9X24597   6.535   7.946  13.796 -0.1700 -0.5343 -0.5212
  198DOPC  C31024598   6.392   7.845  13.913 -0.2040  0.4171 -0.0198
  198DOPC  H10X24599   6.349   7.942  13.941  2.3143  1.4266  0.5323
  198DOPC  C31124600   6.329   7.721  13.979 -0.3662  0.0771 -0.0847
  198DOPC  H11X24601   6.381   7.625  13.958  0.8553  0.8141 -0.5200
  198DOPC  H11Y24602   6.226   7.716  13.936 -0.0042  0.5657 -1.0295
  198DOPC  C31224603   6.319   7.754  14.131 -0.2532  0.0473  0.4369
  198DOPC  H12X24604   6.250   7.676  14.169 -1.0924  1.4063  1.8261
  198DOPC  H12Y24605   6.267   7.852  14.142  2.3602  1.6081 -0.2184
  198DOPC  C31324606   6.458   7.751  14.206  0.1364  0.2043  0.0371
  198DOPC  H13X24607   6.533   7.691  14.152 -0.6380 -1.1063  0.3769
  198DOPC  H13Y24608   6.505   7.851  14.199  2.1024 -0.6714  0.1183
  198DOPC  C31424609   6.439   7.709  14.353  0.2505 -0.2853  0.1658
  198DOPC  H14X24610   6.375   7.785  14.403  0.0250  1.3297 -2.3978
  198DOPC  H14Y24611   6.403   7.605  14.351  1.4941 -0.7400 -1.3434
  198DOPC  C31524612   6.575   7.708  14.433  0.2909 -0.9482 -0.1847
  198DOPC  H15X24613   6.632   7.803  14.430  2.8876 -2.3932 -2.8998
  198DOPC  H15Y24614   6.636   7.635  14.375 -1.1426 -1.4801 -1.0957
  198DOPC  C31624615   6.547   7.647  14.578  0.2869  0.2053 -0.5054
  198DOPC  H16X24616   6.487   7.722  14.634  0.1196  0.2956 -0.8059
  198DOPC  H16Y24617   6.486   7.554  14.572  0.7947 -0.1083 -0.8985
  198DOPC  C31724618   6.666   7.625  14.664 -0.6378 -0.1538 -0.1412
  198DOPC  H17X24619   6.635   7.604  14.769  0.0477 -0.0262  0.0931
  198DOPC  H17Y24620   6.714   7.529  14.635  0.3329  0.3056 -0.0969
  198DOPC  C31824621   6.775   7.729  14.640 -0.3634 -0.2568  0.3126
  198DOPC  H18X24622   6.801   7.729  14.532 -1.4224 -1.4859  0.0334
  198DOPC  H18Y24623   6.738   7.830  14.669 -0.2027  0.2814 -1.2645
  198DOPC  H18Z24624   6.868   7.705  14.697 -0.5914  0.0817  0.8343
  199DOPC     N24625   6.661   7.488  12.726  0.0353 -0.4582 -0.2471
  199DOPC   C1224626   6.513   7.459  12.752  0.5963  0.6265 -0.8791
  199DOPC  H12A24627   6.499   7.394  12.837 -0.7388  0.3323 -1.2968
  199DOPC  H12B24628   6.472   7.403  12.670  0.9900  0.3447 -0.8832
  199DOPC   C1324629   6.673   7.577  12.602 -0.8612  0.8466 -0.2712
  199DOPC  H13A24630   6.774   7.599  12.570 -0.9391  1.8550  0.1623
  199DOPC  H13B24631   6.632   7.520  12.520 -1.7117  0.2286  0.5682
  199DOPC  H13C24632   6.624   7.672  12.614  0.3596  1.3853  0.6907
  199DOPC   C1424633   6.739   7.355  12.719  0.5713 -0.9273  0.4331
  199DOPC  H14A24634   6.702   7.282  12.648 -0.2207  1.6857 -1.9928
  199DOPC  H14B24635   6.839   7.384  12.689  0.9528 -0.5004  2.0511
  199DOPC  H14C24636   6.750   7.313  12.818  3.1381  0.0706  0.6494
  199DOPC   C1524637   6.723   7.562  12.843  0.5492 -0.3114  0.7961
  199DOPC  H15A24638   6.809   7.617  12.808 -0.8750  2.8122  1.8591
  199DOPC  H15B24639   6.755   7.488  12.915 -2.7252 -0.2442  2.5021
  199DOPC  H15C24640   6.660   7.639  12.883  2.2115  0.7464  1.4676
  199DOPC   C1124641   6.435   7.588  12.784  0.5880  0.5233  0.0973
  199DOPC  H11A24642   6.334   7.551  12.812  0.5689 -0.5682 -1.2801
  199DOPC  H11B24643   6.470   7.638  12.876  0.6983  1.4981 -0.4572
  199DOPC     P24644   6.340   7.634  12.546 -0.1953  0.0334 -0.2004
  199DOPC   O1324645   6.315   7.486  12.529  0.3407  0.3466 -0.3095
  199DOPC   O1424646   6.417   7.695  12.437 -0.6500  0.5708  0.3347
  199DOPC   O1224647   6.429   7.676  12.677  0.4494  0.2255  0.2347
  199DOPC   O1124648   6.201   7.701  12.554  0.1714  0.6500  0.0062
  199DOPC    C124649   6.170   7.826  12.629  0.4361  0.3743  0.4847
  199DOPC    HA24650   6.067   7.850  12.596  0.3547 -2.2825 -1.6240
  199DOPC    HB24651   6.237   7.910  12.601 -0.0381  0.6694  0.2235
  199DOPC    C224652   6.174   7.813  12.784 -0.3903  0.3922 -0.2269
  199DOPC    HS24653   6.276   7.787  12.819 -0.4862  1.1766  0.6761
  199DOPC   O2124654   6.079   7.710  12.825  0.5861 -0.4210 -0.5470
  199DOPC   C2124655   6.099   7.668  12.949 -0.0124  0.5168  0.5870
  199DOPC   O2224656   6.195   7.695  13.025 -0.1107  0.5131  0.4956
  199DOPC   C2224657   5.997   7.557  12.980 -0.7223 -0.3922 -0.1317
  199DOPC   H2R24658   6.026   7.474  12.912  0.3446  1.1607 -1.6683
  199DOPC   H2S24659   5.895   7.588  12.949 -1.2895  0.8070  2.6189
  199DOPC    C324660   6.140   7.948  12.855  1.2208 -0.1514 -0.3859
  199DOPC    HX24661   6.033   7.972  12.833  0.7209 -1.1973  0.7544
  199DOPC    HY24662   6.205   8.027  12.814  1.9049  1.0772  2.7426
  199DOPC   O3124663   6.158   7.944  12.998 -0.4848  0.2522 -0.0345
  199DOPC   C3124664   6.285   7.967  13.046  0.0310  0.7389 -0.1181
  199DOPC   O3224665   6.383   7.990  12.975 -0.1827 -0.1078 -0.2454
  199DOPC   C3224666   6.294   7.951  13.199 -0.4409 -0.0723 -0.2894
  199DOPC   H2X24667   6.185   7.954  13.223 -0.5737  1.4912 -0.9781
  199DOPC   H2Y24668   6.341   7.851  13.208  0.5150  0.4371  0.6022
  199DOPC   C2324669   5.990   7.511  13.126  0.3853  0.8111 -0.4129
  199DOPC   H3R24670   5.974   7.590  13.203  0.5135  0.7381 -0.3103
  199DOPC   H3S24671   6.083   7.451  13.137  0.9136  1.3974 -1.5746
  199DOPC   C2424672   5.867   7.402  13.133 -0.1951  0.5356 -0.0368
  199DOPC   H4R24673   5.895   7.318  13.065  1.5938 -0.8407  2.2618
  199DOPC   H4S24674   5.773   7.451  13.099 -0.2890  0.8226  0.6223
  199DOPC   C2524675   5.832   7.347  13.273  0.0480 -0.3629  0.2958
  199DOPC   H5R24676   5.740   7.286  13.263 -1.4348  1.0685  3.6476
  199DOPC   H5S24677   5.808   7.429  13.344  2.5872 -0.1174  0.9823
  199DOPC   C2624678   5.948   7.263  13.336  0.4604  0.0953  0.1339
  199DOPC   H6R24679   6.049   7.308  13.332  0.7262 -0.3856  1.1755
  199DOPC   H6S24680   5.956   7.162  13.291 -0.4746 -0.9939  2.2684
  199DOPC   C2724681   5.919   7.247  13.485 -0.5298 -0.2242 -0.1676
  199DOPC   H7R24682   5.828   7.188  13.506 -0.4509 -0.0677  0.6541
  199DOPC   H7S24683   5.895   7.348  13.526 -1.1926 -0.9451  1.3023
  199DOPC   C2824684   6.027   7.162  13.558 -0.6972 -0.2283  0.0583
  199DOPC   H8R24685   6.044   7.076  13.490  0.0170  1.0806 -1.4987
  199DOPC   H8S24686   5.984   7.124  13.653  1.2845 -0.1977  1.0011
  199DOPC   C2924687   6.161   7.240  13.577 -0.3234  0.9583  0.4316
  199DOPC   H9R24688   6.218   7.257  13.484  0.4371 -2.3689  0.1581
  199DOPC  C21024689   6.211   7.288  13.695  0.0751  1.5603 -0.1378
  199DOPC  H10R24690   6.310   7.335  13.689  3.1123 -3.7232  1.7184
  199DOPC  C21124691   6.148   7.281  13.828  0.2030  0.0112  0.1187
  199DOPC  H11R24692   6.231   7.238  13.888  0.3136  0.4381  0.2737
  199DOPC  H11S24693   6.058   7.217  13.836 -1.0630  1.0770 -3.6036
  199DOPC  C21224694   6.107   7.414  13.889  0.2436  0.1437  0.1375
  199DOPC  H12R24695   6.161   7.502  13.850  2.0919 -1.3206 -0.7660
  199DOPC  H12S24696   6.140   7.403  13.995  0.3389 -0.7425  0.0262
  199DOPC  C21324697   5.955   7.433  13.881  0.1084 -0.4945 -0.0758
  199DOPC  H13R24698   5.908   7.333  13.895 -1.0972  0.1244  0.5169
  199DOPC  H13S24699   5.926   7.472  13.781 -1.6411 -1.6410 -0.0662
  199DOPC  C21424700   5.900   7.528  13.986  0.0387 -0.3399  0.4606
  199DOPC  H14R24701   5.940   7.631  13.971 -1.4664  0.7909  3.4573
  199DOPC  H14S24702   5.927   7.498  14.089  0.8334 -0.8035  0.1315
  199DOPC  C21524703   5.746   7.522  13.985 -0.1397  0.2931 -0.2575
  199DOPC  H15R24704   5.724   7.420  14.023 -0.0166  0.0915 -0.7196
  199DOPC  H15S24705   5.715   7.534  13.879  0.8145  0.2559 -0.5511
  199DOPC  C21624706   5.677   7.624  14.078 -0.3441 -0.0077  0.5963
  199DOPC  H16R24707   5.725   7.626  14.179 -1.1049 -1.8162  1.0232
  199DOPC  H16S24708   5.571   7.590  14.083 -0.0321 -1.6258 -1.9674
  199DOPC  C21724709   5.686   7.774  14.037 -0.2700  0.1248  0.7000
  199DOPC  H17R24710   5.675   7.788  13.928 -1.5356  1.5059  0.9689
  199DOPC  H17S24711   5.777   7.827  14.074  0.0374 -0.2725  0.5089
  199DOPC  C21824712   5.575   7.859  14.096 -0.4178 -0.0685  0.0264
  199DOPC  H18R24713   5.593   7.961  14.057 -1.9610 -0.0511 -0.7073
  199DOPC  H18S24714   5.581   7.858  14.207 -2.7680 -2.0286  0.2161
  199DOPC  H18T24715   5.475   7.821  14.065  0.4498 -2.2741 -0.3025
  199DOPC   C3324716   6.349   8.063  13.286  0.0243  0.4937 -0.9133
  199DOPC   H3X24717   6.310   8.164  13.261  0.0882  0.8249  0.2543
  199DOPC   H3Y24718   6.460   8.060  13.289 -0.0162 -2.2650  0.0302
  199DOPC   C3424719   6.302   8.048  13.430  0.0181 -0.3457  0.2250
  199DOPC   H4X24720   6.318   7.943  13.461 -2.0672 -0.8650 -0.2967
  199DOPC   H4Y24721   6.192   8.062  13.431 -0.0229 -0.6381 -0.0141
  199DOPC   C3524722   6.361   8.144  13.530 -0.4724  0.1875  0.7909
  199DOPC   H5X24723   6.347   8.247  13.491  1.7173 -0.0559 -0.7926
  199DOPC   H5Y24724   6.470   8.128  13.544 -0.2340  1.1514  0.1266
  199DOPC   C3624725   6.299   8.117  13.671 -0.2998 -0.3327 -0.7082
  199DOPC   H6X24726   6.189   8.130  13.677 -0.3619 -0.4564 -1.5361
  199DOPC   H6Y24727   6.332   8.014  13.697 -0.3069 -0.4055 -0.9911
  199DOPC   C3724728   6.370   8.219  13.765  0.2097 -0.9060  0.1351
  199DOPC   H7X24729   6.361   8.193  13.872  1.1379  1.9667  1.0092
  199DOPC   H7Y24730   6.479   8.216  13.743  0.5111 -1.5783  1.6597
  199DOPC   C3824731   6.309   8.360  13.748 -0.6277 -0.0257  0.2120
  199DOPC   H8X24732   6.225   8.379  13.818 -2.4569  0.9556 -2.0801
  199DOPC   H8Y24733   6.261   8.370  13.648  1.3439 -1.9238 -1.0114
  199DOPC   C3924734   6.405   8.480  13.756  0.0730 -0.0941 -0.2365
  199DOPC   H9X24735   6.476   8.487  13.672  0.1376 -0.8923 -0.2514
  199DOPC  C31024736   6.413   8.572  13.848 -0.2303 -0.4790 -0.1398
  199DOPC  H10X24737   6.497   8.643  13.846 -1.1640  0.6329 -1.1476
  199DOPC  C31124738   6.335   8.580  13.972 -0.4940 -0.0699  0.6473
  199DOPC  H11X24739   6.284   8.484  13.992  0.9267 -1.1199 -0.5056
  199DOPC  H11Y24740   6.258   8.657  13.955 -1.8079 -1.4553  0.1655
  199DOPC  C31224741   6.417   8.621  14.098  0.5147  0.4508 -0.1567
  199DOPC  H12X24742   6.342   8.629  14.180  0.8860 -0.5376  0.2830
  199DOPC  H12Y24743   6.469   8.718  14.082  1.5089  0.2405  1.5904
  199DOPC  C31324744   6.533   8.527  14.127  0.8884 -0.4377 -0.6787
  199DOPC  H13X24745   6.483   8.431  14.152 -0.1074 -0.2342 -1.8466
  199DOPC  H13Y24746   6.586   8.518  14.030  1.9357  1.4854 -0.3282
  199DOPC  C31424747   6.624   8.588  14.235  0.5039 -0.0820 -0.1561
  199DOPC  H14X24748   6.723   8.538  14.228  1.3328  1.4622  0.0822
  199DOPC  H14Y24749   6.640   8.697  14.217  1.1118 -0.1428  0.0282
  199DOPC  C31524750   6.559   8.578  14.372  0.0890 -0.3214  0.5946
  199DOPC  H15X24751   6.534   8.472  14.394 -0.8749 -0.3317 -0.4336
  199DOPC  H15Y24752   6.461   8.632  14.373  0.3684  0.2587 -0.6245
  199DOPC  C31624753   6.635   8.624  14.492  0.8035 -0.0943 -0.0941
  199DOPC  H16X24754   6.574   8.621  14.584 -0.2731 -1.7511 -0.8226
  199DOPC  H16Y24755   6.720   8.557  14.514  0.9570 -0.0626 -0.5764
  199DOPC  C31724756   6.684   8.771  14.494 -0.1879  0.0401  0.6770
  199DOPC  H17X24757   6.766   8.791  14.422  0.0514  1.9992  1.4292
  199DOPC  H17Y24758   6.599   8.839  14.473  0.4784  0.4220 -0.8927
  199DOPC  C31824759   6.737   8.820  14.628  0.1508  0.0120  0.6842
  199DOPC  H18X24760   6.738   8.931  14.626  0.7358  0.0195  1.0110
  199DOPC  H18Y24761   6.655   8.786  14.695 -1.8090 -0.1173 -1.6555
  199DOPC  H18Z24762   6.837   8.789  14.667  0.2999  1.1254  1.2307
  200DOPC     N24763   1.215   7.351  12.151 -0.3003 -0.1943  0.2066
  200DOPC   C1224764   1.117   7.421  12.243 -0.3572 -0.1521  1.0715
  200DOPC  H12A24765   1.042   7.348  12.271 -2.0714  1.3581  0.5923
  200DOPC  H12B24766   1.079   7.508  12.191 -0.8263 -0.3080  1.1434
  200DOPC   C1324767   1.144   7.247  12.063 -1.0224 -0.5195 -0.3911
  200DOPC  H13A24768   1.047   7.288  12.039 -0.1790  1.2824 -0.8795
  200DOPC  H13B24769   1.206   7.218  11.979 -0.9400  0.0744 -0.5399
  200DOPC  H13C24770   1.140   7.147  12.103  3.3520  0.1619  2.4086
  200DOPC   C1424771   1.326   7.276  12.219 -0.0851 -0.6033 -0.0016
  200DOPC  H14A24772   1.380   7.223  12.142  0.5397  1.0039 -0.7118
  200DOPC  H14B24773   1.396   7.345  12.264 -1.3981  0.2695  0.7654
  200DOPC  H14C24774   1.291   7.214  12.300  0.6947 -1.2748 -0.1742
  200DOPC   C1524775   1.281   7.451  12.063 -0.6233 -0.5506 -0.1018
  200DOPC  H15A24776   1.275   7.548  12.111 -0.8540 -0.7429  0.2690
  200DOPC  H15B24777   1.224   7.459  11.972 -0.9136 -0.4068  0.0872
  200DOPC  H15C24778   1.386   7.434  12.045 -0.3434  1.2454 -0.3819
  200DOPC   C1124779   1.168   7.479  12.377  0.0800 -0.1031 -0.1217
  200DOPC  H11A24780   1.079   7.531  12.419  0.4978  0.1821  0.4256
  200DOPC  H11B24781   1.194   7.394  12.443 -2.1401  0.4686  1.6543
  200DOPC     P24782   1.408   7.561  12.438 -0.5235  0.6596 -0.0161
  200DOPC   O1324783   1.517   7.535  12.341 -0.2724  0.2526 -0.3293
  200DOPC   O1424784   1.399   7.457  12.551  0.5807  0.1354 -0.5846
  200DOPC   O1224785   1.274   7.578  12.358  0.2885  0.2281  0.1269
  200DOPC   O1124786   1.434   7.703  12.498 -0.0603 -0.1834  0.0403
  200DOPC    C124787   1.326   7.794  12.504  0.6331 -0.3189 -0.7574
  200DOPC    HA24788   1.224   7.762  12.535  0.7737  0.2461  0.3320
  200DOPC    HB24789   1.310   7.839  12.404  1.3627  2.0643  0.1251
  200DOPC    C224790   1.359   7.912  12.604 -0.0355  0.3882  0.3048
  200DOPC    HS24791   1.449   7.959  12.558 -0.2789 -0.2037 -0.8059
  200DOPC   O2124792   1.376   7.856  12.730 -0.1149  0.0769 -0.1748
  200DOPC   C2124793   1.425   7.938  12.820  0.4668 -0.4361 -0.2770
  200DOPC   O2224794   1.471   8.050  12.789  0.3053  0.0418 -0.1600
  200DOPC   C2224795   1.422   7.876  12.961  0.1448  0.3713  0.0737
  200DOPC   H2R24796   1.476   7.780  12.946  1.3767  1.1744 -0.7935
  200DOPC   H2S24797   1.315   7.845  12.973  0.0646  1.1654  1.7358
  200DOPC    C324798   1.238   8.023  12.603 -0.0057  0.2990 -0.2054
  200DOPC    HX24799   1.243   8.077  12.506 -0.9414 -0.8451 -0.9190
  200DOPC    HY24800   1.263   8.098  12.681 -0.0255 -1.5201  1.6500
  200DOPC   O3124801   1.101   7.973  12.623 -0.0029 -0.0462  0.2690
  200DOPC   C3124802   1.058   7.961  12.749 -0.3878  0.2396  0.1111
  200DOPC   O3224803   1.115   7.982  12.854 -0.6552  0.4532  0.5415
  200DOPC   C3224804   0.917   7.898  12.751  0.4832  0.6878 -0.1288
  200DOPC   H2X24805   0.848   7.948  12.680  0.9872  0.4427 -0.8001
  200DOPC   H2Y24806   0.937   7.792  12.723  1.2053  0.6550  0.4683
  200DOPC   C2324807   1.465   7.970  13.074  0.0492  1.1733  0.4183
  200DOPC   H3R24808   1.397   8.058  13.076 -1.6268 -0.0851  0.9486
  200DOPC   H3S24809   1.573   7.997  13.067  1.0490 -1.5037  3.1839
  200DOPC   C2424810   1.444   7.903  13.217  0.0409 -1.1703 -0.3372
  200DOPC   H4R24811   1.484   7.974  13.292 -1.7853 -0.0674 -0.3481
  200DOPC   H4S24812   1.511   7.814  13.223  0.6355 -0.6332  1.3021
  200DOPC   C2524813   1.312   7.854  13.271  0.4503  0.2389  0.1653
  200DOPC   H5R24814   1.315   7.838  13.381  0.6692 -0.2161  0.0974
  200DOPC   H5S24815   1.296   7.754  13.225  1.8889 -0.3993  1.0022
  200DOPC   C2624816   1.191   7.944  13.222 -0.0753  0.4122 -0.2468
  200DOPC   H6R24817   1.193   7.944  13.111 -0.1534  0.4666 -0.2485
  200DOPC   H6S24818   1.203   8.049  13.256 -0.7419  0.7520 -1.0265
  200DOPC   C2724819   1.054   7.896  13.277  0.1053  0.3363 -0.5892
  200DOPC   H7R24820   1.048   7.789  13.247 -2.6287  0.8321 -2.1150
  200DOPC   H7S24821   0.967   7.937  13.222  0.6138  0.8013 -1.0575
  200DOPC   C2824822   1.040   7.934  13.423  0.3762  0.5411  0.0092
  200DOPC   H8R24823   1.033   8.045  13.424 -0.8532  0.5082  2.2634
  200DOPC   H8S24824   1.129   7.907  13.483 -0.3113 -0.4789  0.5999
  200DOPC   C2924825   0.931   7.866  13.493  0.0787  0.3586 -0.2929
  200DOPC   H9R24826   0.898   7.777  13.437  0.9402  1.3191 -2.4057
  200DOPC  C21024827   0.860   7.911  13.601 -0.1659  0.4937 -0.8528
  200DOPC  H10R24828   0.767   7.855  13.620 -0.6967  1.7564  0.4666
  200DOPC  C21124829   0.873   8.038  13.679  0.0372 -0.0540  1.0006
  200DOPC  H11R24830   0.772   8.078  13.656  0.2601 -0.3400 -0.6010
  200DOPC  H11S24831   0.957   8.103  13.645 -1.1166  0.8234 -0.2982
  200DOPC  C21224832   0.886   8.028  13.825  0.2844  0.0498  0.3816
  200DOPC  H12R24833   0.977   7.966  13.834 -1.1780 -2.7528 -2.2163
  200DOPC  H12S24834   0.808   7.965  13.873 -0.0155  0.7298  0.8105
  200DOPC  C21324835   0.902   8.164  13.901  0.3871 -0.8900 -0.3247
  200DOPC  H13R24836   0.809   8.225  13.896  1.3920  0.7533  0.2192
  200DOPC  H13S24837   0.969   8.231  13.842 -1.8470  0.3603 -1.5781
  200DOPC  C21424838   0.938   8.149  14.050 -0.3947  0.3667 -0.3219
  200DOPC  H14R24839   1.018   8.072  14.056  0.2431  1.0395  0.0643
  200DOPC  H14S24840   0.845   8.116  14.102 -0.2074  2.3960  1.4587
  200DOPC  C21524841   0.985   8.276  14.117 -0.0487  0.2402  0.6418
  200DOPC  H15R24842   1.081   8.291  14.063 -0.7801  1.8920 -0.2734
  200DOPC  H15S24843   1.010   8.263  14.224 -0.5933 -1.0268  0.6366
  200DOPC  C21624844   0.907   8.403  14.111 -0.1711  0.0753  0.3044
  200DOPC  H16R24845   0.808   8.381  14.156 -0.1884 -0.9660 -0.2090
  200DOPC  H16S24846   0.880   8.417  14.004  1.5232  0.9917 -0.0334
  200DOPC  C21724847   0.964   8.527  14.181  0.2169 -0.0228  0.0180
  200DOPC  H17R24848   1.064   8.545  14.136  0.5282 -0.5244  0.4899
  200DOPC  H17S24849   0.994   8.494  14.283  0.5419 -0.4975 -0.2252
  200DOPC  C21824850   0.879   8.658  14.177 -0.4823  0.1073  0.3674
  200DOPC  H18R24851   0.931   8.731  14.243  0.0677 -1.2719  1.4913
  200DOPC  H18S24852   0.782   8.627  14.219 -1.8374 -1.2554 -3.3222
  200DOPC  H18T24853   0.865   8.700  14.075  0.7586 -0.6796 -0.1522
  200DOPC   C3324854   0.859   7.907  12.892  0.1040 -0.0112 -0.2566
  200DOPC   H3X24855   0.838   8.010  12.928 -0.4858  0.0510 -0.7504
  200DOPC   H3Y24856   0.929   7.854  12.960  3.4522  1.2056 -2.5041
  200DOPC   C3424857   0.721   7.831  12.897 -0.5672  0.5049  0.3206
  200DOPC   H4X24858   0.733   7.730  12.853 -0.5398  0.4841  0.3747
  200DOPC   H4Y24859   0.653   7.891  12.833 -0.6156  0.0517 -0.0515
  200DOPC   C3524860   0.674   7.805  13.037 -0.0302  0.4836  0.3967
  200DOPC   H5X24861   0.724   7.732  13.104  1.9001  2.5523  1.3366
  200DOPC   H5Y24862   0.573   7.760  13.025 -0.4420  0.9091  2.0895
  200DOPC   C3624863   0.666   7.940  13.113  0.1007  0.4123 -0.3475
  200DOPC   H6X24864   0.769   7.980  13.126  0.0155  0.7045 -0.5453
  200DOPC   H6Y24865   0.603   8.010  13.053 -0.2423  0.1168 -0.3335
  200DOPC   C3724866   0.597   7.921  13.251  0.2126 -1.0344  0.5673
  200DOPC   H7X24867   0.501   7.866  13.239  0.0320 -0.7449  0.6780
  200DOPC   H7Y24868   0.664   7.861  13.316  0.5998  0.4781  1.6125
  200DOPC   C3824869   0.564   8.059  13.305  0.3579 -0.3037 -0.5492
  200DOPC   H8X24870   0.497   8.045  13.393 -1.6294 -0.0776 -1.9557
  200DOPC   H8Y24871   0.485   8.106  13.242 -0.2146 -0.0593  0.3232
  200DOPC   C3924872   0.674   8.157  13.323 -0.6178 -0.2433 -0.6017
  200DOPC   H9X24873   0.766   8.127  13.272 -0.0885  0.7565 -0.2668
  200DOPC  C31024874   0.671   8.256  13.420 -0.5831  0.3270  0.5200
  200DOPC  H10X24875   0.754   8.328  13.416 -0.9300  0.6824 -0.4342
  200DOPC  C31124876   0.568   8.303  13.514  0.4772  0.2002 -0.2524
  200DOPC  H11X24877   0.500   8.222  13.547  0.4509  0.9923  1.7574
  200DOPC  H11Y24878   0.500   8.376  13.466 -1.2962 -0.9683  0.3832
  200DOPC  C31224879   0.622   8.355  13.649  0.2855 -0.8653 -0.0896
  200DOPC  H12X24880   0.721   8.403  13.635 -0.4963  0.6678 -0.4725
  200DOPC  H12Y24881   0.638   8.269  13.719  1.2213 -1.4307 -0.9548
  200DOPC  C31324882   0.527   8.461  13.711  0.1856 -0.0348  0.4382
  200DOPC  H13X24883   0.503   8.529  13.627 -2.1109 -1.9581 -0.5623
  200DOPC  H13Y24884   0.428   8.417  13.733  0.3685 -0.0680  1.2531
  200DOPC  C31424885   0.582   8.542  13.826  0.0251  0.8777  0.4304
  200DOPC  H14X24886   0.623   8.469  13.899 -0.4700  0.5452  0.3828
  200DOPC  H14Y24887   0.662   8.602  13.779 -0.1780  0.4772 -0.4562
  200DOPC  C31524888   0.500   8.649  13.889  0.1656 -0.1776 -0.0277
  200DOPC  H15X24889   0.403   8.598  13.908  0.2306 -1.4328 -2.5423
  200DOPC  H15Y24890   0.474   8.722  13.809 -1.3138 -0.1282  0.4675
  200DOPC  C31624891   0.568   8.722  13.999 -0.1557 -0.1417 -0.6459
  200DOPC  H16X24892   0.545   8.657  14.087  1.7612 -0.6782 -0.5049
  200DOPC  H16Y24893   0.676   8.731  13.976 -0.3815  0.6224 -1.4373
  200DOPC  C31724894   0.509   8.852  14.037 -0.5857 -0.5579 -0.0578
  200DOPC  H17X24895   0.512   8.926  13.955 -0.2012  0.0034  0.4489
  200DOPC  H17Y24896   0.402   8.834  14.064 -0.8006  0.7884  0.0795
  200DOPC  C31824897   0.586   8.907  14.163  0.0087 -0.2062  0.7408
  200DOPC  H18X24898   0.559   8.844  14.250  2.2197  0.1848  1.7750
  200DOPC  H18Y24899   0.696   8.909  14.146 -0.0784  0.2039  0.1771
  200DOPC  H18Z24900   0.553   9.011  14.185 -0.2490  0.4235 -2.1954
  201SOD    SOD24901   0.015   5.076  17.032  0.1390  0.0928 -0.1733
  202SOD    SOD24902   4.999   6.851  10.051 -0.4806  0.1008 -0.3257
  203SOD    SOD24903   5.387   0.390  17.925 -0.0890 -0.0027 -0.0710
  204SOD    SOD24904   3.192   7.040  12.180 -0.1858  0.2518  0.0456
  205SOD    SOD24905   7.052   7.424  16.449 -0.1959  0.1566 -0.6586
  206SOD    SOD24906   1.693   4.379  10.750  0.0360 -0.0923  0.3655
  207SOD    SOD24907   1.393   3.327  11.765  0.3748  0.0055  0.2221
  208SOD    SOD24908   6.012   3.969  18.194  0.4495 -0.0237 -0.0677
  209SOD    SOD24909   5.835   6.136  11.755  0.2151 -0.0304 -0.2339
  210SOD    SOD24910   7.482   4.620  17.967 -0.1075 -0.0315 -0.0983
  211SOD    SOD24911   7.521   3.946  16.572  0.6126  0.5494 -0.3642
  212SOD    SOD24912   3.127   3.449  17.570  0.2654 -0.3767 -0.2222
  213SOD    SOD24913   3.633   3.532  11.246  0.1051 -0.2434  0.2956
  214SOD    SOD24914   0.986   0.133  17.091 -0.0764 -0.1361 -0.0114
  215SOD    SOD24915   0.204   0.298  16.870  0.0496  0.0664  0.5777
  216SOD    SOD24916   6.769   2.526  17.184 -0.1368  0.0317 -0.6653
  217SOD    SOD24917   6.554   2.561  11.172 -0.5754 -0.3789  0.4559
  218SOD    SOD24918   5.470   5.271  16.146  0.0449 -0.5606  0.5195
  219SOD    SOD24919   2.772   3.398  18.456  0.6899  0.1598  0.0440
  220SOD    SOD24920   0.436   3.845  10.862  0.6426  0.4240 -0.0047
  221SOD    SOD24921   0.683   0.812  10.539 -0.5800  0.4610 -0.4400
  222SOD    SOD24922   6.136   1.756  17.487  0.1794  0.3221 -0.3177
  223SOD    SOD24923   6.714   5.921  10.185 -0.3753 -0.3712  0.5078
  224SOD    SOD24924   4.438   7.515  11.013  0.5522 -0.5967  0.5618
  225SOD    SOD24925   1.449   7.109  10.219  0.4636  0.2305  0.2655
  226SOD    SOD24926   0.416   2.307  17.504  0.4484  0.4043 -0.4726
  227CLA    CLA24927   2.069   5.769  11.132 -0.0223 -0.2088  0.2908
  228CLA    CLA24928   3.490   2.481  10.535  0.0833  0.1201 -0.2096
  229CLA    CLA24929   7.284   6.758  10.625  0.0347  0.0644 -0.6773
  230CLA    CLA24930   6.922   0.891  16.794 -0.0406  0.3619 -0.5885
  231CLA    CLA24931   7.498   0.536  17.733 -0.1283 -0.0556  0.6980
  232CLA    CLA24932   5.797   2.035  17.435 -0.3728  0.0840  0.1371
  233CLA    CLA24933   0.467   4.689  17.208  0.1278  0.2785  0.1791
  234CLA    CLA24934   2.519   4.742  18.301  0.0237  0.2095  0.2359
  235CLA    CLA24935   4.784   2.477  10.227 -0.3689  0.6749 -0.1932
  236CLA    CLA24936   7.140   3.598  18.153  0.2372 -0.0841 -0.0809
  237CLA    CLA24937   3.139   2.370  17.396 -0.3801  0.0837  0.1415
  238CLA    CLA24938   0.526   1.040  11.880 -0.0041  0.2674  0.5225
  239CLA    CLA24939   4.055   3.337  11.528 -0.2255 -0.3721  0.0340
  240CLA    CLA24940   4.299   3.847  17.851  0.0673  0.1219  0.1331
  241CLA    CLA24941   1.156   2.736  11.609 -0.0571  0.2882  0.0009
  242CLA    CLA24942   7.625   5.603  17.036 -0.0688 -0.1505 -0.4431
  243CLA    CLA24943   4.830   5.011  11.138  0.0285  0.0061  0.0234
  244CLA    CLA24944   0.048   3.570  11.340  0.2937  0.0666  0.1666
  245CLA    CLA24945   4.587   7.457  10.787  0.3158 -0.1746  0.3073
  246CLA    CLA24946   3.840   2.499  18.151  0.1909  0.5582 -0.4871
  247CLA    CLA24947   1.600   6.724  10.227  0.0304  0.4497  0.0001
  248CLA    CLA24948   3.451   4.665  10.641 -0.4189 -0.2531 -0.3480
  249CLA    CLA24949   1.184   6.937  10.545 -0.0371 -0.0762  0.5604
  250CLA    CLA24950   4.378   6.393  17.941  0.1074  0.2670  0.3582
  251CLA    CLA24951   6.025   6.545  16.436  0.1661 -0.4558 -0.2614
  252CLA    CLA24952   3.218   1.281  11.322  0.5200  0.0852 -0.1551
  253TIP3   OH224953   1.219   3.489  16.668  0.2549  0.3888 -0.1440
  253TIP3    H124954   1.262   3.544  16.734  1.0973 -0.0500 -0.3085
  253TIP3    H224955   1.230   3.536  16.586 -0.9132  1.0011  0.0270
  254TIP3   OH224956   5.262   2.807  18.065 -0.3288 -0.3219  0.1517
  254TIP3    H124957   5.182   2.836  18.108 -0.7043 -1.1317  0.0217
  254TIP3    H224958   5.241   2.805  17.971  0.8591  2.6342 -0.2689
  255TIP3   OH224959   2.355   4.153  18.397 -0.0649 -0.0380  0.3874
  255TIP3    H124960   2.322   4.221  18.455  0.2874  1.1851 -0.7705
  255TIP3    H224961   2.446   4.141  18.424  0.6687  1.8500 -0.9762
  256TIP3   OH224962   2.797   5.997  15.850  0.4812  0.1411  0.1661
  256TIP3    H124963   2.710   6.020  15.818 -0.4076 -0.3798  2.0482
  256TIP3    H224964   2.782   5.967  15.940  2.7488  1.2172  0.9889
  257TIP3   OH224965   0.417   0.731  18.391 -0.4666  0.4353 -0.3190
  257TIP3    H124966   0.361   0.791  18.440  1.1869  0.0863  2.2460
  257TIP3    H224967   0.505   0.747  18.427  0.0215 -3.7108  0.8577
  258TIP3   OH224968   0.073   7.059  18.859  0.3943 -0.3570  0.3901
  258TIP3    H124969  -0.014   7.087  18.829  0.6300 -0.2347 -0.2047
  258TIP3    H224970   0.113   7.139  18.893  0.7005 -0.1571 -0.4071
  259TIP3   OH224971   7.511   4.274  15.997 -0.4778  0.3803 -0.3391
  259TIP3    H124972   7.480   4.217  16.068 -0.5750 -2.1820 -2.2646
  259TIP3    H224973   7.484   4.228  15.917  1.9043  1.7728 -2.0600
  260TIP3   OH224974   6.774   1.730  18.498 -0.1185 -0.1726  0.2112
  260TIP3    H124975   6.727   1.673  18.437 -0.4879 -0.2927  0.6018
  260TIP3    H224976   6.828   1.670  18.550  0.9458  0.0129 -0.6297
  261TIP3   OH224977   0.975   6.269  17.497  0.1621  0.1374 -0.0224
  261TIP3    H124978   1.011   6.324  17.428  1.1129 -1.1227 -0.5637
  261TIP3    H224979   0.958   6.330  17.570  0.9786  1.1609 -0.6644
  262TIP3   OH224980   3.615   3.633  16.507  0.1799 -0.1875  0.1653
  262TIP3    H124981   3.700   3.594  16.485  0.0779 -0.1896 -0.2320
  262TIP3    H224982   3.555   3.597  16.442 -0.5850 -1.9010  1.7360
  263TIP3   OH224983   1.287   0.514  17.943  0.2243  0.0337 -0.1918
  263TIP3    H124984   1.272   0.433  17.895 -0.0670  1.3863 -2.5045
  263TIP3    H224985   1.204   0.561  17.939  1.2622  1.8676 -1.8098
  264TIP3   OH224986   5.939   4.466  16.181  0.4352  0.5720  0.1910
  264TIP3    H124987   5.894   4.549  16.199  0.4689  0.3098  1.5437
  264TIP3    H224988   5.887   4.425  16.112  0.1894  1.5325 -0.2110
  265TIP3   OH224989   3.063   1.550  18.061  0.0565  0.1103  0.5216
  265TIP3    H124990   3.109   1.631  18.085  0.3850 -0.3011  1.3070
  265TIP3    H224991   3.027   1.518  18.144  0.1613 -0.6935  0.2567
  266TIP3   OH224992   5.966   3.838  16.706 -0.2561  0.4608 -0.1020
  266TIP3    H124993   5.967   3.772  16.636  0.8726  1.4807 -1.0986
  266TIP3    H224994   5.874   3.846  16.730 -0.3579 -2.0396  0.6298
  267TIP3   OH224995   4.556   7.361  17.551 -0.1525 -0.5818  0.2339
  267TIP3    H124996   4.649   7.384  17.558 -0.3941  0.3158  0.5763
  267TIP3    H224997   4.542   7.295  17.619  0.0315 -0.0474  0.7994
  268TIP3   OH224998   1.755   6.883  17.200 -0.3843  0.4183 -0.1475
  268TIP3    H124999   1.762   6.978  17.191 -1.7140  0.7977  2.0526
  268TIP3    H225000   1.830   6.849  17.151  0.7879  2.6628 -0.0722
  269TIP3   OH225001   2.278   5.599  18.850  0.4669 -0.0932 -0.3599
  269TIP3    H125002   2.198   5.652  18.844  0.5887  0.3244  1.2630
  269TIP3    H225003   2.349   5.663  18.852  0.6959 -0.3605  0.3903
  270TIP3   OH225004   7.602   5.592  16.609 -0.2595 -0.5298  0.0978
  270TIP3    H125005   7.642   5.521  16.659  0.8138 -2.0890 -2.7184
  270TIP3    H225006   7.674   5.627  16.556 -1.3752  0.8196 -0.5770
  271TIP3   OH225007   3.749   4.558  18.304  0.3391 -0.2361 -0.6191
  271TIP3    H125008   3.718   4.620  18.238 -0.9172 -0.9638 -0.7440
  271TIP3    H225009   3.669   4.519  18.340  1.0799 -1.5096 -0.2808
  272TIP3   OH225010   0.401   0.162  17.445  0.5733  0.3019  0.2103
  272TIP3    H125011   0.438   0.250  17.435  2.7519 -0.6794 -0.7574
  272TIP3    H225012   0.333   0.157  17.378  1.9456  0.5239 -1.2512
  273TIP3   OH225013   6.958   0.738  15.970 -0.3586 -0.0331  0.3662
  273TIP3    H125014   6.926   0.709  15.885  0.2781  0.9859 -0.2510
  273TIP3    H225015   7.030   0.679  15.990  1.8401  1.8000 -1.5271
  274TIP3   OH225016   0.630   2.368  17.599  0.0240  0.1162  0.3962
  274TIP3    H125017   0.701   2.344  17.658 -0.8846  0.3983  1.6605
  274TIP3    H225018   0.657   2.451  17.560  0.8600 -0.3283  0.0115
  275TIP3   OH225019   6.308   6.356  17.590  0.0895 -0.5876 -0.5038
  275TIP3    H125020   6.313   6.320  17.678 -0.5093 -1.4575 -0.8062
  275TIP3    H225021   6.378   6.421  17.586 -0.2105 -0.1774  0.7629
  276TIP3   OH225022   0.536   7.365  18.789  0.0689 -0.1047 -0.1872
  276TIP3    H125023   0.599   7.303  18.754 -0.2449 -0.1693 -0.6439
  276TIP3    H225024   0.490   7.399  18.712 -1.3729 -1.0340  0.2227
  277TIP3   OH225025   1.194   7.609  17.799 -0.4622 -0.0593  0.0960
  277TIP3    H125026   1.228   7.654  17.876  0.5652  0.0004 -0.3815
  277TIP3    H225027   1.242   7.526  17.796  0.8386  0.6901 -1.4595
  278TIP3   OH225028   2.961   1.239  15.817 -0.7065 -0.3730 -0.4253
  278TIP3    H125029   2.868   1.225  15.800 -0.3461 -2.9235 -0.7521
  278TIP3    H225030   3.005   1.202  15.740  0.5967  0.4456 -0.1084
  279TIP3   OH225031   6.870   4.549  18.596 -0.0537 -0.6999 -0.2788
  279TIP3    H125032   6.917   4.493  18.657  1.1010  0.2179 -0.2976
  279TIP3    H225033   6.842   4.490  18.526 -0.5202 -1.5767  0.6308
  280TIP3   OH225034   1.251   6.736  17.109 -0.1306  0.0127 -0.2167
  280TIP3    H125035   1.238   6.743  17.015 -1.4732  1.0244  0.0073
  280TIP3    H225036   1.336   6.693  17.119 -0.6422 -1.5164 -1.8832
  281TIP3   OH225037   3.471   2.653  18.584 -0.9027 -0.5505  0.3580
  281TIP3    H125038   3.494   2.630  18.674 -0.2942  0.9869  0.6313
  281TIP3    H225039   3.431   2.740  18.591 -0.3827 -0.1886 -0.9023
  282TIP3   OH225040   5.372   4.826  17.180  0.1674 -0.1604 -0.0149
  282TIP3    H125041   5.459   4.806  17.145  0.4161  0.6273  0.1174
  282TIP3    H225042   5.379   4.808  17.273  0.7833  1.6523  0.3375
  283TIP3   OH225043   5.597   7.499  17.093 -0.0542  0.0560  0.1749
  283TIP3    H125044   5.564   7.572  17.041  0.4448  0.9417  1.0420
  283TIP3    H225045   5.578   7.421  17.042 -0.7806  0.7851 -0.6922
  284TIP3   OH225046   0.986   4.776  10.054 -0.2163 -0.0532  0.2958
  284TIP3    H125047   0.993   4.703   9.993  0.5039  0.6229 -0.4623
  284TIP3    H225048   0.893   4.797  10.057 -0.2994 -0.3430 -0.2688
  285TIP3   OH225049   3.701   0.226  10.346  0.4455  0.3253  0.1975
  285TIP3    H125050   3.694   0.273  10.263 -2.6227 -1.6985 -0.8560
  285TIP3    H225051   3.643   0.273  10.406 -1.6165 -1.1982 -0.4879
  286TIP3   OH225052   2.098   5.620  11.989  0.2263  0.0677  0.3068
  286TIP3    H125053   2.127   5.582  12.071  0.5471 -0.3433  0.0110
  286TIP3    H225054   2.115   5.714  11.999  1.0750 -0.0834  0.3911
  287TIP3   OH225055   1.642   2.652   9.977 -0.0037 -0.2342  0.4450
  287TIP3    H125056   1.594   2.717  10.029 -2.0385 -0.6750 -0.7622
  287TIP3    H225057   1.663   2.698   9.896  1.1573 -0.2230  0.7412
  288TIP3   OH225058   4.230   5.619  11.924 -0.0478 -0.5675  0.1173
  288TIP3    H125059   4.178   5.684  11.877  0.5826  1.2540  1.7766
  288TIP3    H225060   4.171   5.585  11.991  0.2362 -0.0693  0.6336
  289TIP3   OH225061   0.259   3.939  12.340  0.9028 -0.2273 -0.2790
  289TIP3    H125062   0.247   3.846  12.326 -1.4411  0.3115 -2.6305
  289TIP3    H225063   0.326   3.965  12.277  1.8977 -0.3524  0.6965
  290TIP3   OH225064   1.286   3.260  10.695  0.1409 -0.0400  0.1553
  290TIP3    H125065   1.294   3.256  10.791  1.4826  2.4147  0.2306
  290TIP3    H225066   1.279   3.168  10.668 -1.5646 -0.7529  2.6547
  291TIP3   OH225067   0.086   7.452  11.628 -0.2667 -0.1712 -0.0057
  291TIP3    H125068   0.118   7.503  11.554 -0.7578  1.3643  0.7956
  291TIP3    H225069   0.020   7.508  11.670 -1.0975 -1.6067  0.7204
  292TIP3   OH225070   2.399   4.981  11.396  0.2952  0.0446 -0.1123
  292TIP3    H125071   2.452   4.949  11.323  0.0041 -1.0158  0.1195
  292TIP3    H225072   2.452   4.964  11.473  0.0412 -0.1014  0.0332
  293TIP3   OH225073   3.276   4.824  10.881  0.3870  0.2205  0.2440
  293TIP3    H125074   3.187   4.795  10.861 -0.3963  1.7580  1.2647
  293TIP3    H225075   3.332   4.762  10.836 -1.1887 -1.3279  0.3043
  294TIP3   OH225076   5.717   4.262  10.627  0.3805  0.4868 -0.1049
  294TIP3    H125077   5.771   4.196  10.582 -0.9244 -0.3825 -0.4587
  294TIP3    H225078   5.640   4.271  10.571 -0.0441  1.3747  0.6119
  295TIP3   OH225079   7.321   6.274  11.445  0.0406 -0.4009 -0.5326
  295TIP3    H125080   7.282   6.360  11.433  0.6937 -0.2646 -1.9501
  295TIP3    H225081   7.347   6.271  11.537  0.0286  0.9152 -0.4738
  296TIP3   OH225082   0.741   6.729  12.323 -0.4217  0.2254  0.1007
  296TIP3    H125083   0.751   6.766  12.411  0.4817 -0.3064  0.2359
  296TIP3    H225084   0.775   6.797  12.265  2.0732 -0.6577  0.4065
  297TIP3   OH225085   4.693   3.503  10.514 -0.3465  0.7803  0.1827
  297TIP3    H125086   4.660   3.574  10.460  0.0637 -0.5876 -1.9624
  297TIP3    H225087   4.786   3.525  10.528 -0.0704  0.3901 -0.9784
  298TIP3   OH225088   4.563   3.885  11.086 -0.0193  0.6286  0.2360
  298TIP3    H125089   4.577   3.812  11.147  0.0781  2.3764  2.4147
  298TIP3    H225090   4.469   3.900  11.087  0.1655  1.8612  1.4805
  299TIP3   OH225091   4.407   7.093  10.408 -0.0548  0.4604  0.0416
  299TIP3    H125092   4.314   7.095  10.432  0.4203  1.9050  1.9852
  299TIP3    H225093   4.451   7.142  10.477  1.9808  1.2842 -1.7249
  300TIP3   OH225094   2.788   1.676  10.975  0.3306  0.0065 -0.1080
  300TIP3    H125095   2.773   1.759  10.929 -0.7764 -0.5632 -0.8383
  300TIP3    H225096   2.877   1.682  11.008 -0.9019  3.0856  3.2399
  301TIP3   OH225097   7.398   3.376  10.466 -0.5607  0.1455 -0.2104
  301TIP3    H125098   7.461   3.321  10.512 -0.5356  0.2627 -0.1039
  301TIP3    H225099   7.447   3.411  10.391 -0.8227 -0.6606 -0.7676
  302TIP3   OH225100   3.060   4.852   9.757 -0.1447  0.0033 -0.3071
  302TIP3    H125101   3.133   4.789   9.754  1.1330  1.2651  1.7671
  302TIP3    H225102   2.984   4.798   9.778  0.4517 -1.1554 -0.9698
  303TIP3   OH225103   6.671   6.222  11.413  0.8501  0.2163  0.1132
  303TIP3    H125104   6.680   6.294  11.350 -0.0581  0.3336  0.1024
  303TIP3    H225105   6.588   6.239  11.456  0.3150 -1.1705 -0.3336
  304TIP3   OH225106   4.527   7.438  12.661  0.0821 -0.0931 -0.0959
  304TIP3    H125107   4.613   7.398  12.657 -0.1845 -0.7472  0.4164
  304TIP3    H225108   4.529   7.509  12.597  0.7947 -0.4864 -0.5074
  305TIP3   OH225109   2.454   3.439  12.026  0.2515 -0.3727 -0.3777
  305TIP3    H125110   2.441   3.533  12.032  0.0882 -0.3668 -0.8104
  305TIP3    H225111   2.498   3.415  12.108 -1.0119 -0.1535  0.3737
  306TIP3   OH225112   5.816   1.722  10.641 -0.4179  0.7959 -0.3557
  306TIP3    H125113   5.854   1.651  10.588 -0.6743  0.3658  0.0270
  306TIP3    H225114   5.786   1.678  10.721 -1.0701  1.2498 -0.3482
  307TIP3   OH225115   7.496   7.477  10.903 -0.1834  0.0129 -0.1853
  307TIP3    H125116   7.519   7.494  10.994 -1.5477 -0.2046  0.2212
  307TIP3    H225117   7.542   7.395  10.882  2.0223  1.2355 -0.4705
  308TIP3   OH225118   7.290   1.487  11.608 -0.0232 -0.6326  0.1539
  308TIP3    H125119   7.213   1.517  11.560 -0.3359 -0.1389  0.9471
  308TIP3    H225120   7.319   1.408  11.561 -1.3097 -1.1175  0.1478
  309TIP3   OH225121   0.903   2.383  11.864 -0.3498 -0.1428  0.4913
  309TIP3    H125122   0.830   2.334  11.903 -0.5228 -2.4116 -2.3820
  309TIP3    H225123   0.977   2.323  11.867  0.6411  1.0543  0.7144
  310TIP3   OH225124   6.945   0.770  11.138  0.4840 -0.4752  0.6185
  310TIP3    H125125   7.013   0.770  11.206 -0.8757 -1.1451  2.0516
  310TIP3    H225126   6.923   0.678  11.126 -0.4377 -0.2424  0.4650
  311TIP3   OH225127   6.813   1.482  10.086  0.1988  0.0901  0.3876
  311TIP3    H125128   6.855   1.504  10.004 -0.4281  0.8864  0.2654
  311TIP3    H225129   6.851   1.542  10.150  0.8308 -0.6577  0.7337
  312TIP3   OH225130   5.140   1.707  11.468 -0.7514 -0.1800  0.4696
  312TIP3    H125131   5.060   1.657  11.455  0.9450 -2.7590 -0.9085
  312TIP3    H225132   5.181   1.710  11.382  0.3308  1.7132  0.9848
  313TIP3   OH225133   6.447   7.442  10.959 -0.0654  0.6722  0.4899
  313TIP3    H125134   6.519   7.503  10.973 -1.1314  2.2694 -0.7779
  313TIP3    H225135   6.413   7.426  11.047  1.6291  0.0561  1.0949
  314TIP3   OH225136   2.448   6.089  11.439 -0.7630 -0.6508  0.2597
  314TIP3    H125137   2.430   6.183  11.446 -1.0832 -0.7072  0.1656
  314TIP3    H225138   2.400   6.061  11.362  1.9009 -0.2384 -1.7039
  315TIP3   OH225139   2.548   5.865  10.969 -0.0634 -0.5614 -0.3675
  315TIP3    H125140   2.487   5.853  11.041 -1.4467 -0.1275 -1.4227
  315TIP3    H225141   2.579   5.776  10.949  1.3927 -0.5599  1.5785
  316TIP3   OH225142   3.199   5.780  12.042 -0.4228  0.1259  0.3165
  316TIP3    H125143   3.225   5.738  11.960  2.7007  1.0734  0.7018
  316TIP3    H225144   3.143   5.716  12.085 -1.1325 -0.8994 -1.9715
  317TIP3   OH225145   3.944   3.970  10.822  0.0769 -0.4678  0.0895
  317TIP3    H125146   3.862   4.017  10.837  0.5068  0.2320  0.2888
  317TIP3    H225147   3.921   3.902  10.759 -0.9794 -1.2295  1.2605
  318TIP3   OH225148   4.282   7.649  10.424  0.5671  0.5118  0.0111
  318TIP3    H125149   4.205   7.704  10.409  0.5967  0.5924  0.1567
  318TIP3    H225150   4.355   7.702  10.392  0.3584 -0.4147 -2.2024
  319TIP3   OH225151   2.661   7.268  11.506  0.1463 -0.6573 -0.2021
  319TIP3    H125152   2.583   7.214  11.508  1.4152 -2.5619  0.3066
  319TIP3    H225153   2.644   7.332  11.436 -1.6590 -1.2789 -0.3841
  320TIP3   OH225154   5.399   2.334  10.871 -0.1588 -0.0549 -0.1932
  320TIP3    H125155   5.458   2.401  10.906 -0.9917  0.1750  0.8225
  320TIP3    H225156   5.341   2.313  10.944  0.3758 -2.2540 -0.3220
  321TIP3   OH225157   4.632   3.131  12.376 -0.3719 -0.4784  0.1667
  321TIP3    H125158   4.654   3.044  12.342 -2.6931 -0.5996 -1.2559
  321TIP3    H225159   4.711   3.183  12.363  0.4102 -1.8649 -0.8609
  322TIP3   OH225160   2.480   2.940  10.968  0.1029  0.3657 -0.2652
  322TIP3    H125161   2.445   3.005  10.907 -0.2113  0.1260 -0.3407
  322TIP3    H225162   2.563   2.913  10.928 -0.9847 -1.2022 -1.6054
  323TIP3   OH225163   3.860   1.528  17.230 -0.3135  0.0504  0.2360
  323TIP3    H125164   3.852   1.621  17.209 -0.1504  0.1810  0.7296
  323TIP3    H225165   3.954   1.513  17.238 -0.1037 -0.8357 -2.7520
  324TIP3   OH225166   1.867   6.612  17.036  0.0480 -0.1421  0.2439
  324TIP3    H125167   1.926   6.687  17.027 -0.9864  0.7178  0.3630
  324TIP3    H225168   1.861   6.576  16.948  1.3861 -0.7517  0.3908
  325TIP3   OH225169   5.059   5.775  16.511  0.0961 -0.5984 -0.1039
  325TIP3    H125170   5.069   5.713  16.438 -0.7625 -1.2583  0.3106
  325TIP3    H225171   4.971   5.811  16.499  0.0433 -0.5280  0.4622
  326TIP3   OH225172   1.314   1.831  16.196 -0.8188 -0.3597  0.2424
  326TIP3    H125173   1.252   1.794  16.134 -1.7891  1.3918  0.1039
  326TIP3    H225174   1.332   1.760  16.258 -3.5549 -0.7175  0.7248
  327TIP3   OH225175   1.905   0.104  16.336  0.2374 -0.0767  0.2882
  327TIP3    H125176   1.840   0.043  16.302  0.8122 -0.9505  0.7180
  327TIP3    H225177   1.890   0.105  16.430  0.3322  0.3356  0.3016
  328TIP3   OH225178   6.063   7.461  17.871  0.3776  0.1299 -0.0702
  328TIP3    H125179   6.095   7.551  17.877 -0.6948  0.4651  0.7348
  328TIP3    H225180   6.119   7.421  17.804  0.0207  1.7641 -1.4170
  329TIP3   OH225181   4.466   2.732  16.419  0.2783  0.2143 -0.2969
  329TIP3    H125182   4.376   2.741  16.388  0.6406  0.2053 -1.4293
  329TIP3    H225183   4.519   2.764  16.345  1.1638  1.8465  0.9838
  330TIP3   OH225184   5.521   0.793  18.209 -0.6093  0.0899 -0.2371
  330TIP3    H125185   5.465   0.737  18.263  2.3382 -0.8233  2.1527
  330TIP3    H225186   5.523   0.877  18.255  0.5141 -0.1193  0.1204
  331TIP3   OH225187   1.072   6.469  17.323  0.0794  0.3527  0.4282
  331TIP3    H125188   1.162   6.437  17.337  0.0186  0.8769  2.3189
  331TIP3    H225189   1.050   6.439  17.235  2.0096 -0.0231  0.0151
  332TIP3   OH225190   6.055   2.093  17.243  0.1460  0.7251 -0.0944
  332TIP3    H125191   6.105   2.013  17.261  0.3362  1.0196  0.7306
  332TIP3    H225192   5.993   2.099  17.316 -1.9006 -0.2220 -1.6319
  333TIP3   OH225193   0.772   1.728  17.790 -0.2500 -0.1661 -0.4499
  333TIP3    H125194   0.771   1.632  17.790  0.5212 -0.1915 -1.5251
  333TIP3    H225195   0.864   1.751  17.779 -0.3292  0.7141  0.6522
  334TIP3   OH225196   4.594   0.495  17.713  0.2589 -0.1397 -0.4405
  334TIP3    H125197   4.607   0.492  17.807 -1.8149  0.4057 -0.1054
  334TIP3    H225198   4.619   0.408  17.682  1.3406 -0.1935  0.5211
  335TIP3   OH225199   3.710   4.357  17.937 -0.1215 -0.1998  0.7911
  335TIP3    H125200   3.688   4.296  18.006  0.6257  0.0423  1.2560
  335TIP3    H225201   3.725   4.302  17.860 -0.8982 -0.4743  0.8290
  336TIP3   OH225202   4.636   7.069  17.588 -0.2712  0.1095 -0.6030
  336TIP3    H125203   4.557   7.051  17.639 -0.9598  1.1051 -1.2831
  336TIP3    H225204   4.659   6.984  17.549  0.1100 -0.6016  1.0931
  337TIP3   OH225205   5.059   5.441  17.097 -0.2354  0.5422 -0.0881
  337TIP3    H125206   5.077   5.387  17.174  0.2215 -0.8421 -1.1182
  337TIP3    H225207   5.053   5.530  17.131  0.1322 -0.0084  1.5157
  338TIP3   OH225208   0.734   5.155  16.969  0.2046 -0.0511  0.1567
  338TIP3    H125209   0.711   5.063  16.983  0.8528 -0.3193 -0.4439
  338TIP3    H225210   0.764   5.158  16.878 -0.9190  0.9930 -0.2043
  339TIP3   OH225211   2.307   0.707  18.491  0.0781  0.2504 -0.0036
  339TIP3    H125212   2.235   0.720  18.552 -0.5616 -1.6620 -0.2810
  339TIP3    H225213   2.292   0.770  18.421 -1.2604 -0.0379  0.0108
  340TIP3   OH225214   1.492   3.383  16.799  0.0645  0.6572  0.1825
  340TIP3    H125215   1.518   3.292  16.813  2.3491  0.9663 -1.3784
  340TIP3    H225216   1.505   3.397  16.705 -0.9482  2.4088  0.2572
  341TIP3   OH225217   1.357   1.605  16.341  0.1199 -0.6809 -0.7284
  341TIP3    H125218   1.263   1.602  16.357  0.1941  1.6595  0.5614
  341TIP3    H225219   1.387   1.515  16.357 -1.6491 -1.1079  0.4514
  342TIP3   OH225220   2.904   1.908  17.480 -0.5227  0.4165 -0.2266
  342TIP3    H125221   2.901   1.812  17.487 -2.0464  0.3828 -0.9439
  342TIP3    H225222   2.985   1.933  17.524 -0.3423 -1.1657  0.3893
  343TIP3   OH225223   5.888   6.833  18.142 -0.5689 -0.1913 -0.0262
  343TIP3    H125224   5.801   6.863  18.167 -0.2353  0.1898  0.7309
  343TIP3    H225225   5.922   6.791  18.221 -0.0302 -0.2541 -0.2839
  344TIP3   OH225226   7.472   4.467  17.790  0.0974  0.1039  0.1095
  344TIP3    H125227   7.442   4.376  17.786  0.4636 -0.0227  0.1779
  344TIP3    H225228   7.465   4.499  17.700  3.2194 -1.0651 -0.7125
  345TIP3   OH225229   4.164   2.798  18.213  0.4628  0.0310 -0.0613
  345TIP3    H125230   4.185   2.757  18.130 -0.1470 -0.9129  0.2230
  345TIP3    H225231   4.124   2.882  18.190  0.9893  0.1114 -0.6842
  346TIP3   OH225232   2.913   3.527  16.991 -0.4637  0.3519 -0.0637
  346TIP3    H125233   2.879   3.470  16.921 -2.4952  1.3564  0.0078
  346TIP3    H225234   2.999   3.555  16.960 -0.4551 -0.8521 -1.2003
  347TIP3   OH225235   7.211   7.133  18.003  0.1796  0.1812 -0.2482
  347TIP3    H125236   7.301   7.135  18.035 -0.0198 -3.2462  0.9134
  347TIP3    H225237   7.161   7.182  18.069  0.7748 -0.6798  0.8782
  348TIP3   OH225238   3.723   1.447  19.061 -0.2924  0.4482 -0.1404
  348TIP3    H125239   3.788   1.416  18.997  0.0280  2.5074 -0.9011
  348TIP3    H225240   3.769   1.515  19.110 -1.7829  1.8300 -0.5817
  349TIP3   OH225241   0.513   2.693  17.998  0.2843 -0.2393  0.1905
  349TIP3    H125242   0.497   2.605  18.030  0.2563 -0.0718  0.6476
  349TIP3    H225243   0.533   2.744  18.077  0.4569  0.1268 -0.0848
  350TIP3   OH225244   2.993   0.847  15.832  0.3119 -0.3209  0.3862
  350TIP3    H125245   2.901   0.828  15.847  0.1262  0.7684  0.7241
  350TIP3    H225246   2.997   0.874  15.740  0.0971  0.6503  0.6474
  351TIP3   OH225247   4.330   1.592  18.644 -0.2955  0.0540  0.2309
  351TIP3    H125248   4.301   1.592  18.735 -0.4727  1.6791  0.2205
  351TIP3    H225249   4.401   1.657  18.642  0.1820 -0.4858 -0.6491
  352TIP3   OH225250   6.056   6.852  16.520 -0.0969  0.0230 -0.5596
  352TIP3    H125251   6.123   6.890  16.464  0.4389  0.5595  0.4334
  352TIP3    H225252   6.044   6.763  16.486  3.8077 -1.4872  1.4280
  353TIP3   OH225253   5.221   6.822  18.006 -0.2942 -0.1065 -0.1231
  353TIP3    H125254   5.218   6.874  17.926 -0.4019 -0.6482 -0.4701
  353TIP3    H225255   5.160   6.750  17.991 -0.8065  0.1300  0.6888
  354TIP3   OH225256   1.658   7.110  17.417  0.9339  0.4586  0.6165
  354TIP3    H125257   1.585   7.064  17.376  2.4777 -0.9007 -0.7704
  354TIP3    H225258   1.618   7.185  17.461 -1.0665  1.0444 -1.9387
  355TIP3   OH225259   1.799   0.504  18.278  0.5947 -0.0944 -0.0902
  355TIP3    H125260   1.817   0.485  18.186  0.2580  0.3776 -0.2570
  355TIP3    H225261   1.845   0.586  18.295  2.0059 -0.9939  0.6098
  356TIP3   OH225262   3.990   5.326  17.991  0.3245 -0.5142 -0.7640
  356TIP3    H125263   3.967   5.245  17.947  0.4524 -0.7053 -0.4813
  356TIP3    H225264   4.067   5.304  18.044  0.4870 -0.1576 -0.8463
  357TIP3   OH225265   7.126   1.362  18.859  0.0165 -0.0997  0.1306
  357TIP3    H125266   7.218   1.351  18.833 -0.1468  0.6767 -0.8535
  357TIP3    H225267   7.078   1.305  18.800 -0.1378 -0.5387  0.6766
  358TIP3   OH225268   5.415   6.879  17.635  0.6459 -1.2596 -0.0340
  358TIP3    H125269   5.326   6.909  17.656  0.3334 -1.3762 -1.1668
  358TIP3    H225270   5.435   6.817  17.705  0.9539  0.8195  1.8552
  359TIP3   OH225271   3.058   4.821  16.787 -0.2904  0.0921 -0.5844
  359TIP3    H125272   3.030   4.834  16.696  1.4588  1.5897 -0.9862
  359TIP3    H225273   3.111   4.898  16.806 -0.2562 -0.4143  1.5896
  360TIP3   OH225274   6.524   5.894  18.347 -0.1672 -0.2254 -0.7375
  360TIP3    H125275   6.541   5.826  18.412  0.9933 -0.9300 -1.7512
  360TIP3    H225276   6.430   5.907  18.350 -0.0699  0.4914  1.8100
  361TIP3   OH225277   3.034   0.613  15.980  0.0513  0.3590 -0.3194
  361TIP3    H125278   3.128   0.604  15.970  0.2811  0.8734  1.2156
  361TIP3    H225279   3.011   0.686  15.923  0.6522  0.5613 -0.3082
  362TIP3   OH225280   4.457   0.278  18.060  0.6046 -0.0744  0.4767
  362TIP3    H125281   4.420   0.286  17.972 -0.2321 -0.0199  0.8250
  362TIP3    H225282   4.380   0.275  18.118  1.1492  0.0588  1.2149
  363TIP3   OH225283   2.381   0.449  18.403 -0.1605 -0.1115 -0.6075
  363TIP3    H125284   2.385   0.528  18.457  0.3209 -0.7116  0.2509
  363TIP3    H225285   2.294   0.453  18.363 -0.8300 -0.0053  0.7788
  364TIP3   OH225286   7.250   0.793  17.349  0.1885  0.7314 -0.4199
  364TIP3    H125287   7.297   0.790  17.266  1.1561 -2.0705  0.1471
  364TIP3    H225288   7.316   0.818  17.413 -0.0089  0.5598 -0.1472
  365TIP3   OH225289   3.286   6.252  18.513 -0.3114 -0.6544  0.4231
  365TIP3    H125290   3.345   6.212  18.450 -2.2326 -1.3278 -1.0307
  365TIP3    H225291   3.342   6.311  18.564  1.3357 -0.1198 -1.8561
  366TIP3   OH225292   0.774   4.588  18.077  0.4083  0.4285  0.6645
  366TIP3    H125293   0.681   4.599  18.097  0.7126  0.8890  1.9659
  366TIP3    H225294   0.785   4.493  18.064 -0.1199  0.2843  1.2136
  367TIP3   OH225295   4.628   7.569  18.610 -0.3348 -0.6012  0.3366
  367TIP3    H125296   4.541   7.533  18.591 -0.1505 -0.2323 -1.3273
  367TIP3    H225297   4.645   7.544  18.701 -1.6843 -1.6743  0.3222
  368TIP3   OH225298   5.999   4.097  15.951 -0.6012  0.2935  0.1808
  368TIP3    H125299   6.057   4.157  15.904  0.8664 -0.1580  1.3457
  368TIP3    H225300   5.929   4.154  15.984  0.1866  1.1944  0.3495
  369TIP3   OH225301   2.975   0.530  17.043 -0.6323  0.3008  0.0621
  369TIP3    H125302   2.973   0.436  17.062 -1.0832  0.3271  0.1587
  369TIP3    H225303   3.053   0.542  16.988 -1.9195 -0.5414 -2.0693
  370TIP3   OH225304   2.170   6.700  16.523  0.1378 -0.4487  0.1276
  370TIP3    H125305   2.236   6.691  16.591  0.5873 -0.4126 -0.2979
  370TIP3    H225306   2.168   6.794  16.504 -0.1045 -0.4371  0.2078
  371TIP3   OH225307   6.122   5.481  18.545  0.3491 -0.1776 -0.4261
  371TIP3    H125308   6.028   5.475  18.529 -0.3967 -0.0256  3.0997
  371TIP3    H225309   6.154   5.392  18.533 -0.6374 -0.6397  0.2576
  372TIP3   OH225310   2.901   4.479  18.357 -0.1589 -0.8872 -0.2975
  372TIP3    H125311   2.822   4.425  18.364  0.4937 -1.9572 -0.7772
  372TIP3    H225312   2.870   4.569  18.361 -1.2368 -1.2904  1.1443
  373TIP3   OH225313   1.821   5.297  16.474 -0.5116 -0.1148  0.3367
  373TIP3    H125314   1.752   5.341  16.523 -0.1781 -1.4303  2.0866
  373TIP3    H225315   1.783   5.213  16.448  0.6321 -1.2498  2.1061
  374TIP3   OH225316   7.323   4.715  16.341  0.0789  0.3893 -0.0498
  374TIP3    H125317   7.415   4.729  16.318  0.2524 -2.8080 -1.8673
  374TIP3    H225318   7.326   4.649  16.411 -0.7791 -0.7545 -1.0404
  375TIP3   OH225319   5.348   5.432  16.898 -0.1230 -0.6760 -0.5999
  375TIP3    H125320   5.368   5.524  16.879  1.2316 -0.8399 -0.1060
  375TIP3    H225321   5.255   5.423  16.877 -0.5246  1.0373  0.2173
  376TIP3   OH225322   0.977   2.400  18.283  0.1469 -0.0211 -0.2741
  376TIP3    H125323   0.892   2.439  18.301  0.3298 -0.6190  2.3306
  376TIP3    H225324   1.029   2.471  18.246 -1.0869  0.7175 -0.6282
  377TIP3   OH225325   1.361   3.369  17.029 -0.5711  0.1888 -0.1125
  377TIP3    H125326   1.413   3.398  16.955 -0.0799 -1.1778 -0.3345
  377TIP3    H225327   1.413   3.395  17.106  0.1018 -0.4994 -0.3167
  378TIP3   OH225328   4.592   7.240  16.447  0.1068  0.1123  0.2044
  378TIP3    H125329   4.545   7.166  16.486  0.1338  0.7080  1.4133
  378TIP3    H225330   4.527   7.310  16.443  0.9353  1.0728  2.2723
  379TIP3   OH225331   1.479   4.180  18.573  0.0857 -0.0380 -0.6960
  379TIP3    H125332   1.392   4.211  18.597  0.2058 -0.1502 -0.0982
  379TIP3    H225333   1.474   4.085  18.579  0.7716  0.0005  1.2997
  380TIP3   OH225334   1.964   7.190  17.440  0.0407  0.1526  0.1551
  380TIP3    H125335   2.037   7.132  17.463  1.6526  2.3766  1.0348
  380TIP3    H225336   2.003   7.254  17.380 -0.6487  2.4112  1.9685
  381TIP3   OH225337   2.684   0.255  16.322 -0.6089  0.2363 -0.1869
  381TIP3    H125338   2.599   0.226  16.356 -0.6093  0.5860  0.1221
  381TIP3    H225339   2.734   0.278  16.400  0.8060 -2.6077 -0.1321
  382TIP3   OH225340   0.163   4.945  16.914  0.4726 -0.0976  0.1732
  382TIP3    H125341   0.216   4.865  16.922  0.4960 -0.2377 -1.1427
  382TIP3    H225342   0.145   4.952  16.821 -1.7426  0.0251  0.5487
  383TIP3   OH225343   3.424   5.627  16.029 -0.1413 -0.2844 -0.4054
  383TIP3    H125344   3.512   5.593  16.037 -0.0280 -0.0837 -0.7745
  383TIP3    H225345   3.435   5.722  16.027 -0.1488 -0.2779 -2.7958
  384TIP3   OH225346   6.600   3.508  18.644 -0.5085  0.1717  0.1696
  384TIP3    H125347   6.558   3.485  18.561 -2.1839  0.6510  0.8562
  384TIP3    H225348   6.687   3.467  18.638 -1.1088 -1.0103 -1.2249
  385TIP3   OH225349   7.298   0.496  17.502  0.3527  0.6964 -0.0529
  385TIP3    H125350   7.215   0.499  17.551  0.4838  3.4295  0.1665
  385TIP3    H225351   7.365   0.504  17.570  0.6636  1.1732 -0.4108
  386TIP3   OH225352   6.711   3.273  16.138  0.0860  0.1545  0.4523
  386TIP3    H125353   6.641   3.230  16.089  0.2351  1.8149 -1.3756
  386TIP3    H225354   6.779   3.207  16.146 -1.8727 -1.7561  2.9455
  387TIP3   OH225355   1.248   2.032  18.737  0.4998 -0.2371  0.2542
  387TIP3    H125356   1.205   2.114  18.710  0.7403 -0.5300 -1.0839
  387TIP3    H225357   1.338   2.042  18.707  0.8559 -0.4699  1.2407
  388TIP3   OH225358   2.933   3.731  18.533 -0.0698  0.1456  0.6669
  388TIP3    H125359   2.852   3.780  18.518 -0.2838  0.1422  1.7450
  388TIP3    H225360   2.922   3.650  18.483  0.4047  1.2678 -1.3717
  389TIP3   OH225361   3.115   1.918  16.877 -0.2077 -0.9869 -0.2563
  389TIP3    H125362   3.186   1.980  16.891  0.2600 -1.2817 -1.1953
  389TIP3    H225363   3.147   1.836  16.916 -1.0138 -0.5557  1.3962
  390TIP3   OH225364   1.369   4.629  17.922  0.0227  0.0435 -0.7041
  390TIP3    H125365   1.293   4.669  17.963 -0.1464 -0.8437 -0.1247
  390TIP3    H225366   1.443   4.685  17.949 -0.6103  2.1428 -2.9704
  391TIP3   OH225367   3.960   0.796  18.437  0.4390 -0.5849 -0.7704
  391TIP3    H125368   3.871   0.803  18.471  0.5030  0.7664 -0.8297
  391TIP3    H225369   4.013   0.843  18.502  0.9200 -0.2273 -1.4181
  392TIP3   OH225370   2.181   4.377  18.104  0.3080 -0.1230 -0.0099
  392TIP3    H125371   2.170   4.369  18.010 -0.8598  1.8068 -0.0800
  392TIP3    H225372   2.118   4.315  18.141 -2.2160  1.9903 -0.5280
  393TIP3   OH225373   6.320   5.811  18.102 -0.3265  0.1858 -0.3282
  393TIP3    H125374   6.266   5.871  18.050  0.7037 -0.0588 -1.7512
  393TIP3    H225375   6.322   5.851  18.189 -2.5846  0.3018 -0.2821
  394TIP3   OH225376   6.408   2.249  17.947  0.3841 -0.1390  0.5474
  394TIP3    H125377   6.399   2.245  18.042  0.6964  1.8151  0.7010
  394TIP3    H225378   6.319   2.258  17.915  0.3624  0.3381  0.7387
  395TIP3   OH225379   1.519   4.336  17.918 -0.8328 -0.1404 -0.1956
  395TIP3    H125380   1.479   4.420  17.943 -1.3230 -0.8359  1.4938
  395TIP3    H225381   1.450   4.290  17.870 -0.3625  0.6233 -1.6792
  396TIP3   OH225382   1.253   4.488  17.041  0.3288  0.1561 -0.5041
  396TIP3    H125383   1.271   4.416  16.980 -0.3449 -2.1733  1.9002
  396TIP3    H225384   1.168   4.466  17.080  0.6218  1.6780  1.0927
  397TIP3   OH225385   4.135   4.785  17.762  0.6539 -0.1751  0.6512
  397TIP3    H125386   4.188   4.725  17.815 -0.4600 -1.3166  0.5107
  397TIP3    H225387   4.181   4.869  17.768  0.5808 -0.2375  3.4298
  398TIP3   OH225388   2.405   4.179  18.098  0.0828  0.1341  0.1283
  398TIP3    H125389   2.372   4.120  18.030 -1.2706  1.8337 -0.7727
  398TIP3    H225390   2.335   4.184  18.163  0.4189  0.2997  0.4830
  399TIP3   OH225391   0.520   5.379  17.811  0.2548  0.5137 -0.3370
  399TIP3    H125392   0.508   5.369  17.905 -1.6005  2.0382 -0.3432
  399TIP3    H225393   0.594   5.440  17.803 -0.1176  1.0451  0.1744
  400TIP3   OH225394   6.003   6.948  17.241 -0.5153 -0.0989  0.2978
  400TIP3    H125395   6.031   7.039  17.239  0.4276 -0.3467 -1.8737
  400TIP3    H225396   6.084   6.898  17.227 -0.9911 -1.2922  1.5674
  401TIP3   OH225397   3.399   1.533  17.701  0.2915 -0.3403  0.2483
  401TIP3    H125398   3.426   1.509  17.790  1.5432  1.0613  0.2859
  401TIP3    H225399   3.477   1.520  17.647 -0.5797 -1.6042 -0.7664
  402TIP3   OH225400   7.251   5.382  18.295  0.2386 -0.0802  0.2503
  402TIP3    H125401   7.310   5.386  18.370  1.1182 -1.7539 -0.2877
  402TIP3    H225402   7.190   5.312  18.316 -0.6018  0.5948  0.1196
  403TIP3   OH225403   0.670   6.389  17.673  0.2466  0.1133 -0.4172
  403TIP3    H125404   0.643   6.472  17.711  0.0741 -0.1090 -0.0492
  403TIP3    H225405   0.745   6.411  17.618  0.0466  0.5513 -0.5227
  404TIP3   OH225406   6.855   5.033  16.255  0.1181 -0.7105  0.3351
  404TIP3    H125407   6.830   5.063  16.342  0.7147 -1.1261  0.6556
  404TIP3    H225408   6.877   5.113  16.207 -1.7475 -0.3310  0.0520
  405TIP3   OH225409   5.460   2.093  16.919  0.4673  0.0531  0.2570
  405TIP3    H125410   5.408   2.133  16.989  1.0926 -0.7536  1.1997
  405TIP3    H225411   5.522   2.162  16.893 -1.1058  1.0985 -1.0107
  406TIP3   OH225412   7.286   3.435  17.028 -0.4049 -0.2992  0.6940
  406TIP3    H125413   7.197   3.404  17.047 -0.9187  1.3659  1.2333
  406TIP3    H225414   7.339   3.356  17.026 -1.7252 -1.2508  1.3901
  407TIP3   OH225415   0.419   1.799  16.203 -0.5317 -0.9025  0.0763
  407TIP3    H125416   0.497   1.828  16.251 -0.7322 -1.3537  0.6809
  407TIP3    H225417   0.454   1.752  16.128 -0.1746  1.3133 -1.2519
  408TIP3   OH225418   5.316   0.773  17.027 -0.1172 -0.0900  0.5429
  408TIP3    H125419   5.282   0.686  17.005  1.0718 -0.0152 -1.9677
  408TIP3    H225420   5.284   0.790  17.116 -0.0739 -3.2363  1.2800
  409TIP3   OH225421   6.011   0.751  18.124  0.3833 -0.6999 -0.5663
  409TIP3    H125422   6.062   0.679  18.088  0.7206 -0.8286  0.1515
  409TIP3    H225423   5.978   0.717  18.208 -0.8663 -0.6204 -0.9925
  410TIP3   OH225424   2.607   0.865  17.937 -0.4854  0.2106  0.1858
  410TIP3    H125425   2.585   0.800  17.870 -0.5221  0.2155  0.1929
  410TIP3    H225426   2.620   0.946  17.888  0.0262  0.0957  0.1222
  411TIP3   OH225427   4.714   3.462  17.839  0.0442  0.4340 -0.2250
  411TIP3    H125428   4.726   3.511  17.920  1.4041  0.9612 -0.7036
  411TIP3    H225429   4.677   3.525  17.777 -0.5508  0.1623 -0.1534
  412TIP3   OH225430   4.655   3.527  16.861 -0.4279  0.1197  0.6931
  412TIP3    H125431   4.613   3.553  16.779 -1.1849 -0.4519  0.8927
  412TIP3    H225432   4.737   3.577  16.863 -1.3716  1.7205  0.5942
  413TIP3   OH225433   2.508   3.856  17.944 -0.5161 -0.2060  1.4854
  413TIP3    H125434   2.503   3.846  18.039 -0.9554  0.7375  1.5793
  413TIP3    H225435   2.435   3.913  17.922 -0.7734 -0.8924  0.4926
  414TIP3   OH225436   7.191   7.034  16.567 -0.1028  0.5895  0.7604
  414TIP3    H125437   7.230   6.954  16.601 -3.2413 -1.8356 -0.8544
  414TIP3    H225438   7.263   7.081  16.526  1.6969 -1.8582  0.9137
  415TIP3   OH225439   0.222   2.891  17.007 -0.0476  0.3888 -0.4701
  415TIP3    H125440   0.223   2.801  17.039 -0.2238  0.2203 -0.9294
  415TIP3    H225441   0.207   2.944  17.086 -0.2051  0.0026 -0.2347
  416TIP3   OH225442   3.247   3.315  18.127  0.1537 -0.1083 -0.3728
  416TIP3    H125443   3.154   3.339  18.125 -0.0216 -0.8192 -1.4216
  416TIP3    H225444   3.247   3.220  18.129  0.8702 -0.0999  0.5906
  417TIP3   OH225445   5.683   0.376  17.348  0.0941 -0.3239 -0.0664
  417TIP3    H125446   5.745   0.312  17.382 -1.7223 -1.8124  0.6149
  417TIP3    H225447   5.608   0.324  17.319 -1.3120  1.4682  0.1494
  418TIP3   OH225448   4.504   3.555  16.328  0.0482 -0.4179 -0.6023
  418TIP3    H125449   4.581   3.612  16.325 -0.4455  0.6405  2.6106
  418TIP3    H225450   4.533   3.473  16.288  3.2926 -0.4578  1.4617
  419TIP3   OH225451   3.007   6.481  15.870 -0.5418  0.0244 -0.0253
  419TIP3    H125452   3.013   6.576  15.879  0.1423  0.0580 -0.6644
  419TIP3    H225453   2.938   6.454  15.930  0.3467  0.7363  1.3555
  420TIP3   OH225454   4.901   4.044  17.147  0.4850  0.0432 -0.3916
  420TIP3    H125455   4.814   4.084  17.155  0.3853  0.0294 -1.3681
  420TIP3    H225456   4.885   3.950  17.142  0.7070 -0.1563  1.6559
  421TIP3   OH225457   4.918   0.519  17.875  0.4803 -0.4178  0.0562
  421TIP3    H125458   4.845   0.467  17.908  0.0555  0.7831  1.1044
  421TIP3    H225459   4.888   0.610  17.883  1.5385  0.0345 -0.8629
  422TIP3   OH225460   7.250   6.388  17.980 -0.1975 -0.1196 -1.0420
  422TIP3    H125461   7.306   6.349  18.047  0.9561 -0.3488 -2.1148
  422TIP3    H225462   7.187   6.319  17.959 -1.5898  0.4909  0.9003
  423TIP3   OH225463   3.589   0.233  16.107 -0.8099 -0.5563  1.0098
  423TIP3    H125464   3.613   0.325  16.106 -2.6749 -0.0389  0.4596
  423TIP3    H225465   3.577   0.210  16.015  2.8355 -2.3311  0.7701
  424TIP3   OH225466   3.013   7.403  18.261  0.0328 -0.3818 -0.2796
  424TIP3    H125467   2.932   7.447  18.235  0.1901  0.4132  0.5156
  424TIP3    H225468   2.989   7.353  18.339  0.7493  1.6064  1.3106
  425TIP3   OH225469   1.299   2.302  15.975 -0.0632 -0.4649  0.7365
  425TIP3    H125470   1.251   2.384  15.987 -0.8399 -0.9579  1.0512
  425TIP3    H225471   1.359   2.320  15.902  2.3476  1.5542  2.9729
  426TIP3   OH225472   6.809   7.624  16.732  0.2329  0.3324  0.1126
  426TIP3    H125473   6.824   7.647  16.823 -0.3539 -0.7143  0.4813
  426TIP3    H225474   6.778   7.534  16.734 -2.8108  1.2424 -0.8493
  427TIP3   OH225475   1.598   0.648  16.701  0.2647 -0.0506 -0.2300
  427TIP3    H125476   1.659   0.650  16.626  1.5860 -0.1631  0.8007
  427TIP3    H225477   1.566   0.738  16.707 -0.5015 -0.2204 -1.4228
  428TIP3   OH225478   3.777   5.283  17.793  0.5997  0.0983  0.1881
  428TIP3    H125479   3.743   5.324  17.872 -1.1389 -0.1305 -0.4079
  428TIP3    H225480   3.717   5.210  17.776 -0.3995  1.4492 -2.5477
  429TIP3   OH225481   5.014   1.590  16.952  0.5622 -0.2695 -0.7462
  429TIP3    H125482   5.009   1.502  16.990 -0.9573 -0.6126 -1.6619
  429TIP3    H225483   4.998   1.577  16.859  0.4361  0.9689 -0.9132
  430TIP3   OH225484   5.278   1.293  18.487  0.0507  0.6461  0.6422
  430TIP3    H125485   5.189   1.317  18.512 -1.7805 -1.2901 -3.1644
  430TIP3    H225486   5.292   1.208  18.530  0.7051  1.5449  2.3134
  431TIP3   OH225487   1.510   1.305  17.402 -0.3851  0.4275 -0.1010
  431TIP3    H125488   1.471   1.390  17.423 -0.9069  0.2056 -0.1532
  431TIP3    H225489   1.548   1.275  17.485 -0.4662  0.5716 -0.0116
  432TIP3   OH225490   2.974   2.708  17.838 -0.4222  0.5422  0.0974
  432TIP3    H125491   2.928   2.628  17.866 -0.3219  0.8306  1.1396
  432TIP3    H225492   3.001   2.749  17.920 -1.6695  2.3579 -0.3471
  433TIP3   OH225493   1.977   4.800  17.050  0.1016 -0.8360 -0.7710
  433TIP3    H125494   1.923   4.875  17.076  0.5516  0.2130 -2.6833
  433TIP3    H225495   1.955   4.732  17.114 -1.8811  0.2407 -0.2063
  434TIP3   OH225496   4.791   6.037  18.509 -0.8385  0.4431  0.5724
  434TIP3    H125497   4.871   6.085  18.530  0.4367 -0.7531 -1.2863
  434TIP3    H225498   4.720   6.096  18.537  0.6453  1.4895  2.3685
  435TIP3   OH225499   1.726   1.211  18.426 -0.0415 -0.2781 -0.2531
  435TIP3    H125500   1.788   1.277  18.394  0.5620 -0.1463  1.1235
  435TIP3    H225501   1.732   1.141  18.362 -1.3669  1.3209 -2.2703
  436TIP3   OH225502   3.930   0.912  17.240  0.1649  0.1642  0.1196
  436TIP3    H125503   4.010   0.962  17.227 -0.5642  0.9235 -1.9612
  436TIP3    H225504   3.860   0.972  17.213 -0.7966 -1.6992 -1.7995
  437TIP3   OH225505   2.833   4.712  17.396 -0.1417 -0.1867 -0.0555
  437TIP3    H125506   2.813   4.743  17.485 -0.7969  2.2890 -0.9714
  437TIP3    H225507   2.785   4.630  17.388 -1.1025  0.1792  1.4693
  438TIP3   OH225508   2.258   1.018  17.629  0.3545  0.1350 -0.2466
  438TIP3    H125509   2.234   0.935  17.587 -1.2014  0.6855 -0.5096
  438TIP3    H225510   2.211   1.085  17.579 -0.7278  0.9035  1.7100
  439TIP3   OH225511   2.618   6.851  17.702 -0.4353  0.1625 -0.7230
  439TIP3    H125512   2.653   6.940  17.697 -1.0822  0.5886  1.4379
  439TIP3    H225513   2.668   6.809  17.772  0.4231 -1.5028 -2.2409
  440TIP3   OH225514   5.414   6.390  16.827  0.4721 -0.0443  0.4893
  440TIP3    H125515   5.397   6.465  16.884  1.0952  0.5415 -0.0751
  440TIP3    H225516   5.383   6.417  16.741  0.6064 -0.4704  0.3032
  441TIP3   OH225517   0.020   3.848  15.963  0.5512 -0.2332 -0.0932
  441TIP3    H125518   0.082   3.865  15.892 -0.3713 -0.6672 -1.0074
  441TIP3    H225519  -0.044   3.787  15.927 -1.4953  1.5957  0.2257
  442TIP3   OH225520   5.754   1.438  17.632 -0.8087  0.2147 -0.0157
  442TIP3    H125521   5.810   1.419  17.708 -2.3010 -0.4219  0.9749
  442TIP3    H225522   5.814   1.439  17.558  0.8916  1.9105  1.2767
  443TIP3   OH225523   4.488   6.291  16.370  0.3225 -0.4235 -0.3386
  443TIP3    H125524   4.398   6.307  16.398  0.6460  0.3386  0.3152
  443TIP3    H225525   4.489   6.199  16.345 -0.1883 -0.9833  1.4882
  444TIP3   OH225526   4.861   0.670  18.316 -0.3780 -0.0100  0.2987
  444TIP3    H125527   4.923   0.599  18.334  0.3323  0.6239  0.4267
  444TIP3    H225528   4.861   0.677  18.220  1.0052  1.0365  0.3403
  445TIP3   OH225529   2.511   5.057  18.713  0.2615  0.0326  0.2373
  445TIP3    H125530   2.439   5.091  18.767 -0.9642 -2.1220  0.0553
  445TIP3    H225531   2.590   5.076  18.764 -0.6823 -0.0618  1.7876
  446TIP3   OH225532   0.969   0.565  16.906  0.2048  0.1003  0.1152
  446TIP3    H125533   0.988   0.545  16.814  0.7378  0.8235  0.0615
  446TIP3    H225534   1.047   0.610  16.937  0.2350 -0.5757  1.0684
  447TIP3   OH225535   6.519   1.214  17.800 -0.7095 -0.0556 -0.0046
  447TIP3    H125536   6.457   1.280  17.770 -0.1294 -0.3030 -1.8539
  447TIP3    H225537   6.525   1.228  17.895 -2.6012  0.7778  0.0286
  448TIP3   OH225538   1.187   5.949  17.452  0.1567 -0.0980 -0.1350
  448TIP3    H125539   1.218   6.013  17.516  0.1316  1.0587 -1.2365
  448TIP3    H225540   1.166   6.001  17.374 -1.4654 -1.2551 -0.5105
  449TIP3   OH225541   0.774   3.563  17.983  0.8574  0.1065  0.3571
  449TIP3    H125542   0.826   3.587  18.060  0.8426  1.5936 -0.0604
  449TIP3    H225543   0.705   3.629  17.980  1.6457  0.9058 -1.6799
  450TIP3   OH225544   3.009   1.635  17.419 -0.3025  0.1230  0.5253
  450TIP3    H125545   2.977   1.549  17.446 -0.6730  0.0131 -0.2320
  450TIP3    H225546   3.076   1.657  17.484 -0.5669 -0.5022  1.0265
  451TIP3   OH225547   7.330   7.176  18.264  0.0172 -0.1698 -0.3391
  451TIP3    H125548   7.280   7.251  18.232 -0.8702 -1.0231 -1.0280
  451TIP3    H225549   7.268   7.126  18.317  0.8224 -0.0153  0.7700
  452TIP3   OH225550   5.447   0.232  17.509  0.0752 -0.4068  0.2468
  452TIP3    H125551   5.502   0.164  17.550 -0.3097  0.1934  1.8339
  452TIP3    H225552   5.404   0.275  17.583 -0.1044  1.2173 -0.7697
  453TIP3   OH225553   2.604   7.071  17.188 -0.0108 -0.3610 -0.6310
  453TIP3    H125554   2.552   7.039  17.114  0.7866 -0.9965 -0.9267
  453TIP3    H225555   2.673   7.007  17.198  0.4708  0.2499  0.0399
  454TIP3   OH225556   0.762   5.963  16.371  0.0111  0.0880 -0.0579
  454TIP3    H125557   0.742   5.869  16.366  0.3722 -0.1273  1.7151
  454TIP3    H225558   0.677   6.005  16.385 -0.3388  0.2091 -2.2496
  455TIP3   OH225559   6.623   0.021  17.003  0.1904  0.2956 -0.0716
  455TIP3    H125560   6.672  -0.060  17.017  0.1255  0.4677  1.3366
  455TIP3    H225561   6.543  -0.007  16.958  0.1627 -0.4325  0.4018
  456TIP3   OH225562   6.213   0.245  17.182  0.3523  0.9194  0.0662
  456TIP3    H125563   6.130   0.282  17.153  0.0980  1.0793  0.9520
  456TIP3    H225564   6.277   0.313  17.164  0.2525  0.8846 -0.4172
  457TIP3   OH225565   6.359   7.172  16.915  0.2279  0.2461 -0.5478
  457TIP3    H125566   6.310   7.172  16.997 -0.2829  1.6988 -0.8210
  457TIP3    H225567   6.292   7.170  16.846  0.6559 -1.5391 -0.9689
  458TIP3   OH225568   4.238   1.997  19.025  0.0488 -0.3527 -0.0525
  458TIP3    H125569   4.283   2.014  18.942 -0.0160  1.0604  0.1743
  458TIP3    H225570   4.307   1.996  19.091  0.0263 -0.8133 -0.0323
  459TIP3   OH225571   1.817   1.014  17.418 -0.2822  0.5817 -0.4636
  459TIP3    H125572   1.901   1.020  17.372  1.1472  1.2427  2.0217
  459TIP3    H225573   1.790   0.923  17.407  0.9636  0.2648 -1.0418
  460TIP3   OH225574   5.288   5.549  15.847  0.4502 -0.6142 -0.3426
  460TIP3    H125575   5.228   5.483  15.883  1.3701 -1.6253 -0.5927
  460TIP3    H225576   5.289   5.532  15.753 -0.6048  0.8896 -0.6550
  461TIP3   OH225577   2.598   6.205  16.430 -0.0002  0.6702  0.1625
  461TIP3    H125578   2.690   6.218  16.453 -0.3702  0.2151  2.0795
  461TIP3    H225579   2.550   6.258  16.493 -1.0896 -0.3648  0.2392
  462TIP3   OH225580   4.693   2.940  16.643 -0.2206  0.1655  0.5968
  462TIP3    H125581   4.668   2.848  16.655 -0.9150  0.4234  1.2083
  462TIP3    H225582   4.664   2.960  16.554 -0.0913 -0.1966  0.4683
  463TIP3   OH225583   3.562   0.090  17.162  0.6825  0.2722  0.0685
  463TIP3    H125584   3.558   0.153  17.234  1.3602  1.4211 -0.8672
  463TIP3    H225585   3.648   0.104  17.123  0.6801 -0.9683 -0.4061
  464TIP3   OH225586   6.378   4.288  18.123 -0.4342  0.5213  0.4409
  464TIP3    H125587   6.388   4.204  18.167  0.8603  0.1677 -0.4566
  464TIP3    H225588   6.402   4.353  18.189 -1.0738  0.1624  1.0276
  465TIP3   OH225589   4.648   0.630  16.552 -0.2267  0.4652  0.0988
  465TIP3    H125590   4.642   0.724  16.572 -0.2726  0.3854  0.4742
  465TIP3    H225591   4.623   0.587  16.634  0.8770  0.1219  0.2760
  466TIP3   OH225592   0.433   7.240  16.522  0.4873 -0.2556 -0.3848
  466TIP3    H125593   0.410   7.277  16.607  1.0636 -1.4552  0.3245
  466TIP3    H225594   0.461   7.151  16.542  0.7514 -0.5169 -1.8278
  467TIP3   OH225595   1.874   4.330  18.629 -0.0772 -0.0397 -0.3261
  467TIP3    H125596   1.940   4.263  18.608 -0.3655  0.0235 -1.4690
  467TIP3    H225597   1.924   4.398  18.676  0.5322 -0.3131 -0.5618
  468TIP3   OH225598   7.610   4.610  16.941  0.1260  0.4415 -0.8178
  468TIP3    H125599   7.665   4.578  17.013 -0.3786 -2.1357 -1.4903
  468TIP3    H225600   7.530   4.638  16.984  0.8791  1.6327 -0.1210
  469TIP3   OH225601   6.852   7.317  16.504  0.1096  0.5756  0.2426
  469TIP3    H125602   6.793   7.317  16.429 -0.4032 -0.0604  0.6413
  469TIP3    H225603   6.796   7.306  16.580  0.7582 -0.3862  0.6047
  470TIP3   OH225604   5.766   5.606  16.881  0.1403 -0.4321  0.7454
  470TIP3    H125605   5.858   5.605  16.907  0.4075  0.8672 -0.0524
  470TIP3    H225606   5.723   5.663  16.945 -0.2724 -1.5728  1.5249
  471TIP3   OH225607   3.195   0.536  17.725 -0.6584 -0.0825  0.3008
  471TIP3    H125608   3.176   0.629  17.723  1.1277  0.3176  0.1927
  471TIP3    H225609   3.288   0.531  17.745 -1.0127 -1.8952  1.7254
  472TIP3   OH225610   3.663   6.979  16.296 -0.7084 -0.3305  0.6161
  472TIP3    H125611   3.674   7.031  16.376 -0.1144  1.2120 -0.4149
  472TIP3    H225612   3.642   7.044  16.229 -2.0983 -1.7022 -0.3175
  473TIP3   OH225613   5.914   0.484  16.389  0.4499 -0.2819  0.1539
  473TIP3    H125614   5.990   0.471  16.446 -0.1760 -0.4936  0.9599
  473TIP3    H225615   5.910   0.579  16.376 -0.9289  0.0707  2.6624
  474TIP3   OH225616   1.830   5.046  17.146 -0.2233  0.2989  0.0803
  474TIP3    H125617   1.803   5.027  17.236 -0.7925  0.8395  0.0324
  474TIP3    H225618   1.912   5.093  17.155  0.5314 -1.0138  0.2516
  475TIP3   OH225619   6.157   3.293  16.839  0.2609  0.2647  0.7700
  475TIP3    H125620   6.067   3.314  16.862 -0.7632 -0.5253 -2.1054
  475TIP3    H225621   6.152   3.207  16.798  2.2976  0.3163  0.2887
  476TIP3   OH225622   4.424   0.315  17.582  0.3988 -0.0401  0.1279
  476TIP3    H125623   4.378   0.329  17.499 -0.4196  0.6671  0.6816
  476TIP3    H225624   4.478   0.394  17.592 -0.4231  0.4388  0.8442
  477TIP3   OH225625   0.453   7.026  17.424  0.1529 -0.1489  0.4551
  477TIP3    H125626   0.530   6.984  17.462  0.0999 -0.5085  0.1715
  477TIP3    H225627   0.474   7.119  17.423 -0.0483 -0.0707  1.8338
  478TIP3   OH225628   5.548   2.426  17.560  0.3125  0.0855  0.0292
  478TIP3    H125629   5.496   2.494  17.601  3.0108  2.5643 -0.3236
  478TIP3    H225630   5.495   2.396  17.486 -2.1429 -0.3366  1.8640
  479TIP3   OH225631   2.668   0.781  15.579  0.3072 -0.3333 -0.2437
  479TIP3    H125632   2.634   0.736  15.502  0.0029  0.9288 -0.8762
  479TIP3    H225633   2.637   0.728  15.653 -0.3332 -0.9550 -0.9344
  480TIP3   OH225634   3.060   2.992  18.525  0.6938  0.8456 -0.4438
  480TIP3    H125635   3.027   3.062  18.580  1.4767  0.7403  0.1924
  480TIP3    H225636   2.982   2.944  18.496  0.2618  0.9300  0.5483
  481TIP3   OH225637   6.750   7.352  17.798 -0.1895 -0.3491 -0.5921
  481TIP3    H125638   6.795   7.285  17.746  0.2783  1.1450 -2.1923
  481TIP3    H225639   6.797   7.433  17.780 -1.3149  0.6162  0.5630
  482TIP3   OH225640   0.183   2.195  17.963 -0.0563  0.1173  0.2581
  482TIP3    H125641   0.163   2.220  17.872  0.2423 -0.7806 -0.0703
  482TIP3    H225642   0.097   2.174  18.001 -0.2106  0.7515  0.2667
  483TIP3   OH225643   2.609   5.322  16.817  0.4478 -0.1506  0.2213
  483TIP3    H125644   2.632   5.410  16.787 -3.2269  1.1157  0.6239
  483TIP3    H225645   2.642   5.318  16.907  0.7721  0.7853  0.1524
  484TIP3   OH225646   6.620   2.794  16.859  0.4521  0.9020  0.2415
  484TIP3    H125647   6.622   2.795  16.763  2.1919 -0.5074  0.2114
  484TIP3    H225648   6.539   2.748  16.881  0.5289  0.3538 -0.5784
  485TIP3   OH225649   4.730   3.907  17.494  0.6301 -0.2332  0.2827
  485TIP3    H125650   4.810   3.952  17.519  0.2872 -0.0230  1.0339
  485TIP3    H225651   4.682   3.970  17.440  0.6798 -0.1323  0.3583
  486TIP3   OH225652   6.040   0.684  16.677  0.3518  0.1374 -0.4111
  486TIP3    H125653   5.945   0.675  16.675  0.3314  0.0434  0.7667
  486TIP3    H225654   6.072   0.600  16.644  0.0420  0.1657 -0.8017
  487TIP3   OH225655   2.805   0.706  18.091 -0.4972  0.4082  0.5639
  487TIP3    H125656   2.774   0.795  18.074  1.2536  0.8025 -0.9195
  487TIP3    H225657   2.787   0.658  18.011  1.1040  0.2152  0.2809
  488TIP3   OH225658   0.500   4.531  18.107  0.2851  0.2325 -0.2063
  488TIP3    H125659   0.456   4.448  18.086  2.8027 -1.1966 -0.2008
  488TIP3    H225660   0.487   4.585  18.029 -3.1989  0.7847  0.5719
  489TIP3   OH225661   2.109   1.636  17.217 -0.1536  0.2531  0.1346
  489TIP3    H125662   2.059   1.564  17.255  1.6071 -1.5996 -0.8532
  489TIP3    H225663   2.187   1.643  17.271  0.1775  0.7312 -0.3941
  490TIP3   OH225664   0.993   5.265  18.322 -0.4246 -0.1005 -0.0848
  490TIP3    H125665   1.024   5.196  18.381  0.6675 -0.4068 -0.9859
  490TIP3    H225666   1.025   5.346  18.360 -1.8690 -0.0246  1.0801
  491TIP3   OH225667   1.824   7.276  17.939 -0.2435  0.1320  0.2723
  491TIP3    H125668   1.792   7.291  18.028  0.2704 -1.4809  0.7640
  491TIP3    H225669   1.749   7.237  17.894  0.0997 -0.9315  0.5941
  492TIP3   OH225670   6.313   7.364  16.017  0.1252  0.2256 -0.1860
  492TIP3    H125671   6.301   7.297  16.084  0.2519 -0.0532 -0.4397
  492TIP3    H225672   6.331   7.315  15.937 -0.5428  0.5340 -0.5366
  493TIP3   OH225673   6.440   6.803  16.729  0.1478  0.2881 -0.5593
  493TIP3    H125674   6.453   6.711  16.752 -1.1175  0.2337 -0.0073
  493TIP3    H225675   6.407   6.844  16.809  2.9162  1.7736 -0.0662
  494TIP3   OH225676   0.395   0.646  17.493 -0.4237  0.2088 -0.1809
  494TIP3    H125677   0.399   0.625  17.586 -0.6372  0.7491 -0.0413
  494TIP3    H225678   0.308   0.686  17.482 -1.3221 -1.8711 -1.0552
  495TIP3   OH225679   5.205   6.187  17.673 -0.2792  0.0461  0.0667
  495TIP3    H125680   5.290   6.223  17.699 -0.3801 -0.5462  1.2930
  495TIP3    H225681   5.145   6.216  17.742 -1.4300  1.7642 -1.5675
  496TIP3   OH225682   3.975   6.769  16.065 -0.6585 -0.5061 -0.3155
  496TIP3    H125683   4.038   6.836  16.092 -1.0782 -0.0463 -0.4565
  496TIP3    H225684   4.029   6.697  16.034 -0.1996 -0.0404 -0.6218
  497TIP3   OH225685   1.600   6.575  16.590  0.0542  0.4710 -0.0431
  497TIP3    H125686   1.611   6.533  16.505  0.7017  0.0976  0.2164
  497TIP3    H225687   1.686   6.613  16.609 -0.4052  1.5662 -0.0913
  498TIP3   OH225688   2.257   2.137  16.806  0.4322 -0.2785  0.2265
  498TIP3    H125689   2.253   2.065  16.742 -0.9197 -0.0930  0.0745
  498TIP3    H225690   2.343   2.177  16.791 -0.4058  0.7540 -2.5907
  499TIP3   OH225691   3.793   6.244  18.160 -0.3242  0.0222 -0.4609
  499TIP3    H125692   3.877   6.198  18.159 -0.3166  0.0324 -1.3487
  499TIP3    H225693   3.815   6.335  18.144 -0.2615  0.5342  2.1315
  500TIP3   OH225694   4.712   5.687  16.382 -0.1657  0.4805 -0.2651
  500TIP3    H125695   4.729   5.601  16.344  0.5452  1.1421 -1.4859
  500TIP3    H225696   4.616   5.693  16.386 -0.2265 -0.1079 -0.7704
  501TIP3   OH225697   1.545   2.713  16.936  0.1565 -0.5994  0.0210
  501TIP3    H125698   1.620   2.659  16.963 -0.7816 -2.6628 -1.2583
  501TIP3    H225699   1.579   2.765  16.863  0.8765  0.0631  0.7975
  502TIP3   OH225700   5.632   5.372  16.285  0.0306 -0.4029  0.4633
  502TIP3    H125701   5.601   5.365  16.375  0.8720 -1.7907  0.6830
  502TIP3    H225702   5.679   5.455  16.282 -0.5488 -0.0424  1.1183
  503TIP3   OH225703   3.253   7.258  18.383 -0.5893  0.1744  0.0327
  503TIP3    H125704   3.185   7.195  18.409 -1.4424  1.1670  0.3057
  503TIP3    H225705   3.216   7.302  18.307 -0.0099  0.3645 -0.1410
  504TIP3   OH225706   0.901   3.858  17.680 -0.2233 -0.2624  0.5849
  504TIP3    H125707   0.926   3.900  17.597  1.1281  0.8020  1.4917
  504TIP3    H225708   0.809   3.881  17.692 -0.3121 -0.0542 -0.3925
  505TIP3   OH225709   4.729   6.570  17.657  0.3646  0.3926 -0.2321
  505TIP3    H125710   4.727   6.504  17.726  0.2311  0.2045 -0.4092
  505TIP3    H225711   4.655   6.547  17.601  0.8790  0.1243 -0.8152
  506TIP3   OH225712   6.472   0.241  18.682 -0.3438 -0.3158 -0.2773
  506TIP3    H125713   6.556   0.241  18.729  0.3172 -1.0673 -1.3908
  506TIP3    H225714   6.485   0.177  18.612 -2.6537 -2.2486  0.9138
  507TIP3   OH225715   2.532   5.922  16.539  0.1173  0.1029  0.3947
  507TIP3    H125716   2.593   5.869  16.488 -1.1323 -0.9396 -0.0706
  507TIP3    H225717   2.514   5.997  16.482  0.7027  0.2555  0.4018
  508TIP3   OH225718   2.658   4.918  17.291  0.2463 -0.2856  0.0056
  508TIP3    H125719   2.577   4.925  17.342  0.3281 -0.3861  0.1507
  508TIP3    H225720   2.714   4.859  17.343 -0.3822 -1.9691 -1.1347
  509TIP3   OH225721   6.768   4.978  18.498 -0.3057  0.3287 -0.1474
  509TIP3    H125722   6.844   4.986  18.439  0.1018  0.1904  0.3542
  509TIP3    H225723   6.793   5.028  18.576  1.2314 -3.4033  2.0039
  510TIP3   OH225724   2.855   0.906  18.544  0.0891 -0.5573  0.1344
  510TIP3    H125725   2.763   0.879  18.540  0.3111 -1.5988  1.3552
  510TIP3    H225726   2.902   0.828  18.572  1.1773  0.3083  0.8237
  511TIP3   OH225727   1.784   3.417  16.022 -0.5603 -0.3249  0.6493
  511TIP3    H125728   1.878   3.396  16.020 -0.1021  1.5463  1.0129
  511TIP3    H225729   1.745   3.357  15.958  0.9222 -0.9028  0.2432
  512TIP3   OH225730   5.015   7.294  18.427  0.2510  0.3346  0.5513
  512TIP3    H125731   5.018   7.385  18.396 -1.0736  0.5090  0.8807
  512TIP3    H225732   5.072   7.292  18.504  0.2389  0.8946  0.5744
  513TIP3   OH225733   7.250   0.211  16.602  0.1669 -0.2333  0.1284
  513TIP3    H125734   7.247   0.184  16.510  0.8483  0.0381  0.0206
  513TIP3    H225735   7.221   0.302  16.601  3.0390  0.7792 -0.2622
  514TIP3   OH225736   6.443   5.448  17.514 -0.7265  0.0533 -0.1085
  514TIP3    H125737   6.392   5.528  17.504  0.9665  0.9760 -2.2433
  514TIP3    H225738   6.533   5.479  17.527  0.1967 -1.4406 -2.4091
  515TIP3   OH225739   5.754   4.565  18.164  0.2122  0.4206  0.4432
  515TIP3    H125740   5.713   4.643  18.129  0.8127  0.4223 -0.2969
  515TIP3    H225741   5.686   4.498  18.162  0.2229  0.4292 -0.7290
  516TIP3   OH225742   4.315   6.318  15.987 -0.4436 -0.0330 -0.0096
  516TIP3    H125743   4.236   6.364  15.958 -0.1656  0.2233 -0.3634
  516TIP3    H225744   4.311   6.234  15.941 -0.6243 -0.1137  0.1495
  517TIP3   OH225745   6.685   6.268  18.095  0.1621  0.7926  0.3306
  517TIP3    H125746   6.691   6.217  18.014  1.4740 -0.5341  1.2131
  517TIP3    H225747   6.713   6.356  18.069 -0.4209  0.6444 -0.8611
  518TIP3   OH225748   3.568   4.320  16.952  0.7295 -0.1576  0.3681
  518TIP3    H125749   3.589   4.311  16.859  0.7487  0.7469  0.2700
  518TIP3    H225750   3.582   4.233  16.989  1.9005 -0.2529 -0.2444
  519TIP3   OH225751   7.595   4.033  16.156 -0.4413 -0.2581  0.3996
  519TIP3    H125752   7.663   4.065  16.216 -0.7189  0.9650  0.1066
  519TIP3    H225753   7.642   3.982  16.091  0.2126  0.5728  0.2054
  520TIP3   OH225754   0.718   0.205  16.198  1.0956 -0.1361  0.2157
  520TIP3    H125755   0.694   0.143  16.129 -0.5589  0.4818  0.1997
  520TIP3    H225756   0.653   0.274  16.192  3.4324  2.1684 -0.3860
  521TIP3   OH225757   3.083   3.294  18.853 -0.0187 -0.3422  0.2644
  521TIP3    H125758   3.154   3.241  18.817  0.4219  0.5294 -0.1807
  521TIP3    H225759   3.123   3.380  18.869 -0.5009 -0.3697  1.7482
  522TIP3   OH225760   5.067   6.614  18.264 -0.1256  0.1111 -0.6635
  522TIP3    H125761   5.061   6.699  18.221 -0.0180  0.8311  0.6968
  522TIP3    H225762   5.117   6.630  18.344 -0.3440 -1.1701 -0.2337
  523TIP3   OH225763   1.732   6.484  17.247 -0.1338 -0.2975  0.1761
  523TIP3    H125764   1.752   6.393  17.224 -0.3533 -0.6780  1.4064
  523TIP3    H225765   1.773   6.536  17.178 -0.4208 -1.3439 -0.8108
  524TIP3   OH225766   7.481   0.257  17.949  0.2631  0.1906  0.1124
  524TIP3    H125767   7.553   0.210  17.906 -0.1855 -0.8466  0.4533
  524TIP3    H225768   7.471   0.337  17.897  0.4565 -0.5160 -1.0655
  525TIP3   OH225769   1.093   6.210  18.335  0.2674  0.0620 -0.4357
  525TIP3    H125770   1.028   6.141  18.349 -0.6755  1.2266  1.3711
  525TIP3    H225771   1.121   6.234  18.423  0.8801  1.6739 -1.0339
  526TIP3   OH225772   2.724   2.296  18.062 -0.5381 -0.0104 -0.0482
  526TIP3    H125773   2.663   2.273  17.993 -3.0749  0.4365  1.8940
  526TIP3    H225774   2.770   2.215  18.083 -0.5894 -0.4069 -1.3813
  527TIP3   OH225775   0.714   0.142  17.011 -0.2295  0.1201 -0.2286
  527TIP3    H125776   0.661   0.065  17.034  1.0012 -0.5556  0.4110
  527TIP3    H225777   0.656   0.217  17.028 -1.3198 -0.6265 -0.5080
  528TIP3   OH225778   6.430   0.437  16.587 -0.5590 -0.5270 -0.5665
  528TIP3    H125779   6.481   0.514  16.560  1.4550 -1.8226 -0.6685
  528TIP3    H225780   6.476   0.404  16.664 -1.6595 -1.3862 -0.2530
  529TIP3   OH225781   5.190   1.522  18.148  0.4209  0.2939  0.7067
  529TIP3    H125782   5.239   1.598  18.180  1.9162 -0.1313 -0.4781
  529TIP3    H225783   5.199   1.526  18.053  3.2021 -2.9974  0.6426
  530TIP3   OH225784   3.831   5.492  17.417 -0.3745  0.0462  0.1782
  530TIP3    H125785   3.879   5.443  17.484 -0.0248  1.0557  0.6698
  530TIP3    H225786   3.749   5.517  17.460 -0.9099 -0.7691 -0.3286
  531TIP3   OH225787   3.777   0.072  16.732  0.2346  0.0767 -0.8315
  531TIP3    H125788   3.693   0.085  16.775  0.0313  0.3439 -1.2983
  531TIP3    H225789   3.784  -0.023  16.721  1.0033 -0.1535  1.1676
  532TIP3   OH225790   4.435   1.283  18.931 -0.3588  0.1668  0.0536
  532TIP3    H125791   4.420   1.256  18.840  0.0241  1.9887 -0.6013
  532TIP3    H225792   4.349   1.310  18.962 -0.3409  0.3535 -0.0572
  533TIP3   OH225793   0.215   1.124  17.226 -0.0734  0.1124  0.6981
  533TIP3    H125794   0.214   1.213  17.260 -1.4004  0.5562 -0.3867
  533TIP3    H225795   0.290   1.121  17.166  0.2831  0.3320  1.1316
  534TIP3   OH225796   2.042   2.665  16.756  0.3257  0.0932  0.6320
  534TIP3    H125797   2.056   2.632  16.845 -1.0910 -0.0493  0.8152
  534TIP3    H225798   2.021   2.587  16.705 -0.1672  0.3384  0.4572
  535TIP3   OH225799   0.892   3.166  16.083 -0.2843 -0.2349  0.3187
  535TIP3    H125800   0.943   3.175  16.003 -0.1620 -0.2705  0.3920
  535TIP3    H225801   0.837   3.244  16.086 -0.3919 -0.3024  0.1283
  536TIP3   OH225802   5.278   3.387  16.805 -0.3056  0.3474 -0.0105
  536TIP3    H125803   5.360   3.437  16.800  0.1180 -0.4089 -0.7890
  536TIP3    H225804   5.299   3.313  16.862  0.7242 -1.9060 -3.0373
  537TIP3   OH225805   6.433   0.531  16.274 -0.0089  0.0442  0.9251
  537TIP3    H125806   6.463   0.526  16.365  2.2983  0.4605  0.2529
  537TIP3    H225807   6.514   0.531  16.222 -1.2468 -1.9967 -1.2422
  538TIP3   OH225808   2.133   3.651  17.933 -0.2073  0.1133  0.5267
  538TIP3    H125809   2.088   3.631  17.851  0.0035 -0.5950  0.5711
  538TIP3    H225810   2.100   3.585  17.995 -0.4727  0.7288  1.0529
  539TIP3   OH225811   2.250   7.538  16.272  0.2120 -0.7885  0.2548
  539TIP3    H125812   2.339   7.563  16.296 -0.1460  1.2529 -0.3665
  539TIP3    H225813   2.224   7.474  16.338  1.3831  0.1843  1.7184
  540TIP3   OH225814   2.943   5.277  17.329  0.1225 -0.3577  0.1114
  540TIP3    H125815   2.940   5.368  17.359  1.1537 -0.5153  0.7510
  540TIP3    H225816   2.993   5.280  17.248 -0.9889 -0.1945 -0.5939
  541TIP3   OH225817   6.884   7.648  17.243 -0.2364 -0.5091 -0.2405
  541TIP3    H125818   6.885   7.578  17.308 -2.2076 -1.2698 -0.9372
  541TIP3    H225819   6.875   7.603  17.159  0.5766  0.5170 -0.9106
  542TIP3   OH225820   4.889   3.307  18.481  0.2384  0.4021 -0.0503
  542TIP3    H125821   4.804   3.351  18.480 -0.3406 -0.5572 -3.0148
  542TIP3    H225822   4.948   3.370  18.438  1.3059  1.3894  2.6797
  543TIP3   OH225823   4.622   6.890  18.808 -0.7988  0.2361  0.2293
  543TIP3    H125824   4.627   6.835  18.730  1.5375 -1.6339  1.5469
  543TIP3    H225825   4.626   6.828  18.881  0.0586  2.0580  1.8129
  544TIP3   OH225826   3.915   5.669  15.655 -0.1265  0.0827 -0.3207
  544TIP3    H125827   3.954   5.691  15.570 -0.8467  0.4130 -0.5718
  544TIP3    H225828   3.963   5.723  15.717  0.2037  0.0621 -0.5497
  545TIP3   OH225829   3.876   6.876  18.434  0.1531  0.7442 -0.3910
  545TIP3    H125830   3.959   6.924  18.433  0.4756  0.2512  0.5539
  545TIP3    H225831   3.861   6.852  18.343  0.1175  2.3847 -0.8366
  546TIP3   OH225832   5.079   5.271  17.562  0.0310 -0.0759 -0.2164
  546TIP3    H125833   5.119   5.262  17.649 -0.3803  0.3861  0.0246
  546TIP3    H225834   5.025   5.192  17.553  0.5872 -0.4525 -0.3353
  547TIP3   OH225835   0.909   4.473  17.702 -0.4993  0.1794 -0.3795
  547TIP3    H125836   0.854   4.550  17.689 -0.0986  0.4856 -0.3099
  547TIP3    H225837   0.867   4.404  17.652 -1.2817  0.2456  0.1738
  548TIP3   OH225838   6.673   7.557  16.151  0.0317 -0.4987  0.3764
  548TIP3    H125839   6.697   7.646  16.175 -2.2025 -0.1900  1.7879
  548TIP3    H225840   6.580   7.563  16.128  0.5101 -1.9826 -2.3717
  549TIP3   OH225841   4.664   7.143  16.824 -0.4268  0.2366  0.2488
  549TIP3    H125842   4.697   7.210  16.884 -1.3716  2.1432 -1.2264
  549TIP3    H225843   4.731   7.137  16.756 -0.2826 -0.4136  0.4510
  550TIP3   OH225844   1.304   1.938  17.017 -0.3235 -0.9555  0.7766
  550TIP3    H125845   1.299   2.018  16.964 -1.1900 -1.8146 -0.4663
  550TIP3    H225846   1.214   1.908  17.025  0.1375 -2.7525 -0.2697
  551TIP3   OH225847   5.969   5.717  18.185  0.0693 -0.2791  0.2804
  551TIP3    H125848   6.044   5.692  18.239  0.0545  0.2164  0.5376
  551TIP3    H225849   6.002   5.716  18.096  0.0865 -1.1339  0.2853
  552TIP3   OH225850   1.510   0.452  18.325 -0.0736 -0.5656 -0.4407
  552TIP3    H125851   1.489   0.416  18.411  0.0548  3.9415  1.7827
  552TIP3    H225852   1.605   0.441  18.317  0.4298  1.4774  1.5329
  553TIP3   OH225853   1.540   3.088  17.187 -0.2417 -0.2912 -0.2711
  553TIP3    H125854   1.539   3.128  17.274 -1.2994 -0.9730  0.0463
  553TIP3    H225855   1.480   3.015  17.193 -0.3715 -0.3240 -1.6013
  554TIP3   OH225856   5.602   1.230  16.800 -0.0459  0.2288 -0.3240
  554TIP3    H125857   5.551   1.170  16.855 -0.3041  1.6297  1.0430
  554TIP3    H225858   5.657   1.173  16.747 -1.7178 -1.2735 -0.5434
  555TIP3   OH225859   1.020   5.369  16.478  0.4111 -0.0562  0.1544
  555TIP3    H125860   0.927   5.345  16.480  0.2174  0.5720 -0.5888
  555TIP3    H225861   1.023   5.447  16.423  1.3709 -0.0002  0.2704
  556TIP3   OH225862   3.131   5.050  15.985 -0.1812 -0.0781 -0.1450
  556TIP3    H125863   3.166   4.989  15.920  1.2277  1.0137 -0.4614
  556TIP3    H225864   3.041   5.021  16.000  0.6460 -2.6874  0.2791
  557TIP3   OH225865   0.915   0.392  17.113 -0.1367 -0.2498  0.6259
  557TIP3    H125866   0.845   0.434  17.163 -1.5189 -2.2132  0.4544
  557TIP3    H225867   0.924   0.446  17.034 -1.7871 -0.1939  0.4401
  558TIP3   OH225868   1.202   5.188  16.643 -0.8112 -0.0757  0.1275
  558TIP3    H125869   1.129   5.188  16.704 -1.2832 -0.7077 -0.4100
  558TIP3    H225870   1.168   5.232  16.565 -0.3240  0.4350  0.1990
  559TIP3   OH225871   4.580   5.993  15.762 -0.2911 -0.3671  0.3483
  559TIP3    H125872   4.623   6.048  15.697 -1.5037  1.1554  0.7804
  559TIP3    H225873   4.647   5.979  15.830  0.4783 -0.6409 -0.4560
  560TIP3   OH225874   0.193   3.013  17.984  0.2499  0.6352 -0.3528
  560TIP3    H125875   0.289   3.012  17.975  0.3471 -0.1765  0.5502
  560TIP3    H225876   0.169   3.105  17.971  1.2154  0.9502 -0.0676
  561TIP3   OH225877   3.525   1.791  19.113  0.6178 -0.1008  0.2139
  561TIP3    H125878   3.610   1.789  19.157  1.5982 -0.8812 -1.6100
  561TIP3    H225879   3.511   1.702  19.082 -0.9733 -0.0252  0.6219
  562TIP3   OH225880   6.099   4.183  18.263 -0.1819 -0.0247  0.1357
  562TIP3    H125881   6.180   4.208  18.218 -0.0176  0.2009  0.5533
  562TIP3    H225882   6.063   4.266  18.295 -0.5216 -0.1366  0.0510
  563TIP3   OH225883   2.846   0.571  16.187  0.2493  0.0071  0.4918
  563TIP3    H125884   2.773   0.618  16.147 -1.0715 -1.6155  0.9004
  563TIP3    H225885   2.915   0.576  16.121 -1.0909 -0.6067 -1.0371
  564TIP3   OH225886   2.893   6.612  17.665  0.3533  0.1289 -0.2959
  564TIP3    H125887   2.810   6.587  17.624  0.8673 -0.1479 -1.2140
  564TIP3    H225888   2.916   6.537  17.720 -1.0467  1.0786  1.6888
  565TIP3   OH225889   3.015   6.156  15.789  0.2116 -0.0295 -0.2573
  565TIP3    H125890   2.976   6.243  15.781  1.0463  0.3432 -0.3654
  565TIP3    H225891   2.941   6.098  15.805 -0.3701  0.6809 -0.3238
  566TIP3   OH225892   1.303   4.882  17.408  0.1207  0.7731  0.8518
  566TIP3    H125893   1.357   4.872  17.329  0.2884 -1.5989  1.1977
  566TIP3    H225894   1.214   4.893  17.376  0.2279  0.1257  0.3272
  567TIP3   OH225895   2.258   5.496  17.531  0.6975 -0.1939  0.4893
  567TIP3    H125896   2.344   5.538  17.530  0.6156  0.0202  1.4581
  567TIP3    H225897   2.272   5.416  17.582  0.2186  0.0929  1.0814
  568TIP3   OH225898   5.821   1.480  17.101  0.0948 -0.3151 -0.0067
  568TIP3    H125899   5.901   1.527  17.126  0.3487 -0.7578  0.0136
  568TIP3    H225900   5.806   1.418  17.172 -0.2170 -0.2998 -0.0556
  569TIP3   OH225901   7.601   3.618  17.550  0.2128 -0.4571  0.0070
  569TIP3    H125902   7.667   3.663  17.497  0.0370 -0.2617 -0.0481
  569TIP3    H225903   7.557   3.559  17.489 -0.0154 -0.2041 -0.0692
  570TIP3   OH225904   0.673   1.338  16.551  0.5639 -0.0009  0.8168
  570TIP3    H125905   0.612   1.411  16.539 -0.9972 -1.2811  0.5936
  570TIP3    H225906   0.685   1.333  16.645  0.4405  0.3482  0.8561
  571TIP3   OH225907   3.780   5.455  17.142  0.1430  0.3922  0.2268
  571TIP3    H125908   3.776   5.495  17.229 -0.2882 -0.2506  0.5216
  571TIP3    H225909   3.748   5.365  17.156  1.7308 -0.2799 -0.2753
  572TIP3   OH225910   1.564   5.807  18.914 -0.2586  0.1971 -0.3978
  572TIP3    H125911   1.604   5.721  18.920  0.0808  0.4074  0.5820
  572TIP3    H225912   1.484   5.801  18.967  1.4308  1.3522  2.5687
  573TIP3   OH225913   4.133   2.902  17.721 -0.9962 -0.3300  0.4183
  573TIP3    H125914   4.212   2.956  17.726 -1.7724  1.0598 -1.2750
  573TIP3    H225915   4.165   2.815  17.699  0.0952  0.2923 -0.5998
  574TIP3   OH225916   6.481   5.722  18.925  0.2962 -0.1559  0.0037
  574TIP3    H125917   6.460   5.652  18.865 -0.6084  0.9308 -0.9918
  574TIP3    H225918   6.408   5.724  18.987  0.1701  0.0711 -0.1465
  575TIP3   OH225919   1.747   6.718  17.450  0.5080  0.3326 -0.7164
  575TIP3    H125920   1.778   6.760  17.370  0.2778 -0.2423 -1.1176
  575TIP3    H225921   1.705   6.638  17.420 -0.2998  0.5036 -0.0915
  576TIP3   OH225922   4.053   2.844  18.742 -0.1171  0.0376 -0.2590
  576TIP3    H125923   3.974   2.790  18.740  0.2953 -0.5922  0.0535
  576TIP3    H225924   4.043   2.898  18.820  0.2558 -0.8342  0.4190
  577TIP3   OH225925   0.163   3.496  17.750 -0.0459  0.2217 -0.3348
  577TIP3    H125926   0.223   3.533  17.815 -1.4358  1.6608  0.1871
  577TIP3    H225927   0.086   3.552  17.753 -2.1857 -2.5420  0.2656
  578TIP3   OH225928   2.993   2.441  18.754 -0.2778 -0.3464  0.1150
  578TIP3    H125929   2.944   2.523  18.751  0.3046  0.0668  1.4140
  578TIP3    H225930   2.947   2.384  18.693 -1.8001  0.3493  0.5634
  579TIP3   OH225931   5.059   4.423  17.169  0.1399  0.4061  0.1682
  579TIP3    H125932   5.076   4.352  17.231  1.9456  0.2366 -0.4445
  579TIP3    H225933   5.061   4.503  17.223 -0.4926  0.1113  0.6420
  580TIP3   OH225934   3.463   7.202  17.775  0.4553  0.3072  0.2227
  580TIP3    H125935   3.521   7.172  17.845  0.4891 -0.6464 -0.2017
  580TIP3    H225936   3.519   7.201  17.696 -0.1219 -0.5962 -0.1857
  581TIP3   OH225937   3.988   4.849  16.945 -1.1287 -0.3736 -0.4081
  581TIP3    H125938   4.050   4.914  16.913 -1.7751  1.5507  1.9759
  581TIP3    H225939   3.974   4.790  16.871  2.3280 -0.0186 -1.5083
  582TIP3   OH225940   3.427   1.309  17.059 -0.7847 -0.1904 -0.5803
  582TIP3    H125941   3.417   1.252  17.134 -1.4070 -0.7601 -1.0814
  582TIP3    H225942   3.517   1.295  17.029  0.3465  1.9195  1.5348
  583TIP3   OH225943   0.893   5.335  17.965 -0.0485 -0.3959 -0.7182
  583TIP3    H125944   0.865   5.248  17.993  2.2503 -0.8650  0.3320
  583TIP3    H225945   0.986   5.338  17.984 -0.1040  2.4145 -0.4301
  584TIP3   OH225946   7.481   6.298  15.960  0.1090  0.3695 -0.3284
  584TIP3    H125947   7.557   6.244  15.981 -0.4202 -0.3327 -0.1936
  584TIP3    H225948   7.506   6.387  15.986  0.6177  0.0227  0.3711
  585TIP3   OH225949   0.868   5.781  16.777 -0.0915  0.6599  0.2577
  585TIP3    H125950   0.933   5.800  16.710 -0.1361  0.5127  0.1710
  585TIP3    H225951   0.879   5.688  16.796  1.2561  1.0993  1.8822
  586TIP3   OH225952   4.764   2.954  17.366 -0.6555  0.0013  0.5035
  586TIP3    H125953   4.780   2.928  17.276 -1.8548 -1.4141  0.6638
  586TIP3    H225954   4.829   3.023  17.383  0.5195 -0.6803 -0.9756
  587TIP3   OH225955   2.316   5.661  18.203 -0.3087 -0.0217 -0.1536
  587TIP3    H125956   2.231   5.686  18.167 -1.3992 -0.0267  2.2295
  587TIP3    H225957   2.358   5.744  18.226 -0.1629 -0.0668 -0.2549
  588TIP3   OH225958   0.402   7.675  18.162  0.4207  0.5408 -0.0946
  588TIP3    H125959   0.368   7.747  18.215  0.6087 -0.1446  0.9775
  588TIP3    H225960   0.454   7.718  18.094  0.2762  1.4300  0.3461
  589TIP3   OH225961   5.110   4.697  17.239  0.0285  0.3051 -0.1461
  589TIP3    H125962   5.072   4.769  17.187  1.9172 -0.0038 -2.1016
  589TIP3    H225963   5.204   4.702  17.221  0.7725 -0.0593  3.0755
  590TIP3   OH225964   6.439   7.540  17.896  0.1489 -0.1835  0.0080
  590TIP3    H125965   6.398   7.603  17.954  0.0843 -0.7096  0.5383
  590TIP3    H225966   6.531   7.540  17.922  0.0333 -0.7652  0.4360
  591TIP3   OH225967   2.451   6.460  16.872 -0.0975 -0.2578 -0.3835
  591TIP3    H125968   2.476   6.368  16.867 -2.1762 -0.8679 -0.2766
  591TIP3    H225969   2.489   6.491  16.954  0.2744 -1.1185 -0.2201
  592TIP3   OH225970   4.256   0.192  18.284  0.1248  0.2767  0.9802
  592TIP3    H125971   4.273   0.130  18.213 -0.2513 -0.9780  1.9631
  592TIP3    H225972   4.163   0.181  18.303 -0.2904  2.1553  0.2546
  593TIP3   OH225973   6.923   3.666  17.111 -0.1919  0.2751  0.5053
  593TIP3    H125974   6.937   3.751  17.069  1.2304 -0.1470  0.0639
  593TIP3    H225975   6.880   3.688  17.193 -1.5942  1.2503 -0.4429
  594TIP3   OH225976   4.626   2.677  17.930 -0.6590  0.2020  0.1003
  594TIP3    H125977   4.576   2.630  17.997 -0.8543 -0.5102 -0.5327
  594TIP3    H225978   4.571   2.751  17.906 -0.0577  1.1862  1.5927
  595TIP3   OH225979   5.353   1.969  18.391 -0.5070 -0.5202 -0.4329
  595TIP3    H125980   5.421   2.018  18.436 -0.8103  0.4564 -1.0108
  595TIP3    H225981   5.272   2.015  18.414 -1.0488 -1.9421  0.6353
  596TIP3   OH225982   6.279   6.203  16.871  0.1399 -0.5879  0.4298
  596TIP3    H125983   6.322   6.206  16.785  0.9744 -0.9553  0.8235
  596TIP3    H225984   6.186   6.214  16.851  0.5203  1.9491 -0.3086
  597TIP3   OH225985   3.353   3.355  18.567  0.0696  0.4971  0.2546
  597TIP3    H125986   3.365   3.320  18.656 -0.3082  0.5793  0.3384
  597TIP3    H225987   3.393   3.290  18.510  0.4050  0.4922  0.4932
  598TIP3   OH225988   3.982   3.470  17.344  0.4738  0.1474 -0.5339
  598TIP3    H125989   4.067   3.451  17.303  1.3081  0.4268  0.9787
  598TIP3    H225990   3.927   3.501  17.272  1.8669  0.6024 -1.4483
  599TIP3   OH225991   4.858   1.839  17.468 -0.1446  0.0296 -0.1261
  599TIP3    H125992   4.944   1.846  17.510 -0.2380  0.6271 -0.0290
  599TIP3    H225993   4.833   1.929  17.450 -1.3366 -0.0552  1.0100
  600TIP3   OH225994   2.801   0.563  17.828 -0.3927  0.3839 -0.3083
  600TIP3    H125995   2.846   0.610  17.758  1.7015  1.6846  1.7433
  600TIP3    H225996   2.841   0.476  17.828  0.5726  0.8133  0.0861
  601TIP3   OH225997   1.494   5.528  16.471  0.4510 -0.6208  0.0002
  601TIP3    H125998   1.519   5.447  16.429  0.4054 -1.1712  0.9984
  601TIP3    H225999   1.525   5.519  16.562 -1.7701 -0.6000  0.8171
  602TIP3   OH226000   0.990   4.405  17.131  0.3066 -0.4154  0.2246
  602TIP3    H126001   0.941   4.436  17.207 -1.5255 -2.8879  0.1906
  602TIP3    H226002   0.924   4.370  17.072  1.6992  1.2447 -2.5028
  603TIP3   OH226003   3.038   5.522  17.403 -0.1126  0.3772  0.4876
  603TIP3    H126004   3.100   5.473  17.457 -0.3125 -1.3011 -0.7486
  603TIP3    H226005   3.068   5.509  17.313 -0.9001  1.5265  0.0327
  604TIP3   OH226006   6.432   5.971  18.644  0.3717  0.7353  0.2576
  604TIP3    H126007   6.460   6.001  18.558 -0.2435  1.6518  0.3657
  604TIP3    H226008   6.364   6.033  18.670 -0.2596 -0.1981  0.9099
  605TIP3   OH226009   2.678   4.144  17.505 -0.2662 -0.4451  0.5568
  605TIP3    H126010   2.607   4.198  17.540  0.7269  0.7190  0.8749
  605TIP3    H226011   2.644   4.109  17.423 -0.9583  0.6902  0.3417
  606TIP3   OH226012   6.330   0.750  18.335 -0.2053 -0.5551  0.2244
  606TIP3    H126013   6.353   0.769  18.426 -0.6307 -0.2394  0.2702
  606TIP3    H226014   6.305   0.657  18.337  2.5096 -1.3863 -0.1339
  607TIP3   OH226015   1.228   1.390  17.193 -0.1088 -0.1084  0.3265
  607TIP3    H126016   1.264   1.312  17.236  4.0930  2.2331  1.6806
  607TIP3    H226017   1.214   1.363  17.102  4.5915 -1.8029 -0.2013
  608TIP3   OH226018   5.685   5.356  16.829  0.0206  0.4857  0.5665
  608TIP3    H126019   5.625   5.355  16.755  0.6965 -0.1877  0.0085
  608TIP3    H226020   5.687   5.448  16.857  0.0688  0.8325 -0.5172
  609TIP3   OH226021   1.709   6.005  18.511  0.2808  0.3828 -0.8148
  609TIP3    H126022   1.648   6.070  18.476 -0.7509  0.1852  0.5479
  609TIP3    H226023   1.675   5.983  18.598  2.8407  1.0115  0.4557
  610TIP3   OH226024   5.760   5.522  18.220  0.6158 -0.1480  0.2694
  610TIP3    H126025   5.824   5.478  18.164  0.7269  0.8799 -0.4421
  610TIP3    H226026   5.794   5.610  18.230 -1.7479  1.1785 -2.0240
  611TIP3   OH226027   3.226   2.656  18.232 -0.1429 -0.3622 -0.0462
  611TIP3    H126028   3.159   2.596  18.265  0.7003 -1.2010  0.1794
  611TIP3    H226029   3.309   2.615  18.256  0.4775 -0.1257 -1.6988
  612TIP3   OH226030   4.475   1.790  15.789 -0.0436 -0.4721 -0.3461
  612TIP3    H126031   4.427   1.833  15.859 -0.1210 -0.5626 -0.3438
  612TIP3    H226032   4.518   1.715  15.831 -1.2930 -1.4140 -0.6723
  613TIP3   OH226033   3.397   0.376  18.234 -0.5269  0.1802 -0.0314
  613TIP3    H126034   3.487   0.363  18.264 -0.7254 -0.3920  0.3207
  613TIP3    H226035   3.353   0.294  18.254 -0.1794 -1.1014 -3.7383
  614TIP3   OH226036   1.706   1.523  16.564  0.6087 -0.0638 -0.1256
  614TIP3    H126037   1.777   1.582  16.538  0.8246 -0.0173  0.5436
  614TIP3    H226038   1.697   1.538  16.659 -1.6275  1.4017 -0.5076
  615TIP3   OH226039   2.176   2.749  17.228 -0.6734  0.3319  0.0352
  615TIP3    H126040   2.182   2.757  17.323  0.1836  2.6498 -0.1535
  615TIP3    H226041   2.263   2.774  17.197 -0.8101 -0.8159 -1.3629
  616TIP3   OH226042   0.593   4.894  17.996 -0.4742  0.3188 -0.3593
  616TIP3    H126043   0.572   4.878  17.904 -0.7333  0.0407 -0.2552
  616TIP3    H226044   0.508   4.887  18.041 -0.4383  1.0098 -0.1758
  617TIP3   OH226045   6.346   1.337  16.433  0.4642  0.1261 -0.2463
  617TIP3    H126046   6.437   1.364  16.449 -0.2699  2.3118  0.5563
  617TIP3    H226047   6.343   1.318  16.339  1.3682  1.8537 -0.6781
  618TIP3   OH226048   5.803   4.108  17.675  0.2805 -0.7256 -0.4753
  618TIP3    H126049   5.726   4.162  17.695 -0.5601 -2.2674  0.7136
  618TIP3    H226050   5.865   4.168  17.633 -0.5581  1.1655  0.8593
  619TIP3   OH226051   0.622   3.850  18.223 -0.7052 -0.1073  0.8269
  619TIP3    H126052   0.684   3.838  18.294  0.7201 -2.1861 -0.6382
  619TIP3    H226053   0.622   3.945  18.207  3.0408 -0.0420  0.2022
  620TIP3   OH226054   1.734   2.316  18.977  0.4901 -0.2908 -0.3694
  620TIP3    H126055   1.664   2.373  18.946  1.2839  0.0510 -1.6419
  620TIP3    H226056   1.722   2.234  18.929 -0.3805 -1.0603  1.1227
  621TIP3   OH226057   0.921   4.479  17.402  0.8682  0.3972  0.8657
  621TIP3    H126058   0.828   4.498  17.388  0.8803  0.4486  0.8577
  621TIP3    H226059   0.956   4.557  17.444  1.4501  1.4050 -1.3393
  622TIP3   OH226060   4.514   6.500  16.146 -0.2376 -0.1411  0.2942
  622TIP3    H126061   4.473   6.446  16.079 -1.2656 -0.5812  1.2400
  622TIP3    H226062   4.594   6.454  16.170 -0.3466 -0.4644  0.0310
  623TIP3   OH226063   0.570   1.139  17.973  0.3403 -0.1323  0.7785
  623TIP3    H126064   0.584   1.093  18.055 -2.5199  0.7855  1.8816
  623TIP3    H226065   0.582   1.232  17.995 -1.1145  0.1816  0.3580
  624TIP3   OH226066   4.819   7.358  17.534 -0.0190 -0.4136 -0.3276
  624TIP3    H126067   4.877   7.434  17.529  0.4025 -0.6832  0.3140
  624TIP3    H226068   4.877   7.285  17.557 -0.4277 -0.9170 -0.8875
  625TIP3   OH226069   2.258   2.239  17.497 -0.1551 -0.4712 -0.2596
  625TIP3    H126070   2.258   2.271  17.587  2.3203  2.9923 -1.2763
  625TIP3    H226071   2.322   2.167  17.497  0.8313  0.3722  0.5324
  626TIP3   OH226072   2.357   1.274  18.701  0.6363 -0.2263  0.3403
  626TIP3    H126073   2.422   1.217  18.742  1.5343  1.4531  1.3665
  626TIP3    H226074   2.393   1.362  18.711 -0.5248  0.5114 -1.5294
  627TIP3   OH226075   4.411   1.141  17.246  0.4209 -0.0447 -0.3587
  627TIP3    H126076   4.371   1.086  17.179 -1.4453  0.6521  0.1253
  627TIP3    H226077   4.395   1.230  17.216  0.4927  0.2613  0.5066
  628TIP3   OH226078   2.268   1.510  16.549 -0.2078  0.2299 -0.2389
  628TIP3    H126079   2.309   1.567  16.485  3.1418 -0.9503  0.6786
  628TIP3    H226080   2.298   1.422  16.527  0.4583 -0.3077  2.3954
  629TIP3   OH226081   5.078   5.079  16.709 -0.3082  0.2851 -0.0777
  629TIP3    H126082   5.077   5.167  16.747 -1.5069  0.6067 -0.7951
  629TIP3    H226083   5.057   5.021  16.782  3.2961  0.2212  1.0953
  630TIP3   OH226084   4.104   1.958  17.012  0.0838 -0.6286 -0.3237
  630TIP3    H126085   4.011   1.970  17.032  0.0463 -0.5872 -0.5257
  630TIP3    H226086   4.140   2.046  17.010  0.1637 -0.6525 -0.0818
  631TIP3   OH226087   3.811   0.140  17.875  0.2263  0.2460 -0.0040
  631TIP3    H126088   3.750   0.141  17.948  0.7378 -1.6116  0.4859
  631TIP3    H226089   3.758   0.164  17.799 -0.4196  1.6795  0.8439
  632TIP3   OH226090   6.768   0.147  17.982 -0.3226 -0.2338 -0.0906
  632TIP3    H126091   6.845   0.097  17.957  0.5488  0.8959  0.2466
  632TIP3    H226092   6.780   0.232  17.939 -1.2411  0.0481  0.1868
  633TIP3   OH226093   0.601   6.096  17.139 -0.6664 -0.8217  0.9447
  633TIP3    H126094   0.659   6.048  17.079 -1.7813 -0.9970 -0.0159
  633TIP3    H226095   0.515   6.058  17.126 -1.4231  0.8444  0.8073
  634TIP3   OH226096   1.954   5.875  16.593 -0.2691 -0.1770 -0.3332
  634TIP3    H126097   2.041   5.836  16.590 -0.7495 -1.3243 -0.0704
  634TIP3    H226098   1.896   5.807  16.559 -1.2541 -0.0672  1.0384
  635TIP3   OH226099   3.013   7.013  18.637  0.2432 -0.4936  0.1938
  635TIP3    H126100   3.105   7.042  18.638  0.3119 -0.6021 -0.9882
  635TIP3    H226101   3.012   6.932  18.686  0.7199 -0.3049  0.5189
  636TIP3   OH226102   3.398   0.183  19.092  0.9583  0.4528 -0.5224
  636TIP3    H126103   3.406   0.183  19.187  0.1139 -2.2811 -0.3655
  636TIP3    H226104   3.352   0.264  19.072 -3.3354 -1.0255  1.9883
  637TIP3   OH226105   6.120   7.588  16.465  0.1880  0.3311  0.1098
  637TIP3    H126106   6.125   7.581  16.560  0.7103  0.9070  0.1347
  637TIP3    H226107   6.120   7.682  16.447 -0.1762  0.2300 -0.4465
  638TIP3   OH226108   5.781   0.670  16.566  0.0984  0.1028 -0.6823
  638TIP3    H126109   5.818   0.727  16.499 -0.5290 -0.3945 -1.4809
  638TIP3    H226110   5.732   0.604  16.516  0.8344 -1.1520  0.2066
  639TIP3   OH226111   6.032   2.595  18.633 -0.6388  0.7371  0.1302
  639TIP3    H126112   6.009   2.688  18.628 -0.6111  0.7931  0.9812
  639TIP3    H226113   6.075   2.585  18.717  1.9025  0.4958 -1.1062
  640TIP3   OH226114   3.110   7.628  17.456 -0.5694 -0.0702  0.9648
  640TIP3    H126115   3.025   7.631  17.412 -1.0285 -0.8700  1.7683
  640TIP3    H226116   3.111   7.707  17.510  0.2050  1.1753 -0.8187
  641TIP3   OH226117   3.436   0.173  18.808  0.5069 -0.4919 -0.0175
  641TIP3    H126118   3.434   0.168  18.903  1.0219 -0.5905 -0.0085
  641TIP3    H226119   3.488   0.250  18.789  1.2454 -1.0307 -0.2212
  642TIP3   OH226120   4.170   4.591  17.134 -0.2794 -0.3691 -0.4231
  642TIP3    H126121   4.184   4.528  17.063 -0.0770 -1.9734  0.9740
  642TIP3    H226122   4.253   4.637  17.141  0.1440 -1.1090 -0.4048
  643TIP3   OH226123   1.295   5.019  18.733  0.7671 -0.0656 -0.8490
  643TIP3    H126124   1.226   4.955  18.716  1.0205 -0.9102  1.1136
  643TIP3    H226125   1.250   5.104  18.728  0.1064 -0.4501 -1.8901
  644TIP3   OH226126   3.508   5.640  17.839  0.3217  0.0607  0.4684
  644TIP3    H126127   3.509   5.698  17.915 -0.4833 -1.6033  1.7985
  644TIP3    H226128   3.591   5.657  17.795  0.0622  2.3002  0.6956
  645TIP3   OH226129   7.316   0.755  18.125  0.3732  0.2956 -0.0174
  645TIP3    H126130   7.372   0.829  18.099 -0.6434  0.7789 -0.9315
  645TIP3    H226131   7.361   0.716  18.200  1.3056  1.4060  0.0333
  646TIP3   OH226132   4.263   3.179  17.374 -0.0143 -0.2094 -0.3614
  646TIP3    H126133   4.246   3.258  17.424  0.5473 -0.0127 -0.4729
  646TIP3    H226134   4.294   3.210  17.289  0.7545 -0.5477 -0.2116
  647TIP3   OH226135   2.580   1.806  16.560 -0.6804  0.2834 -0.9010
  647TIP3    H126136   2.531   1.751  16.498  1.2456 -2.7868  0.0545
  647TIP3    H226137   2.672   1.784  16.543  0.3078  3.8455 -0.8689
  648TIP3   OH226138   5.736   7.179  18.508 -0.3550 -0.1044 -0.2297
  648TIP3    H126139   5.796   7.244  18.545 -1.3803 -0.4626  2.2957
  648TIP3    H226140   5.652   7.224  18.504 -0.1754  0.1415 -2.9839
  649TIP3   OH226141   7.250   1.207  18.538 -0.0412 -0.9422 -0.1721
  649TIP3    H126142   7.297   1.155  18.603  0.1438  0.6090  0.9820
  649TIP3    H226143   7.254   1.154  18.458 -1.1406 -3.3865  1.2593
  650TIP3   OH226144   2.156   0.482  16.944 -0.4869 -0.3335  0.1947
  650TIP3    H126145   2.155   0.573  16.973  1.2352  0.1511 -1.0592
  650TIP3    H226146   2.115   0.433  17.015 -1.8181  1.4542  0.7200
  651TIP3   OH226147   5.649   6.118  17.337  0.3824  0.3439  0.3371
  651TIP3    H126148   5.575   6.135  17.396 -0.2889 -0.8757 -0.0991
  651TIP3    H226149   5.657   6.197  17.285  0.7644  1.3141  1.8122
  652TIP3   OH226150   1.604   7.132  17.855 -0.2541  0.3017 -0.3088
  652TIP3    H126151   1.595   7.037  17.854  0.0741  0.2609  0.4027
  652TIP3    H226152   1.521   7.164  17.821 -0.9059 -0.2053  0.7599
  653TIP3   OH226153   7.438   6.593  17.924 -0.6061 -0.6162  0.1703
  653TIP3    H126154   7.452   6.593  18.019  0.9938 -3.3702  0.0409
  653TIP3    H226155   7.376   6.522  17.909  2.2980 -3.1523 -1.0191
  654TIP3   OH226156   4.141   0.210  17.290  0.0045  0.2826 -0.5110
  654TIP3    H126157   4.179   0.297  17.293 -0.6629  0.5944 -0.7706
  654TIP3    H226158   4.162   0.171  17.374  1.0802  0.3531 -0.7305
  655TIP3   OH226159   4.549   5.388  17.114 -0.3250  0.0767 -0.2496
  655TIP3    H126160   4.625   5.331  17.116 -0.0968  0.3863 -0.1275
  655TIP3    H226161   4.569   5.458  17.176 -1.8146 -1.2567  1.8813
  656TIP3   OH226162   0.216   3.519  18.217 -0.3202  0.0521  0.1996
  656TIP3    H126163   0.232   3.504  18.310 -0.9077 -3.4986 -0.1356
  656TIP3    H226164   0.129   3.482  18.202 -0.5982  1.3382 -1.6370
  657TIP3   OH226165   5.964   2.091  18.669 -0.2248 -0.8281  0.1034
  657TIP3    H126166   6.019   2.150  18.720  2.1423 -0.4400 -2.6335
  657TIP3    H226167   5.957   2.012  18.723  0.9317  0.0499  1.6113
  658TIP3   OH226168   5.383   5.040  16.776 -0.1753  0.4103 -0.0671
  658TIP3    H126169   5.366   5.022  16.684 -1.6383 -0.5854  0.3447
  658TIP3    H226170   5.337   4.970  16.822 -0.7557  1.7392  1.4695
  659TIP3   OH226171   0.538   3.044  16.153  0.2500 -0.3873  0.3841
  659TIP3    H126172   0.539   3.137  16.132 -1.8306 -0.5490 -0.7201
  659TIP3    H226173   0.606   3.006  16.097  0.8758  0.4095  0.5942
  660TIP3   OH226174   2.597   0.973  16.282 -0.4120 -0.1101 -0.1210
  660TIP3    H126175   2.613   0.905  16.217  0.2681 -0.2920  0.2222
  660TIP3    H226176   2.642   0.942  16.361 -1.5757 -0.0950  0.5629
  661TIP3   OH226177   6.878   5.869  18.669 -0.2955 -0.4069 -0.9129
  661TIP3    H126178   6.846   5.887  18.581 -1.4375 -1.0687 -0.6536
  661TIP3    H226179   6.818   5.916  18.727 -0.6727 -1.4554 -0.4232
  662TIP3   OH226180   0.469   6.662  17.463  0.3639 -0.0959  0.3335
  662TIP3    H126181   0.510   6.748  17.463 -1.2987  0.7391  1.1034
  662TIP3    H226182   0.541   6.601  17.447  1.4604  1.4689 -1.0090
  663TIP3   OH226183   6.568   4.920  18.092  0.0694  0.1414  0.0575
  663TIP3    H126184   6.500   4.981  18.119 -0.7388  0.1295 -1.8344
  663TIP3    H226185   6.648   4.973  18.089  0.0952  0.2772  1.7354
  664TIP3   OH226186   1.345   4.724  18.301 -0.1523 -0.2475  0.1242
  664TIP3    H126187   1.267   4.676  18.271 -0.4730  1.0890 -1.3454
  664TIP3    H226188   1.317   4.815  18.305  1.2122  0.1999  0.0337
  665TIP3   OH226189   0.098   3.581  16.504 -0.3870 -0.0187  0.7480
  665TIP3    H126190   0.040   3.516  16.464 -1.0688  1.1659 -0.2742
  665TIP3    H226191   0.165   3.530  16.547  0.8391 -1.4803 -2.5453
  666TIP3   OH226192   0.745   0.459  17.569 -0.4201  0.2781 -0.3807
  666TIP3    H126193   0.706   0.530  17.621  0.5305  0.2103  0.4469
  666TIP3    H226194   0.838   0.462  17.591 -0.0828 -0.0798 -1.7230
  667TIP3   OH226195   6.361   5.083  18.124 -0.0473 -0.0451 -0.2235
  667TIP3    H126196   6.387   5.174  18.141 -2.6568  1.2805 -2.4702
  667TIP3    H226197   6.279   5.072  18.172  0.0208 -1.0812 -0.3307
  668TIP3   OH226198   5.161   5.876  18.129  0.2909  0.5776  0.0927
  668TIP3    H126199   5.118   5.790  18.123  0.8013  0.4221 -2.1255
  668TIP3    H226200   5.251   5.856  18.154 -0.1987  0.7212  2.1870
  669TIP3   OH226201   4.824   3.011  17.869 -0.0249  0.1385  0.0089
  669TIP3    H126202   4.794   3.078  17.932  0.6478  0.3191  0.1444
  669TIP3    H226203   4.780   3.034  17.787 -0.7001  0.0601  0.3430
  670TIP3   OH226204   1.084   4.003  17.863  0.5129 -0.0693 -0.5049
  670TIP3    H126205   1.036   4.087  17.863 -0.3708 -0.5551 -0.1519
  670TIP3    H226206   1.036   3.948  17.801  0.9251 -0.4079 -0.5269
  671TIP3   OH226207   3.287   4.823  18.004 -0.4339 -0.3794 -0.4920
  671TIP3    H126208   3.296   4.730  18.023 -0.1105 -0.2256  0.1516
  671TIP3    H226209   3.325   4.834  17.916  2.0487 -0.4502  0.4699
  672TIP3   OH226210   2.704   4.712  17.669 -0.5724 -0.4890 -0.2414
  672TIP3    H126211   2.753   4.663  17.735 -0.6473 -1.1466 -0.6596
  672TIP3    H226212   2.613   4.688  17.685 -0.7442  0.5672  0.4003
  673TIP3   OH226213   7.162   5.026  17.198 -0.5382 -0.1042  0.2410
  673TIP3    H126214   7.210   5.107  17.216 -0.0739 -0.5519  1.0492
  673TIP3    H226215   7.221   4.956  17.228 -1.0288 -0.7278 -0.2435
  674TIP3   OH226216   4.326   4.122  16.366  0.0207  0.3597  0.2046
  674TIP3    H126217   4.377   4.101  16.445  0.8532  1.2073 -0.0916
  674TIP3    H226218   4.378   4.088  16.294  0.2494  1.3577 -0.1142
  675TIP3   OH226219   1.385   7.340  17.801  0.3938  0.5477  0.1647
  675TIP3    H126220   1.308   7.288  17.824 -0.7395  2.0830 -0.0519
  675TIP3    H226221   1.404   7.315  17.710 -0.5156  0.9390 -0.1427
  676TIP3   OH226222   0.721   2.486  18.282 -0.8141 -0.0110  0.2351
  676TIP3    H126223   0.724   2.579  18.302 -1.6761 -0.3174  1.9729
  676TIP3    H226224   0.651   2.478  18.216  0.1303  0.6884 -0.8925
  677TIP3   OH226225   0.263   7.185  18.348  0.3729  0.4944  0.5492
  677TIP3    H126226   0.217   7.120  18.294  0.7890  0.4817  0.2046
  677TIP3    H226227   0.210   7.265  18.338  1.1157  0.8476 -0.9113
  678TIP3   OH226228   0.837   1.212  15.879 -0.3156  0.1281 -0.6350
  678TIP3    H126229   0.767   1.156  15.913 -0.1285 -0.1973 -0.7811
  678TIP3    H226230   0.877   1.250  15.957 -0.1210 -0.3350 -0.5032
  679TIP3   OH226231   2.938   1.410  16.213  0.0592 -0.8546 -0.1787
  679TIP3    H126232   3.016   1.424  16.160  0.5877  0.6722  0.9398
  679TIP3    H226233   2.880   1.358  16.157  1.9263 -2.2125 -0.9721
  680TIP3   OH226234   1.841   6.705  15.930 -0.4544  0.1859 -0.4344
  680TIP3    H126235   1.829   6.617  15.967 -0.0600  0.7362  1.0537
  680TIP3    H226236   1.931   6.705  15.897 -0.4162  0.0670 -0.3341
  681TIP3   OH226237   5.532   4.842  16.536  0.0247 -0.1093  0.2255
  681TIP3    H126238   5.462   4.905  16.521  0.1163 -0.2007 -0.6542
  681TIP3    H226239   5.547   4.802  16.450  0.8110 -0.4502  0.5099
  682TIP3   OH226240   1.228   1.321  18.205  0.7923  0.7317 -0.4673
  682TIP3    H126241   1.305   1.296  18.256  0.7508 -1.0055 -1.1747
  682TIP3    H226242   1.154   1.306  18.264  0.7400 -1.3250 -0.9738
  683TIP3   OH226243   7.271   2.579  15.935 -0.3486 -0.0004  0.1590
  683TIP3    H126244   7.269   2.672  15.959  0.5815 -0.1069  0.7312
  683TIP3    H226245   7.215   2.536  16.000 -1.0452  0.1972 -0.3090
  684TIP3   OH226246   6.626   0.835  17.440  0.5129  0.0293  0.2546
  684TIP3    H126247   6.590   0.746  17.444  0.3391  0.1033  0.3576
  684TIP3    H226248   6.559   0.890  17.480  1.0539  0.0729  1.1343
  685TIP3   OH226249   5.507   1.259  17.734  0.1209 -0.0893 -0.3773
  685TIP3    H126250   5.528   1.249  17.827 -0.2999  0.8960 -0.1639
  685TIP3    H226251   5.521   1.351  17.716  0.0922 -0.2558 -1.2733
  686TIP3   OH226252   2.504   2.952  17.803 -0.1469 -0.0599  0.0581
  686TIP3    H126253   2.561   2.949  17.880 -1.2609  0.3412  0.9207
  686TIP3    H226254   2.492   3.045  17.786 -0.7060 -0.1438  0.0023
  687TIP3   OH226255   4.775   0.792  16.039 -0.1102 -0.2972  0.1842
  687TIP3    H126256   4.720   0.820  16.111 -0.1177 -1.4448  0.6462
  687TIP3    H226257   4.746   0.845  15.964 -0.1280  0.8677  0.9978
  688TIP3   OH226258   3.785   0.692  17.145 -0.4227 -0.6799  0.0210
  688TIP3    H126259   3.756   0.699  17.055 -1.1119 -0.7376  0.2339
  688TIP3    H226260   3.858   0.754  17.152 -0.4881 -0.5379 -0.5168
  689TIP3   OH226261   6.791   6.516  18.000 -0.1382 -0.0430 -0.4389
  689TIP3    H126262   6.719   6.513  17.937  0.0975 -1.2864 -0.6704
  689TIP3    H226263   6.870   6.512  17.946  0.0787 -0.2529 -0.1088
  690TIP3   OH226264   3.600   5.327  16.470 -0.4358  0.2542 -0.2288
  690TIP3    H126265   3.621   5.235  16.457 -1.5948 -0.0752  0.0718
  690TIP3    H226266   3.664   5.375  16.417  0.9043 -0.6686  0.5313
  691TIP3   OH226267   5.556   5.468  17.127 -0.1016  0.0737  0.4500
  691TIP3    H126268   5.497   5.440  17.197 -0.9777 -0.8876 -0.6485
  691TIP3    H226269   5.503   5.525  17.072 -0.0666 -0.8551 -0.5859
  692TIP3   OH226270   3.509   1.805  17.604 -0.4070 -0.2679  0.3863
  692TIP3    H126271   3.498   1.843  17.517  0.9704 -0.6877 -0.0130
  692TIP3    H226272   3.539   1.715  17.587  1.3919  0.1117  1.2406
  693TIP3   OH226273   7.123   4.079  18.140  0.4772 -0.0682  0.4245
  693TIP3    H126274   7.081   4.061  18.056  1.1034  0.2392  0.0431
  693TIP3    H226275   7.056   4.058  18.205 -0.0161 -0.2883 -0.1505
  694TIP3   OH226276   3.708   4.930  16.924 -0.2813 -0.9983 -0.3567
  694TIP3    H126277   3.681   4.894  17.009  0.3137  0.8181  0.6549
  694TIP3    H226278   3.804   4.927  16.927 -0.2585 -1.7883 -1.3866
  695TIP3   OH226279   7.010   4.816  16.448 -0.3799  0.3503  0.4616
  695TIP3    H126280   6.974   4.802  16.361 -1.2475 -0.5460  0.9446
  695TIP3    H226281   7.083   4.877  16.435 -1.1948  1.0912 -0.7248
  696TIP3   OH226282   7.495   1.382  16.943  0.1837  0.0396  0.2549
  696TIP3    H126283   7.576   1.380  16.995  0.7450 -0.0320 -0.6033
  696TIP3    H226284   7.517   1.436  16.867 -0.1829 -0.9653 -0.5969
  697TIP3   OH226285   3.387   5.101  17.330 -0.5516  0.4870  0.1602
  697TIP3    H126286   3.473   5.125  17.362 -0.1245 -0.6330 -0.0831
  697TIP3    H226287   3.358   5.030  17.388  0.1666 -1.4599 -1.7100
  698TIP3   OH226288   5.775   2.211  18.173 -0.4404  0.0458 -0.5047
  698TIP3    H126289   5.682   2.228  18.188 -0.5435 -1.0414  0.2379
  698TIP3    H226290   5.819   2.254  18.246 -0.2207  1.6934 -1.5654
  699TIP3   OH226291   4.259   1.885  16.754 -0.2678  0.0370  0.7087
  699TIP3    H126292   4.240   1.856  16.843 -2.4550  1.1114  0.6711
  699TIP3    H226293   4.220   1.818  16.698  0.0653 -0.0502  0.5835
  700TIP3   OH226294   0.028   2.075  18.530 -0.2605  0.9778 -0.0937
  700TIP3    H126295  -0.030   2.148  18.510 -0.9980  0.4582  0.0896
  700TIP3    H226296   0.018   2.061  18.624 -0.4737  0.3604 -0.2024
  701TIP3   OH226297   0.700   1.389  17.908 -0.1230  0.3561 -0.0091
  701TIP3    H126298   0.647   1.459  17.945  1.4595  1.2949  0.6060
  701TIP3    H226299   0.770   1.375  17.971  1.5763  0.6793 -1.7039
  702TIP3   OH226300   3.264   1.970  18.692 -0.0976 -0.0088 -0.1647
  702TIP3    H126301   3.282   1.998  18.782 -0.5295  0.0942 -0.1106
  702TIP3    H226302   3.230   2.049  18.649  0.1627 -0.0427 -0.4338
  703TIP3   OH226303   6.166   7.320  16.451 -0.1296  0.4487 -0.2472
  703TIP3    H126304   6.150   7.269  16.372 -3.1584  0.4776  0.2211
  703TIP3    H226305   6.158   7.411  16.423 -1.5087  0.4543  0.0790
  704TIP3   OH226306   7.162   5.690  15.972  0.1741 -0.2923 -0.4013
  704TIP3    H126307   7.153   5.778  15.935  0.5316 -0.3013 -0.5177
  704TIP3    H226308   7.105   5.690  16.049  0.1558  0.0355 -0.4138
  705TIP3   OH226309   7.498   3.635  18.234  0.6630 -0.1858 -0.3059
  705TIP3    H126310   7.583   3.679  18.236  0.9008 -0.6559  0.2309
  705TIP3    H226311   7.438   3.702  18.203  0.9803  0.6111  0.7129
  706TIP3   OH226312   4.084   6.935  17.542 -0.2405 -0.9927  0.2708
  706TIP3    H126313   4.098   6.865  17.477 -0.0827  1.1348 -2.1526
  706TIP3    H226314   4.172   6.962  17.566 -0.2816 -0.6455  0.0378
  707TIP3   OH226315   5.949   1.048  17.629 -0.4023 -0.0283  1.2914
  707TIP3    H126316   5.999   1.018  17.704  1.9366  0.2759 -0.0340
  707TIP3    H226317   5.959   0.978  17.564  1.6976  1.6791 -0.3792
  708TIP3   OH226318   0.071   4.494  16.098  0.2576 -0.4339 -0.2360
  708TIP3    H126319   0.161   4.526  16.100  0.1083 -0.0656  0.6219
  708TIP3    H226320   0.039   4.503  16.188 -0.9038  0.1837 -0.6900
  709TIP3   OH226321   7.314   4.988  18.388  0.4332 -0.1717 -0.0063
  709TIP3    H126322   7.347   4.898  18.381  1.4803  0.1838  0.2056
  709TIP3    H226323   7.337   5.028  18.304 -0.7030 -0.3005 -0.3966
  710TIP3   OH226324   5.252   5.927  17.141 -0.0533  0.2037 -0.1648
  710TIP3    H126325   5.196   5.958  17.069 -0.6711 -1.5625 -0.4901
  710TIP3    H226326   5.193   5.876  17.196  1.0196 -0.8157  0.0614
  711TIP3   OH226327   5.976   5.880  17.722  0.1898 -0.1415  0.6857
  711TIP3    H126328   5.952   5.868  17.630 -0.2045 -1.2253  0.9186
  711TIP3    H226329   5.907   5.938  17.756  2.0118  2.8967 -0.3965
  712TIP3   OH226330   4.336   5.885  15.488 -0.1774  0.1659  0.2440
  712TIP3    H126331   4.294   5.969  15.508  0.3574  0.4156  0.3463
  712TIP3    H226332   4.326   5.833  15.568 -1.6101 -0.3455 -0.2323
  713TIP3   OH226333   4.702   1.655  16.899  0.8162 -0.3466 -0.8232
  713TIP3    H126334   4.786   1.635  16.856  1.3550  1.3253 -0.6270
  713TIP3    H226335   4.677   1.740  16.863  0.9636  0.8174  1.6922
  714TIP3   OH226336   5.773   7.596  18.395  0.2286  0.3794  0.9512
  714TIP3    H126337   5.824   7.660  18.345  1.0868 -0.1075  1.1874
  714TIP3    H226338   5.689   7.591  18.349  0.1049  1.7376  0.9873
  715TIP3   OH226339   7.452   1.509  18.326  0.4948  0.1609  0.2815
  715TIP3    H126340   7.385   1.564  18.285  0.0522 -0.5557  0.0355
  715TIP3    H226341   7.528   1.518  18.268  0.5094  0.7035  0.3754
  716TIP3   OH226342   6.279   1.157  18.858  0.1907  0.0584  0.1282
  716TIP3    H126343   6.203   1.165  18.800  0.0978 -0.1712  0.2196
  716TIP3    H226344   6.307   1.247  18.874  0.8461  0.0995 -1.1087
  717TIP3   OH226345   5.254   2.495  17.048 -0.2667 -0.0746  0.6318
  717TIP3    H126346   5.317   2.475  16.979  0.7702 -1.5313  1.9040
  717TIP3    H226347   5.169   2.493  17.005  0.4536  0.5704 -0.8693
  718TIP3   OH226348   1.094   5.910  17.065  0.8287  0.0728  0.0090
  718TIP3    H126349   1.028   5.942  17.003  0.1920 -0.7979  0.2276
  718TIP3    H226350   1.147   5.849  17.014  0.4796 -0.4302  0.2528
  719TIP3   OH226351   6.767   5.906  16.883 -0.2373 -0.3098  0.0130
  719TIP3    H126352   6.749   5.813  16.868  2.9171 -0.7154 -2.2817
  719TIP3    H226353   6.851   5.921  16.840 -0.5386  3.6085  0.4697
  720TIP3   OH226354   1.936   4.635  16.715  0.0118 -0.0631 -0.5818
  720TIP3    H126355   1.859   4.680  16.750  0.1102  0.2137 -0.7140
  720TIP3    H226356   1.917   4.542  16.726  0.8601 -0.0017  2.0217
  721TIP3   OH226357   4.465   1.057  17.493 -0.6546 -1.0050  0.5056
  721TIP3    H126358   4.440   1.071  17.402 -0.8619 -1.5343  0.4776
  721TIP3    H226359   4.387   1.081  17.543  0.1949  1.5826  0.7237
  722TIP3   OH226360   4.755   2.476  16.580  0.5896  0.3100 -0.0201
  722TIP3    H126361   4.753   2.497  16.487 -0.2921  2.3430  0.4167
  722TIP3    H226362   4.843   2.501  16.608  0.4605  0.8373 -0.0767
  723TIP3   OH226363   3.208   5.028  16.855 -0.2480  0.1833  0.3588
  723TIP3    H126364   3.285   5.017  16.911  1.0493 -1.9095 -1.6460
  723TIP3    H226365   3.235   5.093  16.790 -0.7764  0.5982  0.5420
  724TIP3   OH226366   6.429   6.058  16.492  0.2491 -0.0684  0.8028
  724TIP3    H126367   6.494   5.996  16.459  0.7239  0.8643 -0.0617
  724TIP3    H226368   6.355   6.050  16.432  0.5164  0.5548  0.3783
  725TIP3   OH226369   0.621   4.872  16.944 -0.0503  0.4079  0.0222
  725TIP3    H126370   0.705   4.828  16.932  0.5752  1.2159  1.2779
  725TIP3    H226371   0.586   4.836  17.025 -0.5329  0.6731 -0.0629
  726TIP3   OH226372   5.058   1.807  17.100 -0.3911  0.0213  0.2449
  726TIP3    H126373   4.969   1.844  17.104 -0.2006  0.5035  0.1071
  726TIP3    H226374   5.046   1.721  17.061 -0.5675  0.9443 -1.9166
  727TIP3   OH226375   0.329   1.600  17.516  0.3598  0.3487  0.2234
  727TIP3    H126376   0.291   1.596  17.603 -0.2360 -0.3048 -0.0553
  727TIP3    H226377   0.254   1.596  17.456  0.8541 -1.2220 -0.3409
  728TIP3   OH226378   1.319   6.334  17.372 -0.0471 -0.0781 -0.3846
  728TIP3    H126379   1.322   6.289  17.456 -0.3679  1.0854  0.2836
  728TIP3    H226380   1.280   6.271  17.312 -2.1153 -0.1373  0.9097
  729TIP3   OH226381   1.298   5.838  16.710 -0.1662  0.1815  0.4033
  729TIP3    H126382   1.312   5.795  16.794  1.0831  1.1645  0.7260
  729TIP3    H226383   1.316   5.770  16.644  1.8924  0.1961  0.8928
  730TIP3   OH226384   5.055   1.628  17.902 -0.0296 -0.5707 -0.0389
  730TIP3    H126385   5.093   1.586  17.824  0.7284 -0.8972  0.4972
  730TIP3    H226386   5.102   1.711  17.909  1.0940 -1.2681  1.0112
  731TIP3   OH226387   3.518   7.527  18.095  0.6327 -0.3834 -0.0720
  731TIP3    H126388   3.426   7.553  18.099  0.8422  0.2892  0.4121
  731TIP3    H226389   3.528   7.463  18.165  0.3117 -1.1841 -0.7422
  732TIP3   OH226390   7.401   0.284  17.378 -0.4702  0.7079  0.1366
  732TIP3    H126391   7.397   0.230  17.456 -0.4414  0.1286 -0.2562
  732TIP3    H226392   7.354   0.364  17.402  0.7798  1.1568  1.2143
  733TIP3   OH226393   0.067   2.918  17.434  0.3375  0.1769  0.0315
  733TIP3    H126394   0.095   2.846  17.379  0.7901 -0.5378  1.1682
  733TIP3    H226395   0.144   2.941  17.485 -0.3647  0.0402  1.1917
  734TIP3   OH226396   3.431   6.407  16.994 -0.1601  0.7711  0.4562
  734TIP3    H126397   3.508   6.354  17.019 -0.2279 -0.1601 -1.1727
  734TIP3    H226398   3.461   6.458  16.920 -1.2345  0.0298 -0.5134
  735TIP3   OH226399   5.884   4.409  17.761 -0.7007 -0.2793  0.3816
  735TIP3    H126400   5.793   4.380  17.758 -1.8304  2.8403 -0.1554
  735TIP3    H226401   5.920   4.384  17.676 -2.4818  2.0889 -1.2277
  736TIP3   OH226402   3.604   1.078  18.937  0.2280 -0.7014  0.7372
  736TIP3    H126403   3.631   1.052  18.848 -1.9658  2.0602 -0.8731
  736TIP3    H226404   3.686   1.078  18.987  1.5935 -2.0313 -1.3209
  737TIP3   OH226405   0.210   2.149  17.502 -0.0315 -0.4198  0.3470
  737TIP3    H126406   0.170   2.125  17.419 -2.4652  1.5216  0.8474
  737TIP3    H226407   0.256   2.070  17.531  0.0307 -1.4395 -2.3031
  738TIP3   OH226408   5.512   2.145  18.550 -0.4202  0.6613 -0.0909
  738TIP3    H126409   5.584   2.121  18.608 -1.7316 -0.1920  1.2443
  738TIP3    H226410   5.530   2.237  18.527  1.5353  0.2227 -0.5377
  739TIP3   OH226411   0.976   0.181  18.119  0.8108  0.1580 -0.2123
  739TIP3    H126412   1.014   0.103  18.158 -3.1474 -2.0350 -0.1972
  739TIP3    H226413   0.984   0.168  18.025 -0.1123 -0.5050 -0.2160
  740TIP3   OH226414   1.414   3.252  17.379 -0.0633 -0.4709  0.2565
  740TIP3    H126415   1.400   3.292  17.465 -1.2517  0.9648 -0.5651
  740TIP3    H226416   1.326   3.239  17.344  0.4159  0.0366 -1.1983
  741TIP3   OH226417   3.249   3.322  16.402 -0.4569 -0.4975  0.1739
  741TIP3    H126418   3.187   3.272  16.455  0.0331 -0.1346  1.1276
  741TIP3    H226419   3.250   3.279  16.317 -0.4810 -1.7498  0.7966
  742TIP3   OH226420   2.780   6.092  18.360  0.3631  0.0518 -0.1930
  742TIP3    H126421   2.789   6.101  18.455 -1.2714  0.8534 -0.0845
  742TIP3    H226422   2.755   6.000  18.347  2.0872 -0.4862 -0.0178
  743TIP3   OH226423   0.763   0.675  17.186  0.3576  0.5437  0.1869
  743TIP3    H126424   0.787   0.743  17.249  0.3362  0.0684  0.7156
  743TIP3    H226425   0.804   0.702  17.104  3.1211 -0.4803  1.1383
  744TIP3   OH226426   1.068   2.481  17.373  0.6693 -0.4782 -0.0589
  744TIP3    H126427   1.141   2.440  17.326 -0.4763 -1.5837 -0.9132
  744TIP3    H226428   1.068   2.437  17.458  1.0453 -0.4097 -0.0182
  745TIP3   OH226429   1.527   4.387  16.189  0.1015  0.5556 -0.1809
  745TIP3    H126430   1.598   4.326  16.209 -0.3524  0.0373 -0.1292
  745TIP3    H226431   1.566   4.451  16.129  1.1893  1.4813  1.4210
  746TIP3   OH226432   5.460   4.598  17.835 -0.6252  0.1077 -0.4654
  746TIP3    H126433   5.538   4.647  17.810 -0.8180 -0.9087 -3.6123
  746TIP3    H226434   5.402   4.607  17.759 -2.1121 -2.0161  0.3310
  747TIP3   OH226435   2.951   1.355  16.478  0.4348  0.4763  0.3329
  747TIP3    H126436   2.930   1.375  16.386 -1.5126 -0.3552  0.5435
  747TIP3    H226437   3.034   1.308  16.474 -1.2432 -2.6562 -1.4237
  748TIP3   OH226438   2.513   0.575  16.966 -0.4611  0.0250 -0.3238
  748TIP3    H126439   2.442   0.639  16.960 -1.3819 -0.9770 -0.5385
  748TIP3    H226440   2.567   0.606  17.039 -0.1401  1.7365 -1.2483
  749TIP3   OH226441   5.232   2.121  17.518 -0.4833  0.1859  0.2120
  749TIP3    H126442   5.240   2.077  17.434 -0.0189  1.0800 -0.2286
  749TIP3    H226443   5.140   2.112  17.541 -0.8816  0.9337 -0.9762
  750TIP3   OH226444   1.616   4.431  18.622  0.3523 -0.4927  0.1470
  750TIP3    H126445   1.710   4.419  18.635  0.2310 -0.0733  1.5077
  750TIP3    H226446   1.578   4.344  18.637  0.1327  0.0832  3.7479
  751TIP3   OH226447   7.594   4.882  17.055 -0.0861 -0.9269 -0.4724
  751TIP3    H126448   7.557   4.833  17.128  0.5233  0.7643  1.0625
  751TIP3    H226449   7.654   4.821  17.013 -0.7770 -2.0812  0.1714
  752TIP3   OH226450   4.339   7.119  16.540 -0.3089 -0.3773  0.2433
  752TIP3    H126451   4.294   7.153  16.463 -0.5776 -1.2177  0.0125
  752TIP3    H226452   4.329   7.024  16.533  0.1484 -0.4908  1.0207
  753TIP3   OH226453   3.788   6.444  17.569  0.3121 -0.0882  0.3400
  753TIP3    H126454   3.826   6.417  17.653 -0.1794  0.4325  0.7382
  753TIP3    H226455   3.695   6.420  17.576  0.0306  0.9527  0.3976
  754TIP3   OH226456   6.632   1.064  16.199 -0.4403  0.1382 -0.0550
  754TIP3    H126457   6.656   0.975  16.174 -0.0616  0.0207  0.6813
  754TIP3    H226458   6.705   1.119  16.168 -0.4579  0.1292 -0.1115
  755TIP3   OH226459   4.922   1.358  16.497 -0.1957 -0.1194 -0.8014
  755TIP3    H126460   4.876   1.439  16.516 -0.0957 -0.6830  2.5376
  755TIP3    H226461   5.015   1.382  16.503 -0.1672 -0.4522  0.3277
  756TIP3   OH226462   3.898   1.446  18.800  0.2279 -0.4461  0.1851
  756TIP3    H126463   3.867   1.532  18.828 -1.7310 -1.4893  1.4916
  756TIP3    H226464   3.824   1.408  18.752  0.4260 -2.0303  1.0607
  757TIP3   OH226465   4.676   2.045  18.537  0.3378 -0.5955 -0.1935
  757TIP3    H126466   4.742   1.976  18.526  1.5857  0.6192 -0.7022
  757TIP3    H226467   4.688   2.075  18.627 -0.0214 -0.8553 -0.0580
  758TIP3   OH226468   1.256   0.750  16.413  0.2039  0.0137 -0.0344
  758TIP3    H126469   1.310   0.799  16.474  1.9932  0.1076 -1.6248
  758TIP3    H226470   1.168   0.788  16.422  1.4052  3.2733 -0.9208
  759TIP3   OH226471   2.309   4.948  18.439  0.6147  0.8049  0.1708
  759TIP3    H126472   2.374   5.000  18.486  0.0240  1.1657  0.6020
  759TIP3    H226473   2.356   4.911  18.364  1.1591  1.5655  0.1362
  760TIP3   OH226474   2.918   3.569  17.591  0.6007 -0.6959  0.0325
  760TIP3    H126475   2.906   3.633  17.661 -0.1363  0.1571 -0.8440
  760TIP3    H226476   2.925   3.621  17.511  1.2125 -1.6565 -0.5729
  761TIP3   OH226477   0.576   3.743  17.962 -0.5006  0.2256  0.8909
  761TIP3    H126478   0.612   3.809  18.021  0.7863 -0.0744  0.4694
  761TIP3    H226479   0.593   3.777  17.874 -1.2619  0.0738  0.6769
  762TIP3   OH226480   7.165   5.068  17.754  0.1427 -0.4661  0.1421
  762TIP3    H126481   7.196   5.096  17.668 -3.4121 -0.3234 -1.2352
  762TIP3    H226482   7.133   4.979  17.740 -2.0414  0.1521  0.8349
  763TIP3   OH226483   6.588   3.397  17.702  0.5735  0.2956  0.3948
  763TIP3    H126484   6.654   3.443  17.650 -0.4067  0.6427 -0.5757
  763TIP3    H226485   6.635   3.324  17.741  1.0301 -0.8885 -2.1898
  764TIP3   OH226486   0.322   4.004  18.034 -0.2966  0.1665  0.1869
  764TIP3    H126487   0.317   3.921  18.081  0.7726  0.4721  0.8646
  764TIP3    H226488   0.312   3.980  17.942  0.2406 -0.7472  0.3545
  765TIP3   OH226489   0.234   2.623  17.094 -0.2316 -0.2120  0.9668
  765TIP3    H126490   0.204   2.545  17.047 -1.0779  1.1113 -0.7890
  765TIP3    H226491   0.319   2.644  17.054 -0.4908  0.3553  0.7081
  766TIP3   OH226492   3.569   1.923  18.871 -0.5186 -0.1038  0.0750
  766TIP3    H126493   3.523   1.883  18.945 -0.1160 -0.1074  0.3278
  766TIP3    H226494   3.594   2.010  18.902 -0.9104  0.1396 -0.2803
  767TIP3   OH226495   0.267   1.157  18.762 -0.3069  0.0523 -0.8502
  767TIP3    H126496   0.272   1.063  18.776 -0.7940  0.0764 -0.4722
  767TIP3    H226497   0.173   1.175  18.756 -0.3306  0.7872  1.0929
  768TIP3   OH226498   6.538   5.722  18.542  0.2556  0.2676  0.1111
  768TIP3    H126499   6.532   5.633  18.577 -0.6803  0.3179  0.1283
  768TIP3    H226500   6.482   5.774  18.600  0.2815  0.7408 -0.2811
  769TIP3   OH226501   4.151   0.710  16.844 -0.3871  0.1522  0.3121
  769TIP3    H126502   4.239   0.704  16.806 -0.7123 -1.1034 -0.3278
  769TIP3    H226503   4.131   0.620  16.870 -1.6530  0.3352  0.0218
  770TIP3   OH226504   3.878   4.838  16.395  0.3072  0.3047  0.4626
  770TIP3    H126505   3.914   4.756  16.360  0.3131  0.8100 -0.7839
  770TIP3    H226506   3.805   4.859  16.337 -0.9121  0.2182  1.9098
  771TIP3   OH226507   2.102   0.323  17.163  0.2878 -0.7225  0.1680
  771TIP3    H126508   2.087   0.316  17.258  0.3290  1.2575  0.3586
  771TIP3    H226509   2.167   0.256  17.144 -1.4295 -2.7842  1.0853
  772TIP3   OH226510   1.385   3.344  17.618  0.3726  0.0944 -0.1514
  772TIP3    H126511   1.351   3.427  17.651 -0.3221 -0.0614 -0.4642
  772TIP3    H226512   1.430   3.306  17.694 -1.8732 -0.6198  0.9391
  773TIP3   OH226513   6.299   0.399  16.046 -0.6661 -0.1064 -0.1504
  773TIP3    H126514   6.333   0.424  16.132 -0.1692 -1.4379  0.0702
  773TIP3    H226515   6.205   0.386  16.060 -0.6463  0.0365  0.1108
  774TIP3   OH226516   1.151   7.430  17.303  0.2436 -0.1475  0.4815
  774TIP3    H126517   1.084   7.378  17.258 -0.1364  2.1283 -1.7777
  774TIP3    H226518   1.108   7.461  17.382 -0.5988 -0.5439  0.1889
  775TIP3   OH226519   7.325   3.047  18.008 -0.0867  0.5070 -0.0376
  775TIP3    H126520   7.374   2.976  17.965 -0.2926  1.0608 -1.2385
  775TIP3    H226521   7.361   3.127  17.970 -0.2831  1.0275  0.8497
  776TIP3   OH226522   2.399   3.968  17.015 -0.0624  0.4356 -0.2151
  776TIP3    H126523   2.397   4.019  16.934  0.0990 -2.5285 -2.2499
  776TIP3    H226524   2.491   3.941  17.024 -0.3178 -0.2948  0.2613
  777TIP3   OH226525   2.660   2.562  16.753 -0.4798 -0.3255  0.2831
  777TIP3    H126526   2.585   2.503  16.752 -0.1574 -0.7420 -1.0700
  777TIP3    H226527   2.623   2.648  16.733 -1.0287  0.0829  2.7936
  778TIP3   OH226528   4.116   5.109  16.950  0.4508 -0.4614 -0.3756
  778TIP3    H126529   4.122   5.178  17.017  0.5081  0.3518 -1.1903
  778TIP3    H226530   4.205   5.099  16.918  0.2480 -0.0320 -1.1076
  779TIP3   OH226531   1.510   2.100  18.614  0.3120 -0.7291  0.1571
  779TIP3    H126532   1.496   2.155  18.537 -0.8292 -0.2396  0.6959
  779TIP3    H226533   1.535   2.015  18.577 -1.0376 -0.7462 -0.8040
  780TIP3   OH226534   0.594   6.539  17.038  0.5267  0.2312 -0.4490
  780TIP3    H126535   0.570   6.468  16.979  0.4928 -0.2722  0.1499
  780TIP3    H226536   0.573   6.619  16.990 -0.5848 -0.1708 -0.6723
  781TIP3   OH226537   6.000   6.210  16.895 -0.0926  0.2476  0.1542
  781TIP3    H126538   5.920   6.206  16.946 -0.0646 -0.8050  0.1390
  781TIP3    H226539   5.975   6.252  16.813 -0.9630 -1.3205 -0.4253
  782TIP3   OH226540   0.143   1.586  18.488 -0.8142 -0.6840 -0.0230
  782TIP3    H126541   0.211   1.635  18.535 -0.9184 -0.1208 -0.4430
  782TIP3    H226542   0.184   1.501  18.470  0.6971  0.4283 -2.3169
  783TIP3   OH226543   7.088   1.384  17.117 -0.0065  0.1890 -0.6659
  783TIP3    H126544   7.134   1.423  17.043 -0.9125 -1.6464 -2.2663
  783TIP3    H226545   7.147   1.317  17.150  0.2247  0.7318  0.0582
  784TIP3   OH226546   6.671   5.689  16.589  0.6212  0.6069 -0.6714
  784TIP3    H126547   6.655   5.624  16.521 -1.8623  0.8933 -0.4452
  784TIP3    H226548   6.765   5.681  16.608  0.5912 -2.2881 -1.2722
  785TIP3   OH226549   2.484   6.760  18.029 -0.1333  0.0443  0.2656
  785TIP3    H126550   2.436   6.801  17.957 -0.8140  0.9821  1.2377
  785TIP3    H226551   2.573   6.748  17.995 -0.1624  1.4882 -0.3588
  786TIP3   OH226552   2.747   5.536  17.513 -0.0338  0.2475  0.7731
  786TIP3    H126553   2.775   5.464  17.569 -2.1653 -0.8740  0.5195
  786TIP3    H226554   2.732   5.609  17.574 -1.2548 -0.6220  1.5801
  787TIP3   OH226555   2.934   2.323  17.615 -0.3370 -0.0181  0.0954
  787TIP3    H126556   3.000   2.325  17.546 -0.6943  0.6996 -0.2369
  787TIP3    H226557   2.882   2.402  17.601 -0.3419  0.2094  1.2600
  788TIP3   OH226558   3.992   4.584  17.548 -0.8543 -0.0493 -0.0813
  788TIP3    H126559   4.031   4.659  17.504  0.2458 -0.5275  0.0583
  788TIP3    H226560   4.029   4.586  17.636 -1.5164 -0.2431  0.2110
  789TIP3   OH226561   0.159   5.875  16.728  0.3491 -0.3261 -0.2133
  789TIP3    H126562   0.075   5.852  16.767 -0.1114  1.0884 -0.2921
  789TIP3    H226563   0.136   5.922  16.648  1.2486 -1.0581 -0.9160
  790TIP3   OH226564   3.275   1.214  15.794 -0.8634 -0.5205  0.4955
  790TIP3    H126565   3.188   1.205  15.754 -0.4021 -1.2478 -0.3610
  790TIP3    H226566   3.283   1.308  15.812 -0.7612 -0.0085 -1.9048
  791TIP3   OH226567   1.557   1.848  16.894  0.1838 -0.7401  0.5768
  791TIP3    H126568   1.482   1.881  16.943 -0.4518  0.9859 -1.4143
  791TIP3    H226569   1.632   1.894  16.931  0.2377 -2.0273  2.1711
  792TIP3   OH226570   6.169   3.949  16.851  0.0340 -0.1253  0.4762
  792TIP3    H126571   6.109   3.921  16.782 -0.4576 -2.6763  1.8000
  792TIP3    H226572   6.145   4.040  16.869  0.0795  0.5601 -2.5087
  793TIP3   OH226573   4.418   7.323  16.753  0.1260 -0.1048  0.5944
  793TIP3    H126574   4.498   7.300  16.800  0.6681 -0.0438 -0.2828
  793TIP3    H226575   4.410   7.257  16.685  0.5183  1.0201 -0.5794
  794TIP3   OH226576   1.746   5.868  18.020 -0.4260 -0.0281 -0.1960
  794TIP3    H126577   1.662   5.825  18.003 -0.8377  0.3493  0.8113
  794TIP3    H226578   1.757   5.861  18.114 -0.7460  2.4994  0.0945
  795TIP3   OH226579   0.472   3.423  17.262 -0.3145 -0.0969 -0.0813
  795TIP3    H126580   0.494   3.378  17.343  2.6508 -0.1944 -0.8093
  795TIP3    H226581   0.494   3.361  17.193  0.3520  1.0989 -1.0070
  796TIP3   OH226582   7.269   0.138  17.080  0.7072  0.1818 -0.5895
  796TIP3    H126583   7.283   0.115  16.988 -0.3103 -0.4843 -0.5960
  796TIP3    H226584   7.327   0.079  17.128  2.0014  1.2157 -0.8216
  797TIP3   OH226585   2.902   6.375  17.427  0.0535 -0.2188  0.3347
  797TIP3    H126586   2.829   6.421  17.470 -0.0554  0.3269 -0.4130
  797TIP3    H226587   2.859   6.316  17.366  0.2399  0.3232 -0.3276
  798TIP3   OH226588   3.122   5.041  18.315 -0.0648  0.0048 -0.0226
  798TIP3    H126589   3.039   5.051  18.361  0.0578 -0.1836  0.2462
  798TIP3    H226590   3.120   4.951  18.281  1.0821 -0.9064  2.1424
  799TIP3   OH226591   0.571   7.566  17.084 -0.2704 -0.1072  0.1589
  799TIP3    H126592   0.640   7.519  17.037 -0.2304 -0.8820  0.9867
  799TIP3    H226593   0.494   7.510  17.077 -0.4950  0.1815  0.2834
  800TIP3   OH226594   2.458   0.019  16.870 -0.4438 -0.4875  0.1060
  800TIP3    H126595   2.504   0.095  16.834 -0.7434 -1.3238 -2.2155
  800TIP3    H226596   2.525  -0.028  16.919  0.0149  0.6705  0.6275
  801TIP3   OH226597   5.596   1.604  18.881 -0.2766  0.5809 -0.3228
  801TIP3    H126598   5.691   1.607  18.868 -0.0577 -0.9278  0.6006
  801TIP3    H226599   5.564   1.552  18.807 -0.2667  0.3257 -0.1475
  802TIP3   OH226600   3.591   2.678  16.841 -0.0786  0.6915  0.0571
  802TIP3    H126601   3.516   2.643  16.890  1.0005 -0.1302  1.1700
  802TIP3    H226602   3.598   2.623  16.763  0.7304 -0.7125  1.0839
  803TIP3   OH226603   4.395   4.302  17.870  0.2278 -0.3774  0.1296
  803TIP3    H126604   4.361   4.239  17.934 -0.4987  0.9490  1.1051
  803TIP3    H226605   4.326   4.308  17.804  0.5539 -1.0256 -0.2755
  804TIP3   OH226606   0.371   0.599  18.137  0.2638 -0.4771 -0.0672
  804TIP3    H126607   0.280   0.590  18.109  0.1203  0.3051  0.1422
  804TIP3    H226608   0.366   0.649  18.219  0.8656 -0.6194  0.0615
  805TIP3   OH226609   4.215   3.421  17.200  0.4367  0.2279  0.1465
  805TIP3    H126610   4.260   3.499  17.167 -0.5826 -0.0236 -1.9892
  805TIP3    H226611   4.269   3.348  17.169 -0.2513  0.0052 -0.5599
  806TIP3   OH226612   7.388   4.309  18.740 -0.0315 -0.2433  0.1086
  806TIP3    H126613   7.342   4.225  18.728  0.2500 -0.2549 -1.0428
  806TIP3    H226614   7.318   4.371  18.762 -0.4792 -0.4615 -0.6416
  807TIP3   OH226615   2.967   5.776  17.101  1.0405  0.3845  0.0628
  807TIP3    H126616   2.965   5.766  17.197  1.8254  1.6204  0.2282
  807TIP3    H226617   2.960   5.687  17.068 -0.3608  0.0123  1.2426
  808TIP3   OH226618   3.051   2.245  18.156  0.1581 -0.0427 -0.0357
  808TIP3    H126619   3.129   2.190  18.149  0.6598  0.7751 -1.1457
  808TIP3    H226620   3.041   2.284  18.069 -2.1287 -0.9543 -0.2427
  809TIP3   OH226621   6.260   5.655  17.467  0.3303  0.0392  0.0786
  809TIP3    H126622   6.169   5.634  17.445 -0.2788  0.3761  2.0784
  809TIP3    H226623   6.296   5.693  17.386 -1.0808 -0.7496 -0.9588
  810TIP3   OH226624   0.150   0.710  17.018  0.0858 -0.3545 -0.0396
  810TIP3    H126625   0.221   0.771  16.998 -0.0685 -0.0310  0.3873
  810TIP3    H226626   0.132   0.725  17.111  0.2682 -1.2740  0.1527
  811TIP3   OH226627   3.128   7.591  17.865 -0.2730 -0.1508  0.4424
  811TIP3    H126628   3.175   7.537  17.801 -1.1380 -1.0748  0.5550
  811TIP3    H226629   3.067   7.643  17.813 -0.9478 -0.8724  0.4905
  812TIP3   OH226630   3.478   0.448  17.172 -0.0609 -0.3926 -0.0497
  812TIP3    H126631   3.473   0.486  17.260  1.2785 -0.3513  0.0311
  812TIP3    H226632   3.551   0.386  17.176 -1.1786 -1.7893 -0.6371
  813TIP3   OH226633   2.304   5.147  17.500  0.1665 -0.3168 -0.0109
  813TIP3    H126634   2.215   5.157  17.534  0.2440 -0.2937  0.1870
  813TIP3    H226635   2.360   5.149  17.578  0.2560 -1.5179 -0.0270
  814TIP3   OH226636   4.172   3.924  17.279  0.2048  1.0054  0.6837
  814TIP3    H126637   4.247   3.972  17.244  0.4856 -0.2726 -0.5638
  814TIP3    H226638   4.205   3.836  17.296 -1.3863 -0.2430 -1.8955
  815TIP3   OH226639   3.785   1.348  17.570  0.0955  0.8882 -0.1691
  815TIP3    H126640   3.868   1.336  17.523  0.1874 -0.1751  0.2371
  815TIP3    H226641   3.800   1.309  17.656 -1.2062 -0.4955 -0.5191
  816TIP3   OH226642   5.974   5.794  16.156 -0.4449 -0.2685 -0.8902
  816TIP3    H126643   5.971   5.879  16.110  0.9792  0.9790  1.1597
  816TIP3    H226644   6.046   5.747  16.114 -1.3830 -0.6052 -2.1888
  817TIP3   OH226645   1.738   2.972  18.323  0.3959  0.4520  0.2717
  817TIP3    H126646   1.758   2.926  18.405  1.0813  2.2481  1.1795
  817TIP3    H226647   1.698   3.054  18.351 -1.5076  0.1230 -1.3124
  818TIP3   OH226648   1.170   0.325  18.838  0.2854  0.1920  0.1717
  818TIP3    H126649   1.167   0.345  18.745  1.1509 -0.6236 -0.0414
  818TIP3    H226650   1.128   0.400  18.880 -0.7436  0.2559 -0.9060
  819TIP3   OH226651   5.521   1.426  16.124 -0.1145  0.1530  1.1500
  819TIP3    H126652   5.566   1.508  16.103 -0.4915  0.0214 -0.2883
  819TIP3    H226653   5.447   1.452  16.179 -1.2333  1.0466 -0.6743
  820TIP3   OH226654   0.397   6.356  17.852 -0.1415 -0.4487 -0.0143
  820TIP3    H126655   0.422   6.438  17.811 -0.8707 -1.1991 -2.1373
  820TIP3    H226656   0.445   6.354  17.935 -0.0821  2.0541  0.0840
  821TIP3   OH226657   6.692   4.276  17.253 -0.0092 -0.1881  0.2527
  821TIP3    H126658   6.599   4.257  17.264 -0.1653  0.1694 -0.3709
  821TIP3    H226659   6.694   4.351  17.194  0.6710  0.0013  0.5113
  822TIP3   OH226660   2.121   5.798  17.149  0.7079 -0.3920 -0.5400
  822TIP3    H126661   2.143   5.830  17.236 -1.7321  1.2161 -0.4290
  822TIP3    H226662   2.088   5.709  17.164  0.0473 -0.0297  0.2309
  823TIP3   OH226663   6.595   7.288  16.992 -0.1831  0.2367 -0.3287
  823TIP3    H126664   6.582   7.307  17.085  2.8145 -3.4832  1.1572
  823TIP3    H226665   6.508   7.265  16.959 -1.2674  1.3527  1.6070
  824TIP3   OH226666   4.375   3.332  18.469 -0.0144 -0.5260  0.3398
  824TIP3    H126667   4.302   3.274  18.490  0.7378 -1.2447  1.0184
  824TIP3    H226668   4.334   3.418  18.454 -0.8215 -0.4762  2.5452
  825TIP3   OH226669   0.922   0.847  18.410  0.0786 -0.0112 -0.0295
  825TIP3    H126670   0.878   0.920  18.453 -1.4197 -0.2702 -1.0372
  825TIP3    H226671   0.994   0.886  18.362  0.5249  0.5303  1.0678
  826TIP3   OH226672   1.084   5.714  17.935 -0.0214 -0.0020  0.1189
  826TIP3    H126673   1.144   5.652  17.896  0.8117  0.3337  0.8182
  826TIP3    H226674   1.077   5.785  17.871  2.2669  1.1212  0.9857
  827TIP3   OH226675   2.834   6.547  16.727 -0.4401  0.5081  0.1921
  827TIP3    H126676   2.834   6.553  16.631  0.9335  0.9389  0.2116
  827TIP3    H226677   2.910   6.597  16.755  0.6482 -1.6692  1.3735
  828TIP3   OH226678   1.030   1.687  18.230 -0.0112 -0.4867 -0.4625
  828TIP3    H126679   1.093   1.653  18.293 -0.2221 -0.3976 -0.2044
  828TIP3    H226680   0.959   1.722  18.283  1.2049  2.4805 -0.5749
  829TIP3   OH226681   3.095   4.506  16.610  0.7017  0.0249  0.4293
  829TIP3    H126682   3.001   4.520  16.617  0.7654  0.4482  0.4710
  829TIP3    H226683   3.127   4.582  16.562  1.1522  0.3788  1.2707
  830TIP3   OH226684   6.646   1.617  17.140 -0.3953 -0.0253  0.1488
  830TIP3    H126685   6.691   1.602  17.223 -0.0151 -2.7133 -0.4597
  830TIP3    H226686   6.702   1.678  17.093  0.8045 -0.5928  0.8068
  831TIP3   OH226687   0.762   6.332  18.212 -0.3323  0.6754  0.0448
  831TIP3    H126688   0.801   6.264  18.265  0.9002  0.6016 -0.9072
  831TIP3    H226689   0.728   6.396  18.275  0.2161  0.1240  0.9113
  832TIP3   OH226690   2.996   1.008  17.284 -0.3186 -0.1742 -0.2231
  832TIP3    H126691   3.038   0.930  17.247 -0.5144 -0.9331  1.0749
  832TIP3    H226692   3.059   1.041  17.349 -0.2542  0.7390 -0.7308
  833TIP3   OH226693   5.291   5.876  16.289  0.5454  0.0679 -0.3587
  833TIP3    H126694   5.350   5.813  16.248  2.8119  0.9291  1.4135
  833TIP3    H226695   5.252   5.828  16.362  0.8800  0.1760 -0.1062
  834TIP3   OH226696   1.099   0.374  18.254  0.1154  0.3130  0.0742
  834TIP3    H126697   1.045   0.308  18.210 -1.4519 -1.1558  3.7545
  834TIP3    H226698   1.051   0.456  18.244 -0.4286 -0.0691 -0.5241
  835TIP3   OH226699   3.189   1.463  17.083  0.1721  0.5560 -0.1220
  835TIP3    H126700   3.259   1.402  17.063 -0.2262  0.1398 -0.2601
  835TIP3    H226701   3.155   1.434  17.167  0.5654  1.1294  0.2404
  836TIP3   OH226702   6.766   6.812  18.596  0.8615 -0.1551  0.0282
  836TIP3    H126703   6.776   6.834  18.689  0.5204  0.3798 -0.0551
  836TIP3    H226704   6.762   6.717  18.594 -1.4789 -0.1273  0.8142
  837TIP3   OH226705   3.857   6.600  17.085  0.1866  0.1984  0.6010
  837TIP3    H126706   3.922   6.643  17.029 -1.2175  2.2478  0.4384
  837TIP3    H226707   3.827   6.524  17.034  0.8717  0.4838 -0.2402
  838TIP3   OH226708   5.157   6.160  18.413  0.1978  0.2424  0.5255
  838TIP3    H126709   5.245   6.140  18.381  0.4549  0.9035  0.7980
  838TIP3    H226710   5.099   6.130  18.344  0.6331 -0.2738  0.3742
  839TIP3   OH226711   1.140   1.746  16.470  0.0016 -1.2173  0.1179
  839TIP3    H126712   1.109   1.744  16.561  0.4025 -0.3053  0.2844
  839TIP3    H226713   1.060   1.744  16.418 -0.4719  1.8485  0.5425
  840TIP3   OH226714   1.847   1.312  17.407 -0.2712 -0.3048 -0.1933
  840TIP3    H126715   1.790   1.237  17.419  0.0561 -0.3004  1.7078
  840TIP3    H226716   1.796   1.387  17.437 -0.4209  0.2055 -1.6204
  841TIP3   OH226717   5.242   6.210  17.037  0.6130  0.0421  0.0495
  841TIP3    H126718   5.181   6.260  16.983  0.9885  0.3603 -0.0865
  841TIP3    H226719   5.277   6.273  17.100  0.8064 -0.1338  0.1208
  842TIP3   OH226720   1.960   5.938  18.610 -0.9251 -0.1125  0.3413
  842TIP3    H126721   1.972   5.864  18.549  0.7753  0.5206 -0.1511
  842TIP3    H226722   1.891   5.990  18.570  0.1535  0.2850 -1.0961
  843TIP3   OH226723   2.113   1.505  17.541  0.0024  0.6637  0.2158
  843TIP3    H126724   2.055   1.580  17.555  0.4389  1.3767 -1.5228
  843TIP3    H226725   2.192   1.543  17.504  1.2523 -0.4045  1.6850
  844TIP3   OH226726   1.872   5.710  18.790  0.0770 -0.5266  0.4648
  844TIP3    H126727   1.958   5.749  18.807  0.2477 -0.6528 -0.1109
  844TIP3    H226728   1.810   5.779  18.813  0.3516 -0.2173  0.2873
  845TIP3   OH226729   4.841   1.244  16.742  0.0362 -0.2551 -0.6605
  845TIP3    H126730   4.855   1.301  16.817 -1.2529 -1.9012  0.9583
  845TIP3    H226731   4.872   1.293  16.667  1.3581  1.4935  0.9466
  846TIP3   OH226732   7.350   0.314  15.791  0.2014  0.4239  0.4420
  846TIP3    H126733   7.322   0.300  15.882  0.3445  0.5879  0.5119
  846TIP3    H226734   7.269   0.329  15.743  0.1121  0.1629  0.5136
  847TIP3   OH226735   5.271   1.145  18.869  0.0411  0.3135 -0.0574
  847TIP3    H126736   5.182   1.110  18.875 -0.1677  0.5928 -1.2464
  847TIP3    H226737   5.267   1.228  18.916 -0.7038  0.9934 -1.2802
  848TIP3   OH226738   5.752   3.561  16.905 -0.6743  0.1667  0.4333
  848TIP3    H126739   5.748   3.656  16.912 -0.2832  0.1360  1.2372
  848TIP3    H226740   5.831   3.543  16.854 -1.4180  0.3011 -0.7838
  849TIP3   OH226741   2.345   3.075  18.396 -0.6511  0.0474 -0.1815
  849TIP3    H126742   2.335   3.033  18.481  1.1820 -1.9307 -0.8607
  849TIP3    H226743   2.310   3.012  18.333  0.5611  0.2699 -1.1142
  850TIP3   OH226744   6.602   6.776  17.099 -0.7423  0.0170 -0.5604
  850TIP3    H126745   6.556   6.789  17.182 -1.2386 -1.3760 -0.5878
  850TIP3    H226746   6.654   6.856  17.088  0.6852 -0.4382  1.9448
  851TIP3   OH226747   7.659   0.826  17.759 -0.3295  0.3419  0.5533
  851TIP3    H126748   7.633   0.734  17.757 -1.9724  0.7679  0.4999
  851TIP3    H226749   7.614   0.864  17.683 -0.6263  1.4094  1.2469
  852TIP3   OH226750   3.998   6.889  17.184 -0.0597 -0.3481  0.0774
  852TIP3    H126751   4.010   6.811  17.130  0.7955 -0.2379  0.1011
  852TIP3    H226752   4.083   6.904  17.226  0.0589  1.0904 -0.5944
  853TIP3   OH226753   1.549   7.303  17.158 -0.6214  0.6430 -0.8004
  853TIP3    H126754   1.629   7.251  17.148 -1.0528 -0.1250 -0.3368
  853TIP3    H226755   1.579   7.385  17.199 -0.1442  0.1181 -0.0718
  854TIP3   OH226756   4.992   5.601  18.363  0.1422  0.1482 -0.3263
  854TIP3    H126757   5.007   5.635  18.275  0.2492  1.0958  0.0373
  854TIP3    H226758   4.945   5.519  18.351  0.8661 -0.1401 -1.2958
  855TIP3   OH226759   0.620   4.139  18.238  0.3592  0.6371  0.2838
  855TIP3    H126760   0.545   4.108  18.287  0.2315 -0.1826 -0.3959
  855TIP3    H226761   0.583   4.185  18.163  0.5411  1.1351  0.4981
  856TIP3   OH226762   4.433   5.221  17.760 -0.4761 -0.4052  0.5347
  856TIP3    H126763   4.370   5.243  17.692 -1.3699 -1.3181  1.0382
  856TIP3    H226764   4.513   5.197  17.713 -0.8410 -0.2717 -0.1515
  857TIP3   OH226765   1.087   6.230  18.057  0.8433 -0.4574 -0.5988
  857TIP3    H126766   1.104   6.260  18.146  0.9544  1.1943 -1.1363
  857TIP3    H226767   1.150   6.160  18.043  1.8484  0.2655  0.1284
  858TIP3   OH226768   6.669   1.062  18.155  0.0722 -0.1352  0.2393
  858TIP3    H126769   6.622   1.102  18.082  1.2842  0.9335  0.0144
  858TIP3    H226770   6.635   1.105  18.233  1.1272  1.1339  0.0236
  859TIP3   OH226771   2.536   6.213  16.896  0.4939 -0.8672 -0.4936
  859TIP3    H126772   2.619   6.181  16.861  1.2912  1.1865 -0.6066
  859TIP3    H226773   2.524   6.166  16.979  1.0433 -2.1831 -1.1295
  860TIP3   OH226774   5.599   3.116  17.619 -0.1826  0.2038 -0.0037
  860TIP3    H126775   5.627   3.174  17.548  0.5986 -0.9296 -0.6741
  860TIP3    H226776   5.598   3.171  17.697  1.8999  0.8323 -0.3446
  861TIP3   OH226777   4.920   6.576  17.391  0.4049 -0.5663  0.2868
  861TIP3    H126778   4.835   6.586  17.348  0.3814  2.0251  0.8276
  861TIP3    H226779   4.901   6.577  17.485  0.9846 -0.7122  0.4153
  862TIP3   OH226780   5.066   5.502  17.421 -0.1279  0.1478 -0.1751
  862TIP3    H126781   5.095   5.414  17.445  0.4354 -0.1206 -1.6958
  862TIP3    H226782   4.970   5.498  17.425 -0.0802 -0.1087  1.1074
  863TIP3   OH226783   5.990   4.254  17.564 -0.2278 -0.3202  0.3864
  863TIP3    H126784   6.084   4.266  17.551 -0.0801 -0.5390  1.1965
  863TIP3    H226785   5.956   4.233  17.476  0.0411  2.3346 -0.4176
  864TIP3   OH226786   1.175   6.723  17.384 -0.4875 -0.0227 -0.4074
  864TIP3    H126787   1.214   6.746  17.300 -1.1649  2.4386 -0.1347
  864TIP3    H226788   1.131   6.640  17.368  0.7498 -0.4218 -2.0225
  865TIP3   OH226789   3.498   6.749  18.160  0.3466  0.2377  0.0919
  865TIP3    H126790   3.523   6.666  18.119  0.7062  0.2567  0.2628
  865TIP3    H226791   3.432   6.724  18.225 -0.5549  0.2693 -0.8079
  866TIP3   OH226792   3.053   3.593  16.666 -0.0667 -0.1278  0.1783
  866TIP3    H126793   3.017   3.682  16.669  2.5674  1.0513 -0.6154
  866TIP3    H226794   3.087   3.578  16.754  1.2707  0.5104 -0.1968
  867TIP3   OH226795   0.872   6.038  17.790  0.3624 -0.1944  0.4179
  867TIP3    H126796   0.862   6.075  17.878 -2.0115 -1.8017  0.9014
  867TIP3    H226797   0.808   6.083  17.736 -1.1689 -2.0702  0.5566
  868TIP3   OH226798   6.478   6.940  17.316 -0.1715  0.1594 -0.2427
  868TIP3    H126799   6.506   7.031  17.308  0.1207  0.0110 -1.0022
  868TIP3    H226800   6.518   6.909  17.398  1.2803  0.1740 -0.9277
  869TIP3   OH226801   7.242   1.236  16.904 -0.3727 -0.1283 -0.2711
  869TIP3    H126802   7.335   1.255  16.901 -0.4029  0.2222  0.7086
  869TIP3    H226803   7.235   1.157  16.957 -0.5678 -0.6687 -1.0875
  870TIP3   OH226804   0.346   2.228  16.916  0.4658  0.0198 -0.1533
  870TIP3    H126805   0.433   2.224  16.877  0.4971  0.6027 -0.1465
  870TIP3    H226806   0.356   2.188  17.003  0.8225  0.4871  0.0203
  871TIP3   OH226807   3.265   2.812  17.292  0.3543 -0.0671 -0.3070
  871TIP3    H126808   3.322   2.889  17.301  0.5546  0.0194 -1.9530
  871TIP3    H226809   3.293   2.772  17.210 -0.7361 -1.0762 -0.2001
  872TIP3   OH226810   6.482   4.310  15.812  0.6051  0.8054  0.3441
  872TIP3    H126811   6.465   4.397  15.777 -0.5713 -0.0376 -1.3065
  872TIP3    H226812   6.528   4.326  15.895 -0.5090  3.0058  0.6084
  873TIP3   OH226813   1.635   1.995  18.229  0.0026 -0.1238 -0.3861
  873TIP3    H126814   1.714   2.048  18.225  1.2250 -1.8059  0.1705
  873TIP3    H226815   1.568   2.053  18.265  1.0919  1.2031 -0.4362
  874TIP3   OH226816   4.675   1.531  18.896 -0.2674 -0.3973 -0.1114
  874TIP3    H126817   4.723   1.518  18.978  0.3441 -0.6060 -0.4939
  874TIP3    H226818   4.671   1.444  18.857 -1.7590 -0.5577  0.3337
  875TIP3   OH226819   2.347   1.526  17.362 -0.6767 -0.7639 -0.2354
  875TIP3    H126820   2.359   1.504  17.270 -1.1355 -0.0647 -0.4733
  875TIP3    H226821   2.396   1.607  17.374 -1.4730 -0.2915 -0.1246
  876TIP3   OH226822   0.148   6.456  17.047  0.4462  0.5180 -0.3266
  876TIP3    H126823   0.197   6.478  16.968 -0.3698  1.3605 -0.6321
  876TIP3    H226824   0.212   6.418  17.106  1.3766  1.1986 -0.8652
  877TIP3   OH226825   1.148   4.350  17.372 -0.0914  0.5047  0.4770
  877TIP3    H126826   1.190   4.424  17.329  0.4855  0.0887  0.3177
  877TIP3    H226827   1.054   4.366  17.361  0.0408  0.8114 -0.2362
  878TIP3   OH226828   3.977   4.634  15.892  0.4054  0.3350 -0.3936
  878TIP3    H126829   3.990   4.539  15.889 -0.1312  0.2463 -0.0104
  878TIP3    H226830   3.915   4.648  15.964 -1.5012  0.7312 -1.9991
  879TIP3   OH226831   5.370   0.700  18.404 -0.6672 -0.0300 -0.1107
  879TIP3    H126832   5.294   0.697  18.345 -0.5928  0.3644 -0.2334
  879TIP3    H226833   5.332   0.721  18.490 -0.8564 -1.3666  0.1467
  880TIP3   OH226834   3.715   1.265  16.386  0.2835  0.5380  0.0996
  880TIP3    H126835   3.809   1.277  16.371  1.0433 -1.9223  2.1662
  880TIP3    H226836   3.681   1.230  16.304  1.8499 -1.4392  0.2181
  881TIP3   OH226837   3.970   4.790  17.202  0.1251 -0.5367  0.4963
  881TIP3    H126838   3.972   4.813  17.109 -0.0863 -0.6160  0.4718
  881TIP3    H226839   4.046   4.733  17.213  1.2459  0.9539  0.7757
  882TIP3   OH226840   1.959   1.906  16.751  0.4286  0.2452 -0.9163
  882TIP3    H126841   1.969   1.849  16.676 -0.0093 -3.5519  1.6402
  882TIP3    H226842   2.046   1.911  16.790  0.5768  1.8589 -1.3728
  883TIP3   OH226843   7.605   6.139  18.363 -0.6097 -0.2655  0.3362
  883TIP3    H126844   7.620   6.147  18.458 -0.7705 -0.7920  0.4068
  883TIP3    H226845   7.688   6.107  18.329 -1.0809 -1.7550  0.5328
  884TIP3   OH226846   4.199   1.732  15.717  0.7476 -0.1260  0.2997
  884TIP3    H126847   4.153   1.807  15.753  0.8294  0.4535 -0.7596
  884TIP3    H226848   4.281   1.769  15.684  0.5680 -0.5828 -0.6841
  885TIP3   OH226849   5.284   0.111  17.015  0.7051 -0.6613 -0.3882
  885TIP3    H126850   5.288   0.119  17.110  0.4936 -2.1274 -0.2213
  885TIP3    H226851   5.191   0.121  16.994  0.7287 -0.5101 -0.4181
  886TIP3   OH226852   4.707   5.020  16.783 -0.4522  0.7894 -0.0421
  886TIP3    H126853   4.709   5.065  16.867 -1.2973  1.6867 -0.4941
  886TIP3    H226854   4.729   4.929  16.805 -0.1951  1.1017  1.0707
  887TIP3   OH226855   3.544   3.021  18.966  0.5784 -0.1708 -0.1513
  887TIP3    H126856   3.616   3.081  18.984  1.5392 -1.1093 -0.7594
  887TIP3    H226857   3.575   2.967  18.893 -0.7475 -0.5918 -0.4432
  888TIP3   OH226858   6.471   3.465  16.525  0.0427 -0.5420  0.5469
  888TIP3    H126859   6.381   3.494  16.540  0.6229  1.7581 -0.1049
  888TIP3    H226860   6.483   3.473  16.430  1.5436  1.2035  0.8395
  889TIP3   OH226861   0.952   5.540  16.899 -0.8112 -0.5778 -0.5582
  889TIP3    H126862   0.927   5.510  16.986  0.6259 -1.0922 -0.2926
  889TIP3    H226863   1.031   5.490  16.878 -0.9807 -0.2701 -2.0478
  890TIP3   OH226864   5.404   0.711  18.819 -0.5020  0.1542 -0.2585
  890TIP3    H126865   5.407   0.734  18.727  0.3920  2.7022  0.3460
  890TIP3    H226866   5.310   0.702  18.838 -0.7420  0.5826 -1.1882
  891TIP3   OH226867   5.081   2.424  17.253  0.1521  0.1662 -0.3197
  891TIP3    H126868   5.159   2.466  17.216  0.6961 -0.1805  0.3969
  891TIP3    H226869   5.056   2.481  17.326  1.7424 -1.3920  1.5818
  892TIP3   OH226870   6.276   1.245  18.049  0.3300 -0.5553 -0.1347
  892TIP3    H126871   6.369   1.262  18.062  0.2241 -0.0471 -0.0034
  892TIP3    H226872   6.256   1.175  18.111  0.7210 -0.9913 -0.4945
  893TIP3   OH226873   7.528   7.553  16.564 -0.0426  0.0361 -0.1019
  893TIP3    H126874   7.565   7.628  16.519  0.7051 -0.0107  0.4217
  893TIP3    H226875   7.434   7.559  16.548  0.2895 -1.1531 -3.5226
  894TIP3   OH226876   1.639   5.277  18.747  0.2259  0.1217 -0.2937
  894TIP3    H126877   1.732   5.272  18.726  0.5896 -1.0731  1.3969
  894TIP3    H226878   1.604   5.191  18.723 -0.5096  0.6391 -1.1349
  895TIP3   OH226879   6.003   5.412  18.075 -0.2201 -0.2078  0.3152
  895TIP3    H126880   6.096   5.416  18.096  0.6750 -2.8226 -2.5335
  895TIP3    H226881   5.990   5.481  18.010  0.2461 -1.1331 -0.7868
  896TIP3   OH226882   2.804   6.818  16.328  0.1586  0.7310  0.0688
  896TIP3    H126883   2.728   6.864  16.293  0.3522  1.3460  0.4365
  896TIP3    H226884   2.797   6.729  16.292 -0.2078  1.0482 -0.6751
  897TIP3   OH226885   4.951   6.293  16.623  0.1520  0.4707  0.3945
  897TIP3    H126886   4.868   6.284  16.576 -0.5951  0.4397  1.6707
  897TIP3    H226887   4.999   6.359  16.574 -1.4512  1.9827  0.7426
  898TIP3   OH226888   5.539   5.525  17.539 -0.2762 -0.1619  0.3939
  898TIP3    H126889   5.474   5.476  17.489  0.4414 -1.1853  0.4364
  898TIP3    H226890   5.496   5.542  17.623 -0.4782 -0.8908  0.4490
  899TIP3   OH226891   5.717   0.321  18.047  0.4940 -0.4521  0.0014
  899TIP3    H126892   5.702   0.277  17.963  0.6734 -2.9735  1.1794
  899TIP3    H226893   5.812   0.311  18.062  0.4730  0.0130  0.4697
  900TIP3   OH226894   3.683   6.894  16.989  0.2376 -0.6814  0.1758
  900TIP3    H126895   3.639   6.913  16.906 -0.3832 -1.2438  0.3690
  900TIP3    H226896   3.771   6.930  16.978 -0.5410  1.3319  0.1410
  901TIP3   OH226897   7.071   4.876  16.741  0.1402 -0.6567 -0.0884
  901TIP3    H126898   6.989   4.910  16.776  0.9180  0.7007  0.4559
  901TIP3    H226899   7.048   4.846  16.653 -0.1280  3.6881 -1.7037
  902TIP3   OH226900   6.830   6.000  18.043  0.0681  0.1567  0.1168
  902TIP3    H126901   6.829   5.990  17.948  0.1340 -0.9304  0.2163
  902TIP3    H226902   6.740   5.979  18.070  0.6363 -2.0370  0.4970
  903TIP3   OH226903   0.520   3.344  16.596 -0.0611  0.2165  0.2346
  903TIP3    H126904   0.567   3.323  16.515 -0.3374  0.7299 -0.0610
  903TIP3    H226905   0.573   3.304  16.665  1.0685  1.1816 -0.0393
  904TIP3   OH226906   6.083   2.678  18.278 -0.3520  0.0420 -0.7605
  904TIP3    H126907   6.004   2.636  18.314 -1.2820  0.7363 -1.9398
  904TIP3    H226908   6.130   2.710  18.355 -1.3588 -0.1371 -0.0476
  905TIP3   OH226909   7.329   3.815  16.613  0.2286 -0.0000  0.2736
  905TIP3    H126910   7.249   3.866  16.626 -1.3835 -1.5578 -2.5235
  905TIP3    H226911   7.331   3.753  16.686 -2.2663 -1.2079 -0.5816
  906TIP3   OH226912   3.971   2.057  19.011  0.1199 -0.1501 -0.0282
  906TIP3    H126913   4.064   2.034  19.009  0.4586  1.1176 -0.0027
  906TIP3    H226914   3.948   2.056  19.105  0.0348 -0.7268 -0.0542
  907TIP3   OH226915   2.463   1.743  17.722 -0.0455 -0.4605  0.1353
  907TIP3    H126916   2.423   1.734  17.635  0.2336  1.8120 -0.2886
  907TIP3    H226917   2.448   1.658  17.764 -2.3141 -0.8179 -1.2219
  908TIP3   OH226918   2.485   2.208  16.054  0.1050 -0.5025  0.1733
  908TIP3    H126919   2.580   2.207  16.042  0.1653 -0.5288  0.6320
  908TIP3    H226920   2.452   2.150  15.986  0.3548  0.0870 -0.4596
  909TIP3   OH226921   2.256   1.943  16.616  0.1433  0.4088  0.0377
  909TIP3    H126922   2.183   1.922  16.558  1.0578 -1.6175 -0.4791
  909TIP3    H226923   2.320   1.986  16.561  0.3643 -0.0999 -0.1091
  910TIP3   OH226924   7.314   2.504  18.328 -0.0668  0.2052  0.5454
  910TIP3    H126925   7.235   2.543  18.366  0.5529  0.9634  1.0924
  910TIP3    H226926   7.313   2.413  18.358 -1.8699 -0.4725 -1.2611
  911TIP3   OH226927   5.288   3.447  15.926 -0.2666  0.0134 -0.2276
  911TIP3    H126928   5.255   3.409  15.845 -1.3262  1.0356 -0.3007
  911TIP3    H226929   5.307   3.372  15.982  0.9897 -0.7418 -1.5822
  912TIP3   OH226930   5.321   3.314  17.681 -0.5549 -0.0632 -0.1185
  912TIP3    H126931   5.412   3.345  17.690 -0.2745 -1.0260  0.5721
  912TIP3    H226932   5.268   3.389  17.709  0.0809  0.0649  0.8195
  913TIP3   OH226933   2.903   6.019  18.084 -0.0702 -0.2239 -0.1067
  913TIP3    H126934   2.892   6.035  18.178  0.8597 -0.4770  0.0516
  913TIP3    H226935   2.930   5.927  18.079 -0.7607 -0.4028 -0.6752
  914TIP3   OH226936   4.061   4.399  16.657 -0.0557 -0.2714  0.2854
  914TIP3    H126937   4.096   4.444  16.580  0.2839  1.3522  1.3437
  914TIP3    H226938   3.994   4.340  16.622 -1.2895  1.8266 -1.1063
  915TIP3   OH226939   0.209   1.863  18.056 -0.1419  0.0525  0.0462
  915TIP3    H126940   0.131   1.893  18.103  0.5150 -0.1392  1.2979
  915TIP3    H226941   0.195   1.892  17.965 -1.7858 -0.2145  0.1770
  916TIP3   OH226942   2.757   0.186  16.994 -0.0149  0.3831  0.5188
  916TIP3    H126943   2.736   0.108  16.942 -1.6756  0.8310  0.4666
  916TIP3    H226944   2.811   0.240  16.936 -1.9668  0.9460 -0.8776
  917TIP3   OH226945   0.468   1.509  18.006 -0.0877 -0.6655  0.0832
  917TIP3    H126946   0.478   1.597  18.043  1.1075 -1.1543  0.9974
  917TIP3    H226947   0.389   1.475  18.047 -0.0386 -0.3559  0.4402
  918TIP3   OH226948   3.663   0.456  18.456 -0.4749 -0.0020 -0.0931
  918TIP3    H126949   3.604   0.531  18.450  0.9425  1.1640  0.0125
  918TIP3    H226950   3.703   0.449  18.369 -0.1857 -0.2755  0.0578
  919TIP3   OH226951   1.661   3.632  17.772 -0.3290  0.3250 -0.5620
  919TIP3    H126952   1.636   3.614  17.682  0.0552  0.8576 -0.7747
  919TIP3    H226953   1.632   3.722  17.788 -1.2825 -0.0774  0.1615
  920TIP3   OH226954   2.575   3.331  16.201 -0.0900 -0.7322 -0.1312
  920TIP3    H126955   2.548   3.417  16.169 -0.4532 -0.8323 -0.0994
  920TIP3    H226956   2.663   3.345  16.237 -0.2828 -0.3027  0.1825
  921TIP3   OH226957   0.198   0.526  16.844 -0.3332 -0.0447  0.3417
  921TIP3    H126958   0.215   0.576  16.765  0.0553 -1.3432 -0.4380
  921TIP3    H226959   0.188   0.591  16.913 -0.7199  1.1157 -0.7828
  922TIP3   OH226960   4.949   4.533  16.511  0.5670  0.3862 -0.3053
  922TIP3    H126961   4.989   4.535  16.425 -0.6085 -0.0319 -0.8848
  922TIP3    H226962   4.997   4.465  16.559  1.9669  1.3899 -0.2221
  923TIP3   OH226963   0.648   1.396  17.429  0.0648  0.3139  0.0065
  923TIP3    H126964   0.729   1.372  17.385 -0.0259 -2.5124  1.1999
  923TIP3    H226965   0.670   1.391  17.522 -1.1015  1.0254  0.3352
  924TIP3   OH226966   3.248   7.578  18.849  0.8065  0.0198 -0.4297
  924TIP3    H126967   3.234   7.671  18.832  0.8241  0.0265 -0.4079
  924TIP3    H226968   3.272   7.574  18.942  2.3186  0.1695 -0.7781
  925TIP3   OH226969   4.249   5.767  15.699 -0.2967 -0.3082  0.5544
  925TIP3    H126970   4.214   5.678  15.692 -2.4348  0.3919  1.5522
  925TIP3    H226971   4.178   5.817  15.739  0.1934  2.2213 -1.4959
  926TIP3   OH226972   4.998   7.639  16.117  0.4256  0.0600  0.2081
  926TIP3    H126973   4.922   7.596  16.076  1.1502 -1.7519  0.6725
  926TIP3    H226974   5.059   7.653  16.045 -0.5908  2.2620 -0.3229
  927TIP3   OH226975   0.593   2.685  17.217  0.1461  0.0566 -0.0474
  927TIP3    H126976   0.644   2.621  17.265  0.2934  0.8413  0.8909
  927TIP3    H226977   0.627   2.682  17.128  1.5929  0.3023  0.4648
  928TIP3   OH226978   2.371   3.028  17.065  0.0147 -0.0366 -0.0492
  928TIP3    H126979   2.329   3.102  17.109  0.2542 -0.3186  0.6663
  928TIP3    H226980   2.437   2.998  17.126  3.4511  2.2917 -2.2840
  929TIP3   OH226981   5.825   5.550  17.182  0.2312  0.7034  0.1741
  929TIP3    H126982   5.748   5.508  17.144  1.1756 -0.9096 -0.0624
  929TIP3    H226983   5.791   5.602  17.255 -1.0736 -0.0678  0.1353
  930TIP3   OH226984   2.139   5.829  18.783 -0.8332  0.2721 -0.2547
  930TIP3    H126985   2.231   5.848  18.761 -0.7386 -0.9452 -1.0773
  930TIP3    H226986   2.089   5.894  18.734 -0.4204  0.8782  0.1086
  931TIP3   OH226987   6.788   2.964  17.894  0.4017  0.1830 -0.4357
  931TIP3    H126988   6.727   2.914  17.839  0.8257  0.4568 -1.1667
  931TIP3    H226989   6.864   2.907  17.905  0.7169  0.5048 -0.9319
  932TIP3   OH226990   5.763   6.760  17.889 -0.1204  0.1130  0.1454
  932TIP3    H126991   5.812   6.737  17.967 -0.3495 -0.9890 -0.0095
  932TIP3    H226992   5.689   6.811  17.921 -1.3990 -2.0897  0.9616
  933TIP3   OH226993   1.476   4.775  17.195  0.2550 -0.4015 -0.4031
  933TIP3    H126994   1.563   4.797  17.231 -0.5177 -0.7098  1.8291
  933TIP3    H226995   1.477   4.680  17.187  0.0761 -0.4173 -0.2419
  934TIP3   OH226996   3.059   4.138  18.454 -0.3738 -0.2594  0.2223
  934TIP3    H126997   3.111   4.212  18.421  0.7184 -0.4694  1.4012
  934TIP3    H226998   3.101   4.061  18.416 -0.8336 -0.3476 -0.1151
  935TIP3   OH226999   7.331   0.869  18.546 -0.1776 -0.4902 -0.0621
  935TIP3    H127000   7.246   0.838  18.576 -0.5418 -0.1261 -0.6853
  935TIP3    H227001   7.310   0.936  18.480  0.5881 -0.4045 -0.2285
  936TIP3   OH227002   1.672   5.557  18.880 -0.0841  0.5784  0.2060
  936TIP3    H127003   1.763   5.580  18.860  0.8411  0.0797  3.2519
  936TIP3    H227004   1.665   5.464  18.860  0.2329  0.5232  0.3423
  937TIP3   OH227005   1.193   2.541  16.014  0.0756  0.5775 -0.0888
  937TIP3    H127006   1.098   2.544  16.003  0.1583 -0.5162 -1.4506
  937TIP3    H227007   1.223   2.627  15.983 -0.2704 -0.1545 -2.7722
  938TIP3   OH227008   1.520   3.664  18.132 -0.0938  0.3455  0.0027
  938TIP3    H127009   1.615   3.660  18.115 -0.3404  1.5357 -1.9718
  938TIP3    H227010   1.507   3.750  18.171 -0.2470 -0.2838  1.3926
  939TIP3   OH227011   0.380   5.507  17.097  0.0786  0.2067 -0.0356
  939TIP3    H127012   0.456   5.460  17.064 -1.1255 -1.0183 -1.1637
  939TIP3    H227013   0.339   5.545  17.020  0.6661  2.6826  0.7773
  940TIP3   OH227014   0.258   6.815  16.037 -0.4016  0.3690 -0.4025
  940TIP3    H127015   0.193   6.873  16.077 -0.6633  0.2891 -0.7095
  940TIP3    H227016   0.329   6.874  16.011  0.1571  0.3192  0.9337
  941TIP3   OH227017   0.333   4.545  16.067 -0.3053 -0.3472  0.8763
  941TIP3    H127018   0.373   4.581  15.988  0.9962 -0.5813  1.4071
  941TIP3    H227019   0.401   4.492  16.107 -1.6190 -2.0111  1.0398
  942TIP3   OH227020   6.624   2.381  18.570  0.8386  0.3469 -0.4580
  942TIP3    H127021   6.653   2.457  18.520  1.4788 -0.4827 -1.3937
  942TIP3    H227022   6.579   2.418  18.646  2.1075  1.6778 -0.2994
  943TIP3   OH227023   5.108   0.785  16.643 -0.1173 -0.4968  0.5671
  943TIP3    H127024   5.149   0.825  16.566 -1.1668  0.2641  0.3806
  943TIP3    H227025   5.027   0.835  16.655 -2.7931 -4.0474 -1.1509
  944TIP3   OH227026   4.969   6.702  17.077 -0.1014  0.2028  0.8556
  944TIP3    H127027   4.874   6.700  17.070 -0.5001  1.4759  4.0658
  944TIP3    H227028   4.994   6.788  17.044 -0.1262  0.0794  0.5168
  945TIP3   OH227029   0.907   1.469  17.069  0.3041 -0.4003  0.3812
  945TIP3    H127030   0.876   1.418  16.995  3.1053 -3.0390  0.8122
  945TIP3    H227031   0.996   1.495  17.044  0.0754  1.6764  1.4811
  946TIP3   OH227032   2.875   5.356  17.699  0.1546 -0.3162  0.4957
  946TIP3    H127033   2.955   5.403  17.676 -0.7347  1.3835  0.7475
  946TIP3    H227034   2.894   5.317  17.785  1.3717 -1.6296 -0.3184
  947TIP3   OH227035   5.887   6.887  17.679  0.0725 -0.5651 -0.3258
  947TIP3    H127036   5.860   6.863  17.767  0.1791  0.2182 -0.0678
  947TIP3    H227037   5.837   6.968  17.661  0.4102 -0.4584 -0.7932
  948TIP3   OH227038   4.535   3.899  18.726  0.5955 -0.1976 -0.3593
  948TIP3    H127039   4.566   3.970  18.782 -0.3802  0.4754 -0.6387
  948TIP3    H227040   4.439   3.903  18.734  0.5202 -1.4102 -0.4702
  949TIP3   OH227041   2.014   5.253  16.225  0.2516 -0.0159 -0.0150
  949TIP3    H127042   1.975   5.264  16.312  0.3296 -2.3146  0.3685
  949TIP3    H227043   1.951   5.200  16.177  0.7225  0.3065 -1.0103
  950TIP3   OH227044   5.514   5.405  16.615  0.6925 -0.0259  0.6669
  950TIP3    H127045   5.424   5.377  16.632  1.6062 -1.3758  4.1387
  950TIP3    H227046   5.505   5.483  16.561 -2.4086 -1.4802 -1.2221
  951TIP3   OH227047   0.916   6.315  16.840  0.5636  0.0303 -0.1921
  951TIP3    H127048   0.948   6.345  16.756  1.8696 -1.4940 -0.2950
  951TIP3    H227049   0.823   6.299  16.826  0.5341  0.8366 -1.0156
  952TIP3   OH227050   3.129   0.258  18.628 -0.1298 -0.1465  0.3275
  952TIP3    H127051   3.221   0.232  18.625 -0.0061 -0.0432  2.1035
  952TIP3    H227052   3.097   0.242  18.539  0.5267 -4.2126  0.6040
  953TIP3   OH227053   5.834   6.881  16.347 -0.3735 -0.2604  0.3732
  953TIP3    H127054   5.926   6.898  16.370 -0.6320  0.0001  1.2351
  953TIP3    H227055   5.785   6.903  16.426 -1.1679 -0.5682 -0.0271
  954TIP3   OH227056   4.070   5.681  17.216  0.3110 -0.1901  0.2645
  954TIP3    H127057   4.013   5.758  17.226  0.4672  0.1912 -1.4736
  954TIP3    H227058   4.009   5.607  17.208  0.0882  0.0420 -0.2180
  955TIP3   OH227059   2.308   2.955  18.152  0.0816  0.4619  0.1449
  955TIP3    H127060   2.378   3.019  18.143  0.0908  0.7378  1.7568
  955TIP3    H227061   2.340   2.877  18.106  0.8090  1.0491 -0.3667
  956TIP3   OH227062   6.451   0.874  16.821  0.3581 -0.7793  0.2132
  956TIP3    H127063   6.375   0.868  16.878  0.8137  0.5113  0.9998
  956TIP3    H227064   6.521   0.907  16.878  1.3107 -1.2291 -0.6658
  957TIP3   OH227065   7.120   5.889  17.163  0.0787  0.1665 -0.3617
  957TIP3    H127066   7.059   5.951  17.123 -2.4113  0.6301  3.6396
  957TIP3    H227067   7.089   5.803  17.132 -1.2052  0.5361 -0.1752
  958TIP3   OH227068   6.559   2.824  17.518 -0.5736  0.3216 -0.2010
  958TIP3    H127069   6.466   2.823  17.496 -0.3767  0.1546 -1.0757
  958TIP3    H227070   6.563   2.794  17.609 -1.5195  2.2243  0.5077
  959TIP3   OH227071   6.751   4.714  16.829  0.2770 -0.2618  0.1262
  959TIP3    H127072   6.775   4.804  16.854  1.1261  0.0320 -1.5866
  959TIP3    H227073   6.655   4.714  16.829  0.2616  0.8055 -0.3552
  960TIP3   OH227074   7.413   3.972  17.360  0.2900  0.2605 -0.0776
  960TIP3    H127075   7.477   3.935  17.298 -0.0025 -0.8384  0.2485
  960TIP3    H227076   7.333   3.981  17.308  0.9210  2.5552 -0.7515
  961TIP3   OH227077   2.481   6.092  17.140 -0.6259 -0.1932 -0.3746
  961TIP3    H127078   2.420   6.140  17.195 -2.7651  0.6142 -3.1877
  961TIP3    H227079   2.483   6.004  17.177 -0.8045  0.6326  1.7435
  962TIP3   OH227080   6.647   2.249  17.819 -0.0124 -0.4254 -0.0252
  962TIP3    H127081   6.626   2.162  17.785 -1.6789  0.1339 -0.5353
  962TIP3    H227082   6.569   2.274  17.869  1.7719 -0.6267  3.1057
  963TIP3   OH227083   6.050   6.567  18.112  0.0439 -0.1533  0.1411
  963TIP3    H127084   6.115   6.635  18.094 -0.4231  0.4239  0.5892
  963TIP3    H227085   6.062   6.504  18.042  1.1966 -0.1390  0.3047
  964TIP3   OH227086   7.438   0.809  17.563 -0.1759 -0.5927  0.0091
  964TIP3    H127087   7.445   0.724  17.606  1.3673 -0.4167  0.1802
  964TIP3    H227088   7.379   0.860  17.619  0.6844 -0.8259  1.1760
  965TIP3   OH227089   2.282   3.880  18.428  0.2082  0.4782 -0.1019
  965TIP3    H127090   2.319   3.968  18.422 -0.2821  0.8720  1.7943
  965TIP3    H227091   2.209   3.890  18.489  1.5534 -1.6671  2.0172
  966TIP3   OH227092   1.862   7.574  16.651  0.1267  0.3081 -0.0961
  966TIP3    H127093   1.858   7.478  16.650  0.0034  0.1732 -4.1419
  966TIP3    H227094   1.954   7.594  16.667  0.1481 -0.4600  0.8188
  967TIP3   OH227095   6.869   3.881  16.590  0.4771 -0.4545 -0.2319
  967TIP3    H127096   6.853   3.896  16.497 -1.0071  0.1374  0.0872
  967TIP3    H227097   6.937   3.944  16.614  0.6248 -0.3826 -0.8315
  968TIP3   OH227098   2.005   0.164  18.638 -0.5099 -0.2235 -0.4685
  968TIP3    H127099   2.029   0.242  18.688 -1.3497 -1.3200  1.7934
  968TIP3    H227100   2.074   0.156  18.572 -0.2562  2.2358 -0.5995
  969TIP3   OH227101   1.878   5.188  18.052 -0.3452  0.3054 -0.3718
  969TIP3    H127102   1.954   5.203  18.108 -1.3734  2.1291  0.6134
  969TIP3    H227103   1.872   5.092  18.044  1.5679  0.1064  0.1421
  970TIP3   OH227104   0.907   2.170  16.925 -0.4421  0.7325  0.3676
  970TIP3    H127105   0.924   2.138  17.014 -1.0003 -0.0841  0.1957
  970TIP3    H227106   0.971   2.125  16.871 -2.0215 -1.1425 -0.0564
  971TIP3   OH227107   5.560   6.072  18.585  0.4462 -0.8334 -0.2307
  971TIP3    H127108   5.576   6.166  18.573  0.9953 -0.9026 -0.0920
  971TIP3    H227109   5.469   6.066  18.613  0.1163 -0.4220 -1.2022
  972TIP3   OH227110   2.161   2.425  16.365  0.1328 -0.2472 -0.0872
  972TIP3    H127111   2.223   2.429  16.292 -0.4682  1.0821 -0.5634
  972TIP3    H227112   2.113   2.344  16.351 -1.4354  0.9855 -2.4513
  973TIP3   OH227113   6.218   7.151  16.660  0.0096 -0.3447 -0.1772
  973TIP3    H127114   6.281   7.097  16.612  0.3959  0.0729 -0.1523
  973TIP3    H227115   6.199   7.224  16.600  0.2235 -0.0090  0.1596
  974TIP3   OH227116   1.893   6.109  16.470  0.3405  0.3344 -0.1700
  974TIP3    H127117   1.915   6.029  16.518 -0.4074 -0.3940 -0.9897
  974TIP3    H227118   1.961   6.117  16.403  0.3659  0.3301 -0.1449
  975TIP3   OH227119   3.166   4.956  16.266  0.0399 -0.2676  0.2841
  975TIP3    H127120   3.205   4.870  16.246 -2.6156 -1.5728  0.2690
  975TIP3    H227121   3.151   4.996  16.181  0.1565 -0.3194  0.2380
  976TIP3   OH227122   4.987   0.115  16.978 -0.3717  0.3672 -0.0446
  976TIP3    H127123   4.972   0.043  16.917 -1.3989  1.2856 -0.9188
  976TIP3    H227124   4.940   0.090  17.057 -0.1675 -0.2189 -0.1060
  977TIP3   OH227125   7.429   2.395  15.780  0.2144 -0.1151  0.4427
  977TIP3    H127126   7.374   2.473  15.794 -0.8585 -0.6363 -0.7654
  977TIP3    H227127   7.504   2.428  15.731 -0.2405  0.1647 -0.0745
  978TIP3   OH227128   7.094   3.596  15.939  0.2447  0.9250 -0.0298
  978TIP3    H127129   7.003   3.567  15.941  0.0547  1.5000  1.3062
  978TIP3    H227130   7.134   3.548  15.867 -1.1554  0.7964 -0.7518
  979TIP3   OH227131   7.402   5.080  17.901 -0.4778  0.1745  0.1293
  979TIP3    H127132   7.448   5.163  17.887 -1.5098  0.8417  0.5104
  979TIP3    H227133   7.321   5.089  17.850 -0.0356 -1.1222 -0.8319
  980TIP3   OH227134   2.333   5.155  17.025 -0.7904 -0.0151 -0.3882
  980TIP3    H127135   2.241   5.172  17.007 -0.6003  0.2535 -1.1610
  980TIP3    H227136   2.358   5.223  17.089 -0.8559  0.6286 -1.0258
  981TIP3   OH227137   2.711   4.861  18.813  0.0296  0.5069 -0.4727
  981TIP3    H127138   2.651   4.817  18.873 -0.7534 -1.4051 -2.5258
  981TIP3    H227139   2.773   4.793  18.787  0.3012  1.2583 -1.8833
  982TIP3   OH227140   4.232   5.815  16.014 -0.5126 -0.3412  0.1355
  982TIP3    H127141   4.215   5.903  15.982  1.9717 -0.4425 -1.8494
  982TIP3    H227142   4.155   5.764  15.989 -0.5746  0.6031 -1.7291
  983TIP3   OH227143   3.506   2.252  19.061  0.5378  0.1259 -0.2535
  983TIP3    H127144   3.586   2.229  19.014 -0.4801 -2.6065 -0.8164
  983TIP3    H227145   3.503   2.193  19.136 -1.2445 -0.2996 -0.6074
  984TIP3   OH227146   5.034   3.531  18.328  0.2283 -0.0976 -0.1920
  984TIP3    H127147   5.114   3.579  18.307  0.9997 -1.6435 -0.9989
  984TIP3    H227148   5.029   3.463  18.261 -1.0870 -0.8263  0.6019
  985TIP3   OH227149   5.039   3.257  16.830 -0.1460 -0.0321 -0.1161
  985TIP3    H127150   5.025   3.304  16.912 -1.8143 -0.9641  0.1881
  985TIP3    H227151   5.102   3.311  16.782  0.8772  0.5218  1.7590
  986TIP3   OH227152   4.716   1.244  18.294 -0.1813 -1.0224  0.5158
  986TIP3    H127153   4.649   1.222  18.229 -1.1600  0.2457  1.0604
  986TIP3    H227154   4.798   1.248  18.243 -1.1238  1.4395 -1.0214
  987TIP3   OH227155   1.125   5.010  17.170  0.0389  0.1698 -0.1695
  987TIP3    H127156   1.152   5.098  17.199  0.2860  0.5962 -1.6304
  987TIP3    H227157   1.098   5.022  17.079 -3.7945 -0.5014  0.7179
  988TIP3   OH227158   4.852   2.181  18.357  0.3411  0.2311 -0.3403
  988TIP3    H127159   4.800   2.130  18.419 -0.5163  1.6848  0.1966
  988TIP3    H227160   4.790   2.210  18.291  0.9171  0.1193 -0.9401
  989TIP3   OH227161   2.244   3.325  18.340 -0.1691  0.1993 -0.2505
  989TIP3    H127162   2.265   3.239  18.375 -0.4562  0.3070  0.1923
  989TIP3    H227163   2.237   3.312  18.245 -0.1622 -0.2530 -0.1894
  990TIP3   OH227164   7.540   0.760  16.732 -0.0815 -0.2338  0.0680
  990TIP3    H127165   7.559   0.846  16.769 -1.4899 -0.3133  1.0537
  990TIP3    H227166   7.523   0.704  16.808  0.7135 -1.3762 -0.5558
  991TIP3   OH227167   0.450   5.599  16.581  0.8561  0.2820 -0.1483
  991TIP3    H127168   0.536   5.600  16.622  0.7960  0.3104 -0.0227
  991TIP3    H227169   0.445   5.682  16.533  0.1531  1.1798  1.3943
  992TIP3   OH227170   3.546   1.223  17.813  0.0323  0.2079  0.5442
  992TIP3    H127171   3.471   1.164  17.815 -1.4351  1.9768  1.4744
  992TIP3    H227172   3.525   1.290  17.878  1.4381  1.9403 -0.6830
  993TIP3   OH227173   0.132   3.705  16.178  0.6101 -0.1331  0.4140
  993TIP3    H127174   0.089   3.731  16.097  0.9102 -1.6048 -0.2491
  993TIP3    H227175   0.197   3.773  16.194  0.7762  0.0104 -0.7763
  994TIP3   OH227176   1.154   4.752  18.051  0.1504 -0.4655  0.1457
  994TIP3    H127177   1.123   4.698  18.123  1.8542  0.2680  1.5026
  994TIP3    H227178   1.075   4.774  18.002 -0.8601 -2.2633  0.8560
  995TIP3   OH227179   7.170   2.686  17.203 -0.0186  0.6413  0.2208
  995TIP3    H127180   7.074   2.682  17.203  0.0250 -0.7222  0.1676
  995TIP3    H227181   7.195   2.668  17.293  0.2437 -2.2079 -0.3121
  996TIP3   OH227182   3.874   5.157  15.916 -0.4231 -0.4057  0.0192
  996TIP3    H127183   3.968   5.151  15.899 -0.6452 -2.5047 -0.8106
  996TIP3    H227184   3.863   5.117  16.002 -0.5977 -0.5205 -0.0564
  997TIP3   OH227185   6.435   1.272  16.132 -0.1862 -0.2458  0.3878
  997TIP3    H127186   6.496   1.346  16.121 -2.3106  1.4238 -0.9312
  997TIP3    H227187   6.491   1.195  16.127  1.7018  1.1289 -2.0714
  998TIP3   OH227188   2.383   4.039  16.436 -0.4538 -0.6633  0.6508
  998TIP3    H127189   2.478   4.029  16.437 -0.5789 -1.9968  1.2433
  998TIP3    H227190   2.369   4.133  16.426  0.9384 -0.2561  2.1054
  999TIP3   OH227191   0.514   0.823  17.300  0.1170 -0.1626  0.2064
  999TIP3    H127192   0.480   0.751  17.354  0.8970 -0.7054 -0.0231
  999TIP3    H227193   0.549   0.885  17.364  1.2117 -0.8911  0.3378
 1000TIP3   OH227194   3.035   6.702  18.714  0.6337 -0.5953 -0.3684
 1000TIP3    H127195   3.112   6.726  18.765 -0.4247  0.4331  0.8348
 1000TIP3    H227196   2.988   6.640  18.769  0.0171 -0.3037 -0.5473
 1001TIP3   OH227197   2.614   7.220  15.822 -1.0870  0.3186 -0.1271
 1001TIP3    H127198   2.562   7.298  15.802 -0.9754  0.3730 -0.2087
 1001TIP3    H227199   2.580   7.189  15.906 -0.6927  0.8321  0.2287
 1002TIP3   OH227200   2.309   3.109  18.683  0.0442  0.2232 -0.0256
 1002TIP3    H127201   2.284   3.020  18.708 -0.6468  0.5592  0.5178
 1002TIP3    H227202   2.337   3.149  18.765 -0.7739  0.8616 -0.0415
 1003TIP3   OH227203   6.216   0.584  18.029  0.0583 -0.1165 -0.1590
 1003TIP3    H127204   6.311   0.593  18.034  0.0923 -0.4658 -0.1628
 1003TIP3    H227205   6.200   0.542  17.945 -0.0745 -0.3811 -0.0043
 1004TIP3   OH227206   3.666   1.332  17.255  0.4869  0.2511 -0.4424
 1004TIP3    H127207   3.726   1.406  17.242  0.8304  0.3063  1.2398
 1004TIP3    H227208   3.640   1.338  17.347 -1.0136 -0.6035 -0.7777
 1005TIP3   OH227209   0.012   5.161  15.980  0.2080  0.4891  0.2777
 1005TIP3    H127210   0.084   5.097  15.974  0.5692  0.9505 -0.4876
 1005TIP3    H227211  -0.060   5.112  16.019  0.8222 -0.0858  0.7138
 1006TIP3   OH227212   7.479   4.345  16.345 -0.3173 -0.5423 -0.0716
 1006TIP3    H127213   7.498   4.354  16.251 -0.2739 -2.2669 -0.2573
 1006TIP3    H227214   7.531   4.414  16.386 -0.1747  0.1125 -1.2834
 1007TIP3   OH227215   5.400   2.542  17.298  0.1745 -0.2583 -0.3961
 1007TIP3    H127216   5.379   2.449  17.308 -0.3582 -0.0273  0.7578
 1007TIP3    H227217   5.377   2.561  17.207 -2.3224 -0.6360  0.0767
 1008TIP3   OH227218   7.137   2.502  18.078 -0.0657 -0.4345 -0.4468
 1008TIP3    H127219   7.210   2.502  18.140 -0.4860  1.0952  0.0841
 1008TIP3    H227220   7.059   2.498  18.132 -0.4111 -0.3274 -0.9313
 1009TIP3   OH227221   5.021   2.519  16.648 -0.0981 -0.7685 -0.0536
 1009TIP3    H127222   5.057   2.490  16.564 -0.3891  1.7895 -1.1420
 1009TIP3    H227223   5.088   2.577  16.684 -1.6832  1.5050 -0.5950
 1010TIP3   OH227224   7.323   2.130  16.573 -0.0290  0.0060 -0.0347
 1010TIP3    H127225   7.383   2.149  16.501 -1.0415 -0.6712 -1.0774
 1010TIP3    H227226   7.274   2.211  16.585  1.0400  0.5606  0.8143
 1011TIP3   OH227227   2.662   5.695  17.941 -0.6441  0.3739 -0.0838
 1011TIP3    H127228   2.607   5.770  17.917 -1.0329  0.0310 -0.2632
 1011TIP3    H227229   2.604   5.619  17.934 -0.0176 -0.0467 -0.7322
 1012TIP3   OH227230   5.529   1.539  17.780 -0.0335 -0.3485  0.5067
 1012TIP3    H127231   5.529   1.633  17.800 -0.8102 -0.0942 -0.6144
 1012TIP3    H227232   5.615   1.522  17.742 -0.3582  0.1911 -0.4923
 1013TIP3   OH227233   4.918   1.225  15.999 -0.1845 -0.3926 -0.1871
 1013TIP3    H127234   4.885   1.235  16.088  1.6271 -0.7904  0.5603
 1013TIP3    H227235   4.946   1.134  15.994  0.8009 -0.0750 -0.7666
 1014TIP3   OH227236   6.502   1.234  16.838 -0.1632 -0.2293 -0.0479
 1014TIP3    H127237   6.551   1.169  16.889  1.2881 -0.7538 -1.9952
 1014TIP3    H227238   6.415   1.195  16.828 -0.1554 -0.5842  1.1083
 1015TIP3   OH227239   6.322   1.940  16.753  0.9454 -0.5583  0.1830
 1015TIP3    H127240   6.249   1.907  16.701  0.5982 -0.9178  0.8761
 1015TIP3    H227241   6.320   2.035  16.739 -1.4326 -0.1776  2.3277
 1016TIP3   OH227242   1.606   4.286  16.541  0.2776 -0.8468  0.2081
 1016TIP3    H127243   1.543   4.347  16.502  2.4244  1.3120 -0.1153
 1016TIP3    H227244   1.594   4.296  16.635 -0.9283 -1.6780  0.1604
 1017TIP3   OH227245   1.245   0.264  17.836  0.5837  0.1048  0.7040
 1017TIP3    H127246   1.288   0.199  17.891  0.3725  1.1098  2.0950
 1017TIP3    H227247   1.156   0.229  17.823 -0.1802  0.9932  3.0994
 1018TIP3   OH227248   6.221   1.967  18.743  0.2738  0.5689  0.3038
 1018TIP3    H127249   6.312   1.956  18.714 -0.6532 -0.4123 -2.5959
 1018TIP3    H227250   6.177   1.887  18.715 -1.4856  0.9733  1.7435
 1019TIP3   OH227251   7.549   4.210  18.125 -0.7822  0.2250  0.2449
 1019TIP3    H127252   7.612   4.147  18.162  1.8051  2.0681 -0.6978
 1019TIP3    H227253   7.498   4.158  18.063  1.2293 -1.0417 -0.4829
 1020TIP3   OH227254   0.561   2.562  18.516 -0.4329  0.3483  0.1337
 1020TIP3    H127255   0.474   2.601  18.506 -0.4845  0.1601 -0.1631
 1020TIP3    H227256   0.561   2.488  18.455 -1.0515 -1.3028  1.9936
 1021TIP3   OH227257   1.966   0.423  16.536 -0.0357  0.0650  0.4933
 1021TIP3    H127258   1.959   0.477  16.614  0.0118  1.5635 -0.4938
 1021TIP3    H227259   1.876   0.418  16.502 -0.0596 -0.5904  0.6385
 1022TIP3   OH227260   2.356   2.191  18.275 -0.3793  0.0777  0.2758
 1022TIP3    H127261   2.374   2.111  18.324 -0.2241  0.3042  0.5967
 1022TIP3    H227262   2.438   2.241  18.280  0.3606 -0.8046 -2.0099
 1023TIP3   OH227263   3.258   4.515  17.624 -0.2694 -0.1954  0.1782
 1023TIP3    H127264   3.314   4.464  17.682  0.4253  0.7120  0.3287
 1023TIP3    H227265   3.281   4.485  17.536  0.2844 -0.0142  0.2525
 1024TIP3   OH227266   6.034   0.347  18.026 -0.0839  0.0386  0.2052
 1024TIP3    H127267   6.038   0.407  17.950 -2.1140  1.4564  1.1269
 1024TIP3    H227268   6.125   0.319  18.038  0.4130  0.2562 -2.3532
 1025TIP3   OH227269   3.685   3.434  18.297  0.4275 -0.5610 -0.1072
 1025TIP3    H127270   3.734   3.468  18.223  0.7024  1.6744  1.0278
 1025TIP3    H227271   3.593   3.446  18.272  0.5187  0.3533 -0.0256
 1026TIP3   OH227272   3.861   3.854  17.790  0.0618 -0.2731  0.2605
 1026TIP3    H127273   3.807   3.922  17.750 -0.5314 -0.0117  1.4542
 1026TIP3    H227274   3.950   3.888  17.785 -0.3095  0.9817  1.5432
 1027TIP3   OH227275   3.498   0.127  16.549  0.0812 -0.3475 -0.0070
 1027TIP3    H127276   3.411   0.148  16.515 -0.1762 -1.2273  0.0830
 1027TIP3    H227277   3.558   0.149  16.478 -0.2257  0.0786 -0.1407
 1028TIP3   OH227278   2.537   2.536  16.019  0.2544  0.1626  0.1671
 1028TIP3    H127279   2.563   2.478  15.948  0.6618  1.2530 -0.6024
 1028TIP3    H227280   2.533   2.623  15.979 -0.3614  0.6733  1.2791
 1029TIP3   OH227281   6.229   3.608  16.455 -0.1424 -0.9220 -0.0767
 1029TIP3    H127282   6.236   3.643  16.366  1.3194 -0.0859  0.3335
 1029TIP3    H227283   6.141   3.632  16.483 -0.7905 -1.5926 -1.4448
 1030TIP3   OH227284   2.441   1.897  18.430  0.4320 -0.2395 -0.1902
 1030TIP3    H127285   2.403   1.820  18.473 -0.0521 -0.8346 -1.6097
 1030TIP3    H227286   2.477   1.863  18.348  3.0665  0.5043  0.5557
 1031TIP3   OH227287   1.742   0.601  17.588  0.5274 -0.1332  0.0131
 1031TIP3    H127288   1.769   0.515  17.555 -0.9397 -0.7743  0.3882
 1031TIP3    H227289   1.647   0.596  17.591  0.3975  1.6750 -0.3592
 1032TIP3   OH227290   2.453   2.729  18.155 -0.2316 -0.1106  0.1096
 1032TIP3    H127291   2.490   2.686  18.232  0.2643  1.1414  0.5803
 1032TIP3    H227292   2.411   2.658  18.106  1.7100 -1.3730  0.1913
 1033TIP3   OH227293   5.017   1.356  18.560  0.3916  0.1589  0.0869
 1033TIP3    H127294   5.045   1.439  18.599  1.0113 -0.3015  0.6534
 1033TIP3    H227295   4.930   1.341  18.596  0.3731  0.4530  0.1682
 1034TIP3   OH227296   5.516   1.760  16.596 -0.1758 -0.1396  0.0005
 1034TIP3    H127297   5.545   1.793  16.511 -1.9933  0.5914 -0.3801
 1034TIP3    H227298   5.446   1.820  16.623  0.5241 -0.2038  2.1497
 1035TIP3   OH227299   0.876   7.182  17.780 -0.2494  0.3303 -0.0136
 1035TIP3    H127300   0.839   7.122  17.715 -0.5101 -0.6720  1.0294
 1035TIP3    H227301   0.802   7.234  17.810 -0.7232 -1.1034  1.4613
 1036TIP3   OH227302   6.054   4.711  16.124  0.1831 -0.4103 -0.0091
 1036TIP3    H127303   6.094   4.772  16.186 -0.5238 -0.1171  0.1807
 1036TIP3    H227304   5.960   4.715  16.145 -0.4455  1.5280 -2.6285
 1037TIP3   OH227305   2.704   4.483  17.839 -0.2510  0.3335 -0.5065
 1037TIP3    H127306   2.657   4.551  17.887 -1.6373  0.2605 -1.7103
 1037TIP3    H227307   2.648   4.406  17.844  0.3319 -0.1325 -0.9193
 1038TIP3   OH227308   1.889   1.817  17.188 -0.6244  0.1223 -0.4211
 1038TIP3    H127309   1.923   1.885  17.247 -0.9765  0.9359 -1.1262
 1038TIP3    H227310   1.961   1.754  17.181  0.5882  1.5367 -1.4690
 1039TIP3   OH227311   6.481   7.320  17.472 -0.0915 -0.1106  0.0012
 1039TIP3    H127312   6.500   7.395  17.528 -2.9700 -0.9978  2.5075
 1039TIP3    H227313   6.490   7.244  17.531 -1.2791 -1.3032 -1.2803
 1040TIP3   OH227314   2.941   6.706  18.251  0.2246  0.3318  0.2277
 1040TIP3    H127315   2.861   6.754  18.273 -0.0666  0.5359 -1.2106
 1040TIP3    H227316   3.002   6.727  18.322 -0.5609  1.2128  0.6645
 1041TIP3   OH227317   2.691   0.005  16.123  0.5334 -0.2198  0.5019
 1041TIP3    H127318   2.772   0.055  16.136 -0.1047  1.1402 -0.4675
 1041TIP3    H227319   2.683  -0.005  16.028  1.2672 -3.3590  0.6548
 1042TIP3   OH227320   0.683   5.712  16.302  0.1716 -0.2140 -0.2388
 1042TIP3    H127321   0.610   5.748  16.353  0.7843 -0.6428  1.0034
 1042TIP3    H227322   0.654   5.715  16.211 -1.0085  0.5014  0.1461
 1043TIP3   OH227323   5.178   0.614  18.232 -0.5080 -0.2139 -0.8262
 1043TIP3    H127324   5.214   0.540  18.183 -0.7306 -0.4327 -0.6574
 1043TIP3    H227325   5.143   0.575  18.312  0.1970  0.1905 -0.3119
 1044TIP3   OH227326   2.539   1.971  16.781  0.3298  0.4560 -0.6184
 1044TIP3    H127327   2.626   2.012  16.779  0.8504 -0.6227 -2.7536
 1044TIP3    H227328   2.549   1.891  16.729 -2.3287  1.1102 -2.3084
 1045TIP3   OH227329   0.074   7.182  16.943  0.5555  0.1246  0.0417
 1045TIP3    H127330   0.041   7.218  16.861 -2.7353 -0.0909  1.1504
 1045TIP3    H227331   0.087   7.089  16.924 -0.3388  0.0422 -0.2129
 1046TIP3   OH227332   7.275   1.230  16.624  0.3285 -0.1674 -0.2506
 1046TIP3    H127333   7.215   1.156  16.617  0.9085 -0.6743  0.0712
 1046TIP3    H227334   7.279   1.249  16.718 -0.5540  0.9000 -0.4019
 1047TIP3   OH227335   7.532   1.166  16.558 -0.1453  0.1266 -0.1948
 1047TIP3    H127336   7.532   1.183  16.464  0.6448 -1.1144 -0.4424
 1047TIP3    H227337   7.452   1.208  16.590 -0.2258  0.8855 -1.3501
 1048TIP3   OH227338   3.826   0.212  18.625 -0.6785 -0.2943 -0.2668
 1048TIP3    H127339   3.731   0.220  18.627 -0.7520 -1.0265 -0.6757
 1048TIP3    H227340   3.854   0.277  18.560 -0.7478  1.1041  1.0378
 1049TIP3   OH227341   1.542   5.441  17.837 -0.3943  0.5733  0.2490
 1049TIP3    H127342   1.464   5.389  17.815 -0.4417  0.6368  0.2672
 1049TIP3    H227343   1.589   5.450  17.755  0.4470 -0.8794  0.5302
 1050TIP3   OH227344   4.015   1.971  18.403  0.1748  0.7006 -0.4380
 1050TIP3    H127345   3.979   2.050  18.361  0.3557  0.5932 -0.7925
 1050TIP3    H227346   4.098   1.956  18.359 -0.6491 -0.6975 -1.5781
 1051TIP3   OH227347   6.494   0.397  18.379 -0.1519  0.7223  0.0080
 1051TIP3    H127348   6.484   0.313  18.424 -0.4400  1.2008  0.8632
 1051TIP3    H227349   6.506   0.373  18.287 -1.9205 -0.2008 -0.0316
 1052TIP3   OH227350   3.506   7.148  18.762  0.2975 -0.1549 -0.3863
 1052TIP3    H127351   3.566   7.171  18.692  0.7047  0.7939  0.2670
 1052TIP3    H227352   3.471   7.231  18.793 -0.8454 -0.6483 -0.3005
 1053TIP3   OH227353   2.928   6.291  16.796 -0.4619 -0.8076  0.0868
 1053TIP3    H127354   2.873   6.215  16.815  0.0228 -1.5127 -1.2079
 1053TIP3    H227355   2.868   6.357  16.763 -0.6587 -1.2325 -0.4118
 1054TIP3   OH227356   0.278   2.465  16.749 -0.3268  0.2249 -0.3607
 1054TIP3    H127357   0.286   2.380  16.793 -4.0622 -0.4258 -0.6020
 1054TIP3    H227358   0.338   2.522  16.797 -0.3573 -1.6990  2.2035
 1055TIP3   OH227359   7.452   4.528  18.556 -0.9402 -0.6721 -0.0421
 1055TIP3    H127360   7.420   4.458  18.613  2.0353 -1.7684  0.4576
 1055TIP3    H227361   7.482   4.484  18.477  0.0712  0.1489 -0.1436
 1056TIP3   OH227362   5.360   1.128  16.510  0.2403 -0.4186  0.0647
 1056TIP3    H127363   5.428   1.192  16.494  0.5052 -0.8008 -0.3717
 1056TIP3    H227364   5.356   1.120  16.605  0.1153  0.3322  0.1239
 1057TIP3   OH227365   3.576   2.463  17.921  0.7716 -0.2853  0.3284
 1057TIP3    H127366   3.581   2.479  18.015  1.7066 -3.5352  0.9418
 1057TIP3    H227367   3.654   2.412  17.901 -0.5343 -1.5885 -1.7848
 1058TIP3   OH227368   2.236   1.517  18.098  0.5880 -0.1730 -0.8612
 1058TIP3    H127369   2.272   1.529  18.010  2.1177 -1.5555 -0.4691
 1058TIP3    H227370   2.295   1.567  18.155 -0.8318  1.3520 -0.6396
 1059TIP3   OH227371   7.173   3.573  17.388 -0.0707  0.1163 -0.7408
 1059TIP3    H127372   7.204   3.539  17.472 -0.3821  2.0002  0.1855
 1059TIP3    H227373   7.108   3.509  17.358  2.6857 -2.5845 -1.4716
 1060TIP3   OH227374   4.292   3.562  18.401  0.1308  0.7039 -0.1940
 1060TIP3    H127375   4.206   3.580  18.364 -0.3246  2.2560  1.4702
 1060TIP3    H227376   4.335   3.648  18.403 -0.4074  1.0974  3.9546
 1061TIP3   OH227377   5.718   6.059  17.787  0.3554  0.2741 -0.0217
 1061TIP3    H127378   5.786   6.123  17.812  0.5057  0.4100 -0.7318
 1061TIP3    H227379   5.743   6.032  17.699 -0.4185  0.1834 -0.2207
 1062TIP3   OH227380   1.831   3.887  17.344 -0.5686 -0.2095  0.3449
 1062TIP3    H127381   1.749   3.849  17.376 -0.0347 -2.2066 -0.5267
 1062TIP3    H227382   1.822   3.981  17.362 -3.4094 -0.2293 -0.4669
 1063TIP3   OH227383   4.170   6.441  18.281  0.5238 -0.3756 -0.2467
 1063TIP3    H127384   4.173   6.383  18.205 -0.8738 -1.4499  0.4757
 1063TIP3    H227385   4.189   6.385  18.355  1.5076  0.5912  0.2561
 1064TIP3   OH227386   0.566   0.093  17.945 -0.1414 -0.7031 -0.4024
 1064TIP3    H127387   0.540   0.059  17.859 -1.5278  0.9986 -0.7131
 1064TIP3    H227388   0.601   0.180  17.927  0.5094 -0.7333  0.6611
 1065TIP3   OH227389   6.972   6.786  16.692 -0.0360  0.3475  0.1189
 1065TIP3    H127390   6.981   6.833  16.775  1.5528  1.0764 -0.4258
 1065TIP3    H227391   7.057   6.745  16.678 -0.0572  0.7755 -1.4480
 1066TIP3   OH227392   6.502   3.420  16.258 -0.7782  0.2381 -0.1826
 1066TIP3    H127393   6.431   3.367  16.223  0.0222  0.1896 -1.8191
 1066TIP3    H227394   6.580   3.389  16.212  0.4246 -0.0727  1.9344
 1067TIP3   OH227395   4.151   3.208  18.178  0.1050 -0.1522 -0.2443
 1067TIP3    H127396   4.108   3.281  18.133 -0.1616 -0.6754 -0.8420
 1067TIP3    H227397   4.186   3.153  18.108  1.2002 -0.0712  0.2219
 1068TIP3   OH227398   7.183   4.199  17.505 -0.0915  0.1557  0.0256
 1068TIP3    H127399   7.090   4.221  17.497 -0.4383 -1.3973 -0.4757
 1068TIP3    H227400   7.215   4.199  17.415  0.9506  2.7180  0.2908
 1069TIP3   OH227401   0.857   7.451  17.148  0.2299 -0.5645 -0.1837
 1069TIP3    H127402   0.837   7.445  17.241 -0.6865 -1.9448 -0.4308
 1069TIP3    H227403   0.801   7.385  17.107  0.7075 -0.0835 -1.7030
 1070TIP3   OH227404   4.605   3.715  18.490 -0.4870 -0.2937 -0.1386
 1070TIP3    H127405   4.592   3.748  18.579 -0.7320  0.8449 -0.5779
 1070TIP3    H227406   4.543   3.763  18.436  0.6349  0.0936 -1.1536
 1071TIP3   OH227407   5.007   2.854  15.845 -0.1125  0.2057  0.2480
 1071TIP3    H127408   5.058   2.934  15.859  0.5807 -0.2122  0.1626
 1071TIP3    H227409   4.944   2.853  15.917  1.2720 -0.2554  1.5129
 1072TIP3   OH227410   1.318   3.143  18.341 -0.4927 -0.4321 -0.4186
 1072TIP3    H127411   1.363   3.221  18.308  0.4834 -1.5382 -1.8825
 1072TIP3    H227412   1.378   3.107  18.407 -2.0324  1.2846  2.0584
 1073TIP3   OH227413   1.698   6.964  16.921 -0.1932  0.2419  0.2251
 1073TIP3    H127414   1.764   7.026  16.953 -0.2386  0.4214 -0.0317
 1073TIP3    H227415   1.743   6.913  16.853 -0.2166  0.1309  0.2916
 1074TIP3   OH227416   7.667   4.591  16.345 -0.1777 -0.0400 -0.3609
 1074TIP3    H127417   7.614   4.671  16.350 -1.3895 -0.8561  0.3075
 1074TIP3    H227418   7.749   4.615  16.387 -0.7149  0.7236  0.2981
 1075TIP3   OH227419   3.118   2.728  16.533 -0.0545 -0.3108 -0.2712
 1075TIP3    H127420   3.118   2.662  16.464  1.8825 -0.6483 -0.0275
 1075TIP3    H227421   3.096   2.809  16.489  0.6731 -0.6058 -1.2198
 1076TIP3   OH227422   3.096   3.174  16.581  0.0344  0.3756  1.1417
 1076TIP3    H127423   3.152   3.135  16.648 -0.0455  0.0400  1.0162
 1076TIP3    H227424   3.052   3.100  16.540 -0.3184  0.6201  1.0735
 1077TIP3   OH227425   3.492   2.788  17.613 -0.3986 -0.5861  0.6418
 1077TIP3    H127426   3.567   2.789  17.673 -1.1082  2.3464  1.6434
 1077TIP3    H227427   3.416   2.788  17.671 -1.1332 -0.0185 -0.3011
 1078TIP3   OH227428   3.867   3.609  16.905 -0.0726 -0.0439 -0.5347
 1078TIP3    H127429   3.810   3.664  16.851  1.9137  2.7212 -0.0268
 1078TIP3    H227430   3.955   3.622  16.868  1.4142  2.0533  3.1749
 1079TIP3   OH227431   5.805   1.974  17.819 -0.6733 -0.0402 -0.5652
 1079TIP3    H127432   5.756   2.040  17.770  1.1236  0.2311 -2.1068
 1079TIP3    H227433   5.797   1.895  17.766  1.9908  0.4616 -1.9114
 1080TIP3   OH227434   3.721   2.163  17.685 -0.5827 -0.0638 -0.1410
 1080TIP3    H127435   3.771   2.195  17.760 -2.1941 -1.4684  1.6517
 1080TIP3    H227436   3.679   2.242  17.650  0.8401  0.7398 -0.1209
 1081TIP3   OH227437   3.534   2.798  16.027  0.1460  0.6568  0.1329
 1081TIP3    H127438   3.492   2.851  15.958 -1.3074  0.3723  0.7502
 1081TIP3    H227439   3.588   2.735  15.979  0.9726  1.9322 -0.6533
 1082TIP3   OH227440   3.101   2.815  16.111 -0.3098  0.5673  0.1879
 1082TIP3    H127441   3.025   2.852  16.156 -1.5914 -1.1130 -0.4893
 1082TIP3    H227442   3.077   2.723  16.095  0.9770  0.5434 -1.9491
 1083TIP3   OH227443   7.154   2.394  17.179 -0.2945 -0.2111  0.2862
 1083TIP3    H127444   7.091   2.442  17.233 -2.3880 -0.9450 -1.3864
 1083TIP3    H227445   7.103   2.360  17.106  1.8341 -1.8783 -0.5433
 1084TIP3   OH227446   6.791   6.043  18.468  0.3372  0.1841 -0.5177
 1084TIP3    H127447   6.717   6.056  18.408 -0.6070 -0.1506  0.5374
 1084TIP3    H227448   6.868   6.059  18.414 -0.4594 -0.5824 -1.9577
 1085TIP3   OH227449   7.562   4.950  16.540 -0.0694  0.1837  0.0069
 1085TIP3    H127450   7.566   4.901  16.457  3.8071  0.0160  0.1188
 1085TIP3    H227451   7.500   4.900  16.594  0.3394 -2.0440 -1.4421
 1086TIP3   OH227452   1.499   5.780  18.049 -0.4382 -0.0595 -0.2106
 1086TIP3    H127453   1.487   5.806  18.140  0.2426 -1.1083  0.1990
 1086TIP3    H227454   1.495   5.684  18.050 -2.8575 -0.0460 -1.6653
 1087TIP3   OH227455   1.284   1.550  17.869 -0.0785  0.2239 -0.0552
 1087TIP3    H127456   1.308   1.472  17.920 -3.8675 -0.9613  0.2661
 1087TIP3    H227457   1.294   1.622  17.931 -0.3068 -0.5975  0.9816
 1088TIP3   OH227458   7.482   7.653  18.274 -0.2213  0.8478 -0.4085
 1088TIP3    H127459   7.419   7.588  18.245  0.3214  0.3062 -0.4042
 1088TIP3    H227460   7.528   7.679  18.194  1.1597 -0.5219 -0.1285
 1089TIP3   OH227461   0.689   2.903  18.536  0.1293  0.1265 -0.7150
 1089TIP3    H127462   0.709   2.834  18.473 -1.7175  0.4796 -1.7555
 1089TIP3    H227463   0.596   2.893  18.554  0.2317  1.1771  0.5959
 1090TIP3   OH227464   1.365   1.148  17.002  0.3143  0.0904  0.2034
 1090TIP3    H127465   1.444   1.161  17.053  0.7075  0.7690 -0.5502
 1090TIP3    H227466   1.340   1.058  17.019  0.7299  0.1406  1.1606
 1091TIP3   OH227467   7.169   5.391  17.647 -0.1453 -0.2578  1.0932
 1091TIP3    H127468   7.255   5.418  17.678  0.6949 -1.0313 -0.4103
 1091TIP3    H227469   7.109   5.417  17.716  1.2148  0.8375  1.9201
 1092TIP3   OH227470   2.088   4.373  16.944 -0.5738 -0.2155 -0.1265
 1092TIP3    H127471   2.081   4.465  16.970 -0.6712 -0.6448  1.4686
 1092TIP3    H227472   2.151   4.374  16.872  0.1164  1.0049  0.4446
 1093TIP3   OH227473   4.428   0.418  17.042  0.5089 -0.1377 -0.2326
 1093TIP3    H127474   4.446   0.334  17.001 -0.4042 -0.3051 -0.2966
 1093TIP3    H227475   4.497   0.476  17.009 -1.3367  0.3246 -3.6943
 1094TIP3   OH227476   5.001   0.654  17.354  0.3850  0.7128  0.2224
 1094TIP3    H127477   4.975   0.727  17.298  1.9904  1.0598 -0.1336
 1094TIP3    H227478   4.919   0.622  17.392 -0.6693  0.9953 -1.6675
 1095TIP3   OH227479   2.718   6.944  18.613 -0.0172  0.1373  0.2737
 1095TIP3    H127480   2.678   6.861  18.640  1.1523 -0.2326  0.8954
 1095TIP3    H227481   2.805   6.943  18.653  0.8410  0.6802 -1.4857
 1096TIP3   OH227482   3.618   2.035  16.949 -0.6467  0.4027 -0.0839
 1096TIP3    H127483   3.573   2.039  16.865 -1.5366 -0.9802  0.2916
 1096TIP3    H227484   3.563   2.085  17.009 -1.6073 -1.0944  0.3221
 1097TIP3   OH227485   6.118   4.029  17.193 -0.1946  0.8393  0.0907
 1097TIP3    H127486   6.169   4.109  17.208 -0.0311  0.3710  2.4055
 1097TIP3    H227487   6.035   4.060  17.156 -0.3633  2.1761  1.4715
 1098TIP3   OH227488   1.195   3.935  17.599  0.7997  0.5807 -0.2427
 1098TIP3    H127489   1.200   3.891  17.514 -0.1573  1.0805 -0.5748
 1098TIP3    H227490   1.119   3.993  17.592  1.9739  2.2503  0.1984
 1099TIP3   OH227491   2.539   0.014  18.133  0.0258  0.1742 -0.0970
 1099TIP3    H127492   2.496  -0.052  18.187  2.3627  0.1003  1.8566
 1099TIP3    H227493   2.501   0.097  18.161  0.3543  0.0217  0.8675
 1100TIP3   OH227494   5.511   2.801  17.375 -0.1520  0.1467 -0.1202
 1100TIP3    H127495   5.566   2.810  17.453 -2.4426  0.0025  1.6016
 1100TIP3    H227496   5.510   2.707  17.357 -1.5012 -0.1286  1.1880
 1101TIP3   OH227497   0.061   5.162  18.892  0.3300  0.3947 -0.0796
 1101TIP3    H127498   0.104   5.160  18.806  0.6187  1.3553  0.0249
 1101TIP3    H227499   0.034   5.254  18.903 -0.7739  0.0289  0.3382
 1102TIP3   OH227500   5.151   7.138  17.883  0.1135  0.0575 -0.3765
 1102TIP3    H127501   5.095   7.212  17.860 -0.5637 -0.8550 -1.7390
 1102TIP3    H227502   5.131   7.120  17.975 -0.3958  0.9633 -0.3033
 1103TIP3   OH227503   3.562   5.028  18.124 -0.0849  0.6497  0.5478
 1103TIP3    H127504   3.508   5.082  18.067 -0.2780  1.9086  1.8792
 1103TIP3    H227505   3.543   5.059  18.212  1.6027  0.0150  1.1746
 1104TIP3   OH227506   1.412   4.203  17.489  0.0219  0.6496 -0.0856
 1104TIP3    H127507   1.465   4.281  17.506 -0.3836  1.0278 -0.5194
 1104TIP3    H227508   1.329   4.237  17.455 -0.9406  0.1334  1.6157
 1105TIP3   OH227509   3.719   2.628  16.303 -0.1615  0.6156  0.2734
 1105TIP3    H127510   3.749   2.557  16.247  1.9901  1.5798  0.1215
 1105TIP3    H227511   3.796   2.682  16.318 -0.7124  0.6667  3.8203
 1106TIP3   OH227512   0.756   3.447  16.794  0.1379  0.0132  0.1424
 1106TIP3    H127513   0.830   3.451  16.734  0.3606  2.0088  0.5003
 1106TIP3    H227514   0.701   3.377  16.759  1.6462 -0.7834 -0.7371
 1107TIP3   OH227515   2.283   6.193  16.817  0.0506 -0.3416 -0.0160
 1107TIP3    H127516   2.248   6.142  16.891  1.8313 -1.8013 -0.1272
 1107TIP3    H227517   2.377   6.194  16.831  0.5850 -1.6760 -2.8604
 1108TIP3   OH227518   5.062   5.605  16.270  0.4369  0.4553  0.5291
 1108TIP3    H127519   5.123   5.599  16.197  1.3388 -0.0025  1.3083
 1108TIP3    H227520   4.976   5.615  16.228  1.1497  2.4153 -0.5755
 1109TIP3   OH227521   0.244   4.961  17.505 -0.2991 -0.1499 -0.0667
 1109TIP3    H127522   0.327   4.986  17.546 -0.1462  0.3666 -0.6716
 1109TIP3    H227523   0.202   5.045  17.484 -1.6575 -0.3738  1.5416
 1110TIP3   OH227524   6.697   1.728  16.575 -0.1662  0.1064 -0.2862
 1110TIP3    H127525   6.762   1.730  16.505 -2.2476  0.6210 -2.3182
 1110TIP3    H227526   6.648   1.810  16.566 -2.1021 -0.9252  0.1202
 1111TIP3   OH227527   7.518   2.026  17.127 -0.0851 -1.0453  0.2054
 1111TIP3    H127528   7.452   1.960  17.149 -1.4533 -0.0270 -0.6205
 1111TIP3    H227529   7.552   1.998  17.042 -0.2957 -0.9576  0.0911
 1112TIP3   OH227530   2.053   0.734  17.081  0.0979  0.4386 -0.0554
 1112TIP3    H127531   2.013   0.816  17.054 -0.5808  0.3840  0.7391
 1112TIP3    H227532   1.980   0.680  17.112  0.5969 -0.2726 -0.0853
 1113TIP3   OH227533   5.519   2.295  18.195  0.3908 -0.0453 -0.1900
 1113TIP3    H127534   5.514   2.344  18.112  0.3400 -0.8251 -0.6532
 1113TIP3    H227535   5.503   2.361  18.262 -2.0884  0.1985 -0.9111
 1114TIP3   OH227536   4.082   2.612  16.978  0.3271 -1.1162  0.2467
 1114TIP3    H127537   4.008   2.619  16.918 -0.8230  3.5941  1.7789
 1114TIP3    H227538   4.043   2.588  17.062  0.9273 -1.2026  0.5081
 1115TIP3   OH227539   7.388   3.147  17.078  0.6186 -0.1472 -0.2830
 1115TIP3    H127540   7.368   3.153  17.171 -1.1759 -2.7363 -0.4134
 1115TIP3    H227541   7.462   3.088  17.072  1.4427  0.8735 -0.4773
 1116TIP3   OH227542   7.624   1.641  16.166 -0.4463  0.3131  0.0820
 1116TIP3    H127543   7.584   1.631  16.080  2.1176 -0.4163 -1.1086
 1116TIP3    H227544   7.713   1.673  16.149  0.0942  0.2935  2.4580
 1117TIP3   OH227545   5.942   1.981  18.360  0.2751 -0.1066  0.0824
 1117TIP3    H127546   5.883   1.965  18.286  0.6759  0.2838 -0.3323
 1117TIP3    H227547   5.902   1.935  18.433  0.5742 -1.6347 -0.6818
 1118TIP3   OH227548   6.430   6.026  17.180  0.2699 -0.0860  0.2180
 1118TIP3    H127549   6.454   6.090  17.114 -1.5242 -0.3614 -0.7597
 1118TIP3    H227550   6.411   6.078  17.258  1.5379  0.3096  0.2872
 1119TIP3   OH227551   3.806   5.537  18.008 -0.2561  0.3130  0.4078
 1119TIP3    H127552   3.846   5.452  18.025  0.6751  0.8062  0.7403
 1119TIP3    H227553   3.833   5.592  18.082  2.4355  2.0077 -1.6044
 1120TIP3   OH227554   1.053   4.135  17.148 -0.5081 -0.4489 -0.2643
 1120TIP3    H127555   1.144   4.118  17.125  0.7914  1.5468  2.8134
 1120TIP3    H227556   1.039   4.228  17.128 -1.7776 -0.6463 -0.4199
 1121TIP3   OH227557   2.469   5.310  18.101 -0.0801 -0.2452 -0.9933
 1121TIP3    H127558   2.421   5.391  18.113 -1.4718 -1.2139  0.3130
 1121TIP3    H227559   2.486   5.277  18.189  2.5647 -0.2527 -1.3978
 1122TIP3   OH227560   5.368   0.789  16.777  0.4138 -0.3066  0.4881
 1122TIP3    H127561   5.318   0.717  16.738  0.1444 -0.4386  1.0754
 1122TIP3    H227562   5.354   0.780  16.871  0.8500  0.1707  0.6005
 1123TIP3   OH227563   3.047   3.852  17.677 -0.2466  0.3007 -0.5435
 1123TIP3    H127564   3.016   3.883  17.592 -2.6828 -0.5457 -0.0510
 1123TIP3    H227565   3.143   3.853  17.669 -0.3469 -1.4088 -3.9115
 1124TIP3   OH227566   5.586   2.413  18.546 -0.3213  0.4390 -0.2088
 1124TIP3    H127567   5.676   2.434  18.519 -0.5704 -0.8029 -2.2320
 1124TIP3    H227568   5.550   2.496  18.578  0.7274  1.5617 -1.8206
 1125TIP3   OH227569   4.833   2.914  17.112  0.2168 -0.1284 -0.1817
 1125TIP3    H127570   4.801   2.985  17.056 -0.1914 -1.2641 -1.4318
 1125TIP3    H227571   4.852   2.842  17.052  1.4829 -0.7992  0.9552
 1126TIP3   OH227572   3.724   7.320  17.595  0.0014  0.3442  0.2167
 1126TIP3    H127573   3.802   7.320  17.540 -0.5395 -0.1848 -0.5703
 1126TIP3    H227574   3.666   7.254  17.555 -0.8114  0.6700  0.8274
 1127TIP3   OH227575   4.817   2.815  18.051  0.9211  0.3111 -0.4778
 1127TIP3    H127576   4.833   2.879  17.982 -0.2556  0.6000 -0.4966
 1127TIP3    H227577   4.751   2.756  18.016  0.9781 -0.0903  0.0612
 1128TIP3   OH227578   5.398   6.539  18.694  0.3623 -0.2694  0.4672
 1128TIP3    H127579   5.318   6.534  18.640  1.3700 -0.4670 -1.0705
 1128TIP3    H227580   5.395   6.627  18.732 -0.5779 -0.2718  0.4344
 1129TIP3   OH227581   0.909   4.631  16.274  0.1410 -0.2545 -0.0709
 1129TIP3    H127582   0.986   4.575  16.271  1.8127  1.8794 -0.1880
 1129TIP3    H227583   0.929   4.696  16.341 -0.2888  2.0072 -1.9862
 1130TIP3   OH227584   2.270   1.151  17.233 -0.1819 -0.0885 -0.0140
 1130TIP3    H127585   2.206   1.202  17.184 -1.0871 -0.0756  1.1383
 1130TIP3    H227586   2.249   1.167  17.325  1.4182 -0.1766  0.4028
 1131TIP3   OH227587   2.919   5.189  16.859  0.3950  0.2153 -0.0312
 1131TIP3    H127588   2.882   5.159  16.942  0.8963  1.6065  0.7402
 1131TIP3    H227589   3.000   5.139  16.849  0.4885  0.2507  0.4941
 1132TIP3   OH227590   4.503   2.524  17.588  0.0685  0.3823 -0.3527
 1132TIP3    H127591   4.521   2.483  17.503 -0.0381  0.7615 -0.5597
 1132TIP3    H227592   4.540   2.612  17.581 -1.9567  1.2418 -0.8503
 1133TIP3   OH227593   5.071   1.953  17.945  0.0246 -0.5037 -0.0865
 1133TIP3    H127594   5.078   1.983  18.036 -0.0531  1.6554 -0.7342
 1133TIP3    H227595   5.157   1.971  17.907 -0.5417  0.5030 -0.9444
 1134TIP3   OH227596   4.049   6.343  15.832  0.1287 -0.2857 -0.1787
 1134TIP3    H127597   3.958   6.364  15.811  0.0067 -1.4946 -0.9284
 1134TIP3    H227598   4.047   6.251  15.856  0.7128  0.3381  2.6408
 1135TIP3   OH227599   5.912   7.535  17.556 -0.7072 -0.2637 -0.1433
 1135TIP3    H127600   5.868   7.473  17.615  0.4579 -1.7531 -0.7483
 1135TIP3    H227601   5.879   7.513  17.469  0.1858 -0.4877 -0.4405
 1136TIP3   OH227602   3.084   6.955  16.643 -0.3058 -0.6679 -0.1461
 1136TIP3    H127603   3.008   6.898  16.641 -1.4067  0.7694 -1.3261
 1136TIP3    H227604   3.099   6.972  16.736 -2.0056 -0.2469  0.0695
 1137TIP3   OH227605   7.038   6.330  18.366  0.2084  0.9726 -0.2795
 1137TIP3    H127606   7.115   6.289  18.326 -0.4039  0.6731 -1.1689
 1137TIP3    H227607   7.029   6.285  18.450 -0.4987 -0.8177 -1.2592
 1138TIP3   OH227608   4.281   3.398  16.471  0.0448 -0.0471  0.2085
 1138TIP3    H127609   4.337   3.473  16.451  1.9185 -1.3996  0.0963
 1138TIP3    H227610   4.226   3.388  16.394 -1.2168  1.9698  0.7579
 1139TIP3   OH227611   0.336   4.329  16.613  0.0743  0.7903  0.0767
 1139TIP3    H127612   0.386   4.260  16.570  0.7834  1.7643 -0.7219
 1139TIP3    H227613   0.286   4.370  16.542  0.9860  2.1969  0.1996
 1140TIP3   OH227614   5.090   0.347  16.422  0.0139 -0.2013  0.0187
 1140TIP3    H127615   5.181   0.374  16.437 -0.2413  2.1746 -2.1103
 1140TIP3    H227616   5.038   0.421  16.452 -1.4837 -2.2759  3.0632
 1141TIP3   OH227617   2.606   1.170  18.774  0.1880  0.0868 -0.1392
 1141TIP3    H127618   2.555   1.139  18.848  0.2023 -0.3166 -0.2963
 1141TIP3    H227619   2.595   1.103  18.707 -0.8912  1.0689 -0.9766
 1142TIP3   OH227620   5.299   5.619  17.140 -0.6036  0.2743  0.6145
 1142TIP3    H127621   5.219   5.672  17.149 -0.4923  0.5427  0.0574
 1142TIP3    H227622   5.273   5.545  17.086 -1.2005 -1.1918  2.7670
 1143TIP3   OH227623   0.457   6.937  17.165  0.0986  0.0286  0.0589
 1143TIP3    H127624   0.384   6.879  17.144  0.4655 -0.5958  0.4644
 1143TIP3    H227625   0.443   6.962  17.257 -0.0038  0.5089 -0.0845
 1144TIP3   OH227626   4.338   4.836  16.982  0.1547 -0.3349 -0.1866
 1144TIP3    H127627   4.374   4.919  16.950  0.1731 -0.8683 -1.6290
 1144TIP3    H227628   4.392   4.814  17.057 -0.1482  1.1803  0.5199
 1145TIP3   OH227629   3.258   1.270  16.758 -0.1863 -0.1491 -0.0509
 1145TIP3    H127630   3.330   1.270  16.821 -0.0500  1.4382 -0.1803
 1145TIP3    H227631   3.284   1.204  16.693  0.3704 -0.7490  0.7609
 1146TIP3   OH227632   3.839   3.040  18.284  0.1340 -0.2222  0.2058
 1146TIP3    H127633   3.846   3.126  18.244 -0.3199 -0.6449 -0.8180
 1146TIP3    H227634   3.924   3.026  18.326 -0.1073  1.0968  1.1910
 1147TIP3   OH227635   1.875   6.684  16.590  0.5981 -0.4018  0.1138
 1147TIP3    H127636   1.946   6.634  16.550 -0.3374 -1.8213  0.1584
 1147TIP3    H227637   1.919   6.745  16.649  1.9059  0.6174 -1.8209
 1148TIP3   OH227638   0.578   2.172  16.725  0.7455  0.4043  0.2916
 1148TIP3    H127639   0.616   2.088  16.753 -1.3632 -1.0761 -1.0326
 1148TIP3    H227640   0.652   2.220  16.688  1.7057 -1.6315 -0.5984
 1149TIP3   OH227641   0.380   4.631  17.891 -0.4073  0.0456  0.6344
 1149TIP3    H127642   0.433   4.669  17.821 -2.2650  0.6960 -0.4948
 1149TIP3    H227643   0.343   4.706  17.936 -3.8896 -0.1951 -1.4408
 1150TIP3   OH227644   4.143   1.496  17.324 -0.3443 -0.0185 -0.2166
 1150TIP3    H127645   4.226   1.463  17.289  0.5758  0.5140  1.3302
 1150TIP3    H227646   4.166   1.533  17.410 -2.0497  0.8903 -0.0961
 1151TIP3   OH227647   3.132   5.526  18.258  0.2204  0.1204 -0.4030
 1151TIP3    H127648   3.077   5.540  18.180 -0.9986  1.9601  0.7025
 1151TIP3    H227649   3.070   5.497  18.325  1.3337 -1.9164 -0.1812
 1152TIP3   OH227650   0.404   0.603  16.534  0.0125 -0.0420  0.2724
 1152TIP3    H127651   0.480   0.656  16.511  0.1213 -0.6443 -0.8663
 1152TIP3    H227652   0.430   0.513  16.511 -1.1450 -0.2175 -0.4387
 1153TIP3   OH227653   1.321   2.188  16.961 -0.0895 -0.0983  0.3670
 1153TIP3    H127654   1.276   2.243  16.897  0.8025  0.7829  0.4688
 1153TIP3    H227655   1.414   2.211  16.952  0.2183 -1.0331  0.9553
 1154TIP3   OH227656   6.282   6.828  17.752 -0.3453  0.5165  0.2923
 1154TIP3    H127657   6.273   6.890  17.679  0.3223 -0.9527 -1.0868
 1154TIP3    H227658   6.223   6.862  17.819 -1.8819  1.3091 -1.3742
 1155TIP3   OH227659   1.186   4.142  16.756 -0.2237 -0.0549 -0.1547
 1155TIP3    H127660   1.109   4.195  16.738  0.2734  0.0010 -2.5332
 1155TIP3    H227661   1.152   4.052  16.759 -0.5153  0.0500 -0.2471
 1156TIP3   OH227662   7.081   3.107  17.331  0.1894  0.0638 -0.3107
 1156TIP3    H127663   7.033   3.122  17.413  0.3803  0.4672 -0.2704
 1156TIP3    H227664   7.163   3.154  17.343  1.2686 -1.8177  0.2343
 1157TIP3   OH227665   3.725   4.546  16.464 -0.6050 -0.0190  0.2907
 1157TIP3    H127666   3.817   4.547  16.437 -0.5720 -0.7626  0.3770
 1157TIP3    H227667   3.691   4.463  16.432 -1.3044  0.3344  0.0929
 1158TIP3   OH227668   4.234   6.202  18.138  0.4723 -0.0820  0.1999
 1158TIP3    H127669   4.301   6.217  18.204  0.5624  0.0155  0.0850
 1158TIP3    H227670   4.263   6.252  18.062  1.9422 -2.4937 -0.9691
 1159TIP3   OH227671   2.857   4.997  16.008 -0.6397 -0.5378  0.5152
 1159TIP3    H127672   2.800   5.053  15.956  0.4151  0.4767  0.3930
 1159TIP3    H227673   2.799   4.957  16.072 -1.3543  1.2608  1.0705
 1160TIP3   OH227674   0.773   1.994  18.920  0.2013  0.4315 -0.1072
 1160TIP3    H127675   0.829   1.997  18.998  2.2855 -0.3433 -1.5136
 1160TIP3    H227676   0.832   1.972  18.848 -1.9115 -0.3618 -1.7031
 1161TIP3   OH227677   7.070   2.153  17.665 -0.2410  0.1875 -0.0665
 1161TIP3    H127678   7.049   2.077  17.720 -0.8818  1.5224  1.5921
 1161TIP3    H227679   7.038   2.228  17.714  0.8488  1.6018 -1.4349
 1162TIP3   OH227680   1.792   6.207  16.904 -0.4596  0.2323  0.0854
 1162TIP3    H127681   1.830   6.124  16.872 -0.8989  0.4274 -1.0109
 1162TIP3    H227682   1.790   6.198  16.999 -0.6860 -1.1108 -0.0248
 1163TIP3   OH227683   7.486   0.563  18.927 -0.0550  0.5462  0.0805
 1163TIP3    H127684   7.412   0.564  18.987 -0.3325  0.4221 -0.2590
 1163TIP3    H227685   7.448   0.582  18.841  0.5849  2.6556  0.2032
 1164TIP3   OH227686   0.606   7.527  18.291  0.1803  0.7073  0.6141
 1164TIP3    H127687   0.621   7.547  18.384  0.4535  0.0600  0.7195
 1164TIP3    H227688   0.542   7.592  18.262  2.6599  3.2688  0.3302
 1165TIP3   OH227689   0.720   2.023  18.141 -0.4809  0.8630 -0.3593
 1165TIP3    H127690   0.791   2.010  18.078 -1.2397 -0.8506 -0.9110
 1165TIP3    H227691   0.714   1.939  18.187 -0.8998  1.6201  1.0244
 1166TIP3   OH227692   2.750   7.270  17.544  0.2292 -0.4518 -0.6971
 1166TIP3    H127693   2.742   7.265  17.639 -0.0480  1.4703 -0.5684
 1166TIP3    H227694   2.747   7.179  17.514  1.4144 -1.1872  1.1971
 1167TIP3   OH227695   6.451   2.006  17.433  0.4915  0.4555 -0.2274
 1167TIP3    H127696   6.526   1.952  17.406  0.2783 -1.5918  2.8155
 1167TIP3    H227697   6.465   2.090  17.389  3.5996 -0.4249 -1.1813
 1168TIP3   OH227698   3.004   5.443  16.651 -0.2712 -0.4074  0.0092
 1168TIP3    H127699   2.981   5.362  16.697  0.1552 -0.1240  0.7372
 1168TIP3    H227700   3.060   5.415  16.579 -3.0707 -1.1727 -2.0360
 1169TIP3   OH227701   5.421   6.027  18.342 -0.9523 -0.0771  0.0686
 1169TIP3    H127702   5.424   5.951  18.285  1.0977 -0.3902  0.5056
 1169TIP3    H227703   5.466   5.999  18.422  0.1459  1.6564  0.1176
 1170TIP3   OH227704   6.610   5.883  16.406  1.0573  0.3804  0.4736
 1170TIP3    H127705   6.630   5.817  16.472  1.2046  0.2431  0.2927
 1170TIP3    H227706   6.693   5.929  16.392  1.8043 -1.4415 -1.6701
 1171TIP3   OH227707   0.377   2.654  16.176 -0.7397 -0.0445 -0.0885
 1171TIP3    H127708   0.394   2.743  16.144 -3.1930  0.6383  0.3081
 1171TIP3    H227709   0.404   2.655  16.268 -0.9550  0.3614 -0.0302
 1172TIP3   OH227710   5.540   3.470  17.093  0.0514 -0.1820  0.4529
 1172TIP3    H127711   5.514   3.382  17.065  0.1643 -0.5515  1.4750
 1172TIP3    H227712   5.610   3.494  17.033  0.4601 -1.0552  0.5688
 1173TIP3   OH227713   6.244   1.647  16.269 -0.1290 -0.1604 -0.3171
 1173TIP3    H127714   6.177   1.584  16.296 -0.4713  0.0144 -0.7365
 1173TIP3    H227715   6.295   1.664  16.348 -0.9634  0.1665  0.1714
 1174TIP3   OH227716   6.621   2.500  16.743 -0.1792  0.3068 -0.3011
 1174TIP3    H127717   6.688   2.494  16.676  0.1245  1.2813 -0.1008
 1174TIP3    H227718   6.541   2.521  16.695  0.1199  1.4151 -0.3258
 1175TIP3   OH227719   0.598   3.918  17.731 -0.6621 -0.4772 -0.7089
 1175TIP3    H127720   0.616   3.961  17.647 -3.1356 -0.7620 -1.4547
 1175TIP3    H227721   0.510   3.948  17.755 -0.4910 -1.3542  1.1920
 1176TIP3   OH227722   1.434   1.393  18.012 -0.3243  0.6195 -0.7125
 1176TIP3    H127723   1.527   1.392  17.990  0.2333  1.6920  1.3662
 1176TIP3    H227724   1.416   1.305  18.044  0.7367  1.1553  1.5450
 1177TIP3   OH227725   5.106   4.521  17.861  0.4197  0.4384 -0.0300
 1177TIP3    H127726   5.149   4.566  17.788  0.2503  0.3625 -0.1788
 1177TIP3    H227727   5.097   4.587  17.929  0.0026  0.6799 -0.3171
 1178TIP3   OH227728   3.517   0.477  17.629 -0.0615  0.0597 -0.5300
 1178TIP3    H127729   3.473   0.399  17.662  0.8774 -0.6243 -0.8395
 1178TIP3    H227730   3.480   0.489  17.541  0.8398 -0.9329 -1.0727
 1179TIP3   OH227731   2.103   0.392  18.176 -0.0818 -0.0570 -0.2831
 1179TIP3    H127732   2.021   0.385  18.127  0.6403 -1.1755 -1.3842
 1179TIP3    H227733   2.171   0.399  18.109  0.7931  0.0933  0.5898
 1180TIP3   OH227734   3.987   1.291  16.846 -0.1680  0.0062 -0.0333
 1180TIP3    H127735   3.991   1.348  16.769 -0.7633 -0.7767 -0.6601
 1180TIP3    H227736   3.902   1.311  16.886  0.1563  0.4368  0.4463
 1181TIP3   OH227737   3.865   3.139  17.205  0.5418 -0.6184  0.1097
 1181TIP3    H127738   3.909   3.122  17.122  0.6090 -3.1338  0.6025
 1181TIP3    H227739   3.774   3.156  17.181  0.6312 -0.9693 -0.4889
 1182TIP3   OH227740   6.310   7.680  17.208  0.5638 -0.8603  0.4853
 1182TIP3    H127741   6.398   7.685  17.244 -0.3625  1.4470  2.6762
 1182TIP3    H227742   6.284   7.771  17.192 -1.3608 -1.4773 -0.2931
 1183TIP3   OH227743   3.300   2.469  16.861 -0.2599  0.0592 -0.8525
 1183TIP3    H127744   3.220   2.521  16.863  0.6395  1.4707  0.3933
 1183TIP3    H227745   3.342   2.486  16.945  1.2904 -0.7429 -1.4230
 1184TIP3   OH227746   4.046   5.910  18.247 -0.0829  0.1105 -0.0546
 1184TIP3    H127747   4.022   5.953  18.329  0.5212 -0.3180  0.3577
 1184TIP3    H227748   4.035   5.978  18.180 -0.8541  0.3762  0.3375
 1185TIP3   OH227749   0.568   5.974  18.345 -0.3020  0.4622 -0.0375
 1185TIP3    H127750   0.519   6.021  18.414  0.2515  1.6513 -0.4237
 1185TIP3    H227751   0.553   5.882  18.365 -1.3289  0.7811  0.8394
 1186TIP3   OH227752   0.937   3.871  15.982 -0.0562 -0.2467  0.3443
 1186TIP3    H127753   0.985   3.810  15.927 -1.2002  0.2980 -1.3386
 1186TIP3    H227754   0.848   3.838  15.984 -0.7327  1.3580 -0.6968
 1187TIP3   OH227755   2.753   5.484  18.823 -0.4518  0.1612 -0.1032
 1187TIP3    H127756   2.742   5.564  18.771  0.7053  0.8999  0.7399
 1187TIP3    H227757   2.782   5.418  18.760 -1.4604  0.3791 -0.8189
 1188TIP3   OH227758   5.361   2.544  18.249  0.0176  0.5055 -0.1493
 1188TIP3    H127759   5.420   2.618  18.240 -0.3030  0.9044  0.8050
 1188TIP3    H227760   5.345   2.514  18.160  2.4140 -0.2398 -0.4098
 1189TIP3   OH227761   3.930   1.972  16.773 -0.6696 -0.0589  0.1534
 1189TIP3    H127762   3.851   1.925  16.799  0.6035 -2.7731 -0.5641
 1189TIP3    H227763   3.994   1.950  16.840 -0.0358  0.6651 -0.2070
 1190TIP3   OH227764   5.555   7.198  16.494  0.6517  0.0058 -0.8517
 1190TIP3    H127765   5.607   7.125  16.526  1.2259  1.0715  0.7380
 1190TIP3    H227766   5.594   7.276  16.534 -0.6619  1.0750 -1.5518
 1191TIP3   OH227767   7.008   0.109  17.651 -0.4262  0.2544 -0.2140
 1191TIP3    H127768   7.070   0.055  17.602 -2.1335 -2.6098  0.5355
 1191TIP3    H227769   6.950   0.145  17.584 -1.1333 -1.4557 -0.5685
 1192TIP3   OH227770   5.117   6.109  16.321  0.4506  0.1648  0.2730
 1192TIP3    H127771   5.178   6.035  16.314  0.0159 -0.2881  1.1875
 1192TIP3    H227772   5.031   6.069  16.328  0.1220  0.7864 -0.0631
 1193TIP3   OH227773   4.718   6.611  16.693 -0.1744  0.6778  0.5131
 1193TIP3    H127774   4.745   6.560  16.769 -0.6503 -1.3636 -0.6190
 1193TIP3    H227775   4.662   6.680  16.729 -0.4144 -0.2456  1.9996
 1194TIP3   OH227776   0.259   1.436  17.218  0.1064  0.0712 -0.1141
 1194TIP3    H127777   0.259   1.494  17.142 -2.9154 -1.0444 -1.0971
 1194TIP3    H227778   0.184   1.464  17.270 -0.7385 -2.1502 -0.0270
 1195TIP3   OH227779   5.040   0.964  18.827 -0.0951 -0.3049  0.2284
 1195TIP3    H127780   5.081   0.925  18.749 -0.7122  0.6963 -0.6279
 1195TIP3    H227781   5.032   0.892  18.889  1.3036 -0.9087 -0.2655
 1196TIP3   OH227782   4.329   1.025  17.752  0.4849 -0.3355  0.2828
 1196TIP3    H127783   4.306   0.997  17.841  0.9834 -0.0762  0.4938
 1196TIP3    H227784   4.411   0.979  17.732  0.7830  0.2049  0.2528
 1197TIP3   OH227785   5.158   2.634  15.863 -0.2214  0.1796 -0.4062
 1197TIP3    H127786   5.147   2.588  15.779 -1.9316  1.5020 -0.9727
 1197TIP3    H227787   5.097   2.708  15.857  0.6514  1.0929  1.4633
 1198TIP3   OH227788   6.032   5.768  17.032 -0.1187 -0.6364  0.1123
 1198TIP3    H127789   6.021   5.824  16.955 -1.5984 -0.6147  0.3086
 1198TIP3    H227790   5.957   5.790  17.088  0.5981 -1.0929  1.2810
 1199TIP3   OH227791   1.811   2.251  18.599 -0.0752 -0.1954  0.2946
 1199TIP3    H127792   1.817   2.160  18.630  2.2842  0.1059  0.9360
 1199TIP3    H227793   1.763   2.296  18.668  0.1580 -0.6576  0.7674
 1200TIP3   OH227794   0.852   2.168  17.437 -0.5706 -0.2016 -0.1645
 1200TIP3    H127795   0.879   2.082  17.470  0.5817  0.9574  2.2223
 1200TIP3    H227796   0.866   2.227  17.512  1.7435  2.6326 -2.5831
 1201TIP3   OH227797   1.951   2.637  16.371 -0.5337  0.0154 -0.4844
 1201TIP3    H127798   2.018   2.594  16.424 -0.2713  2.0583  0.9692
 1201TIP3    H227799   1.886   2.569  16.354  0.4928 -1.2771  0.5685
 1202TIP3   OH227800   0.246   2.427  18.439  0.3427 -0.1832 -0.0726
 1202TIP3    H127801   0.170   2.391  18.394 -1.0689 -0.5774  2.4756
 1202TIP3    H227802   0.295   2.350  18.470  0.7023  0.0830  0.0339
 1203TIP3   OH227803   3.781   0.164  15.924  0.7046 -0.0780 -0.2882
 1203TIP3    H127804   3.860   0.142  15.874  1.8004  0.9583  0.9306
 1203TIP3    H227805   3.807   0.157  16.015 -1.2955 -2.0572  0.2474
 1204TIP3   OH227806   2.049   5.736  18.437  0.0623 -0.1490  0.1339
 1204TIP3    H127807   2.127   5.735  18.491  0.9440 -0.3173 -1.1079
 1204TIP3    H227808   2.065   5.804  18.371 -1.1756  0.3700  0.3211
 1205TIP3   OH227809   7.668   4.742  17.930 -0.1236  0.3326  0.3592
 1205TIP3    H127810   7.754   4.756  17.889 -0.8951  1.5737 -0.9070
 1205TIP3    H227811   7.643   4.829  17.962 -0.2791 -0.2957  2.0652
 1206TIP3   OH227812   3.761   4.530  16.956  0.7025 -1.1232  0.4687
 1206TIP3    H127813   3.812   4.449  16.969  0.8535 -0.9631  0.8883
 1206TIP3    H227814   3.676   4.500  16.925  0.8500 -1.4299  0.3559
 1207TIP3   OH227815   6.577   2.693  17.165  0.3989  0.6659 -0.6227
 1207TIP3    H127816   6.541   2.779  17.187  0.1428  0.5562 -0.6098
 1207TIP3    H227817   6.535   2.633  17.227 -1.0294  0.2126 -1.9808
 1208TIP3   OH227818   6.029   1.472  16.274  0.0849  0.3969 -0.0776
 1208TIP3    H127819   6.026   1.428  16.189  0.2297  0.8304 -0.3048
 1208TIP3    H227820   5.989   1.409  16.334  0.9815 -0.3679 -0.2596
 1209TIP3   OH227821   2.176   6.418  17.419  0.2298 -0.2107  0.1753
 1209TIP3    H127822   2.169   6.455  17.332 -0.1855  0.9501  0.6843
 1209TIP3    H227823   2.143   6.328  17.410 -0.8403  0.2471 -0.6378
 1210TIP3   OH227824   6.780   1.700  17.969  0.4227  0.0685  0.2362
 1210TIP3    H127825   6.703   1.648  17.949  1.0450 -1.1451  0.8780
 1210TIP3    H227826   6.746   1.777  18.014 -0.3551 -0.8814  1.3263
 1211TIP3   OH227827   3.435   0.083  18.556  0.2466  0.1189 -0.6167
 1211TIP3    H127828   3.475  -0.004  18.557  1.1038  0.5005 -0.6411
 1211TIP3    H227829   3.418   0.103  18.648 -0.1618 -0.1621 -0.6289
 1212TIP3   OH227830   5.985   3.529  16.776  0.1952 -0.6401  0.6310
 1212TIP3    H127831   5.990   3.551  16.683  1.2445 -0.2429  0.7691
 1212TIP3    H227832   6.075   3.532  16.807 -0.3047  1.3892  2.1465
 1213TIP3   OH227833   4.933   0.570  16.540 -0.1571 -0.3164  0.2250
 1213TIP3    H127834   4.967   0.616  16.616  0.9002  0.8234 -0.8980
 1213TIP3    H227835   4.884   0.637  16.492  1.5514 -0.2656 -1.5283
 1214TIP3   OH227836   0.346   2.949  18.531 -0.6078  0.2014 -0.5928
 1214TIP3    H127837   0.268   2.992  18.496 -1.9843  0.1136  2.0846
 1214TIP3    H227838   0.341   2.859  18.499 -1.8580  0.0965 -0.1548
 1215TIP3   OH227839   0.189   1.108  18.259  0.3311  0.3343 -0.6281
 1215TIP3    H127840   0.222   1.099  18.170  1.2052  0.2228 -0.2981
 1215TIP3    H227841   0.100   1.073  18.255 -0.0492  1.3372 -1.6937
 1216TIP3   OH227842   4.147   4.820  17.458 -0.1518 -0.1631  0.3617
 1216TIP3    H127843   4.202   4.829  17.536  0.6301 -0.2021 -0.1840
 1216TIP3    H227844   4.087   4.894  17.462  0.8577  0.6764  0.2235
 1217TIP3   OH227845   7.153   4.345  16.775 -0.3789  0.5431  0.2441
 1217TIP3    H127846   7.160   4.340  16.680  0.3056 -1.3365  0.3580
 1217TIP3    H227847   7.191   4.430  16.797  1.1675  0.2334 -1.0269
 1218TIP3   OH227848   7.219   6.086  18.424  0.6806 -0.3182  0.4725
 1218TIP3    H127849   7.168   6.148  18.476 -0.3692 -1.6470  1.0703
 1218TIP3    H227850   7.158   6.016  18.403  2.0218 -1.5148  0.4316
 1219TIP3   OH227851   6.119   3.461  16.214 -0.2509  0.2560 -0.2538
 1219TIP3    H127852   6.166   3.540  16.242  0.8531  0.6632 -2.8756
 1219TIP3    H227853   6.062   3.491  16.143 -1.1753 -1.0223 -0.0868
 1220TIP3   OH227854   6.277   2.420  16.046  0.4142  0.5780 -0.5203
 1220TIP3    H127855   6.284   2.409  16.141  1.2601 -1.6949 -0.7930
 1220TIP3    H227856   6.195   2.378  16.023  0.4428  0.7044 -0.8502
 1221TIP3   OH227857   1.245   1.745  18.676 -0.2549 -0.1051 -0.0142
 1221TIP3    H127858   1.266   1.832  18.710  1.2387 -0.0701 -0.9048
 1221TIP3    H227859   1.312   1.688  18.715 -0.3293 -0.5833 -0.5838
 1222TIP3   OH227860   5.945   5.746  16.562  0.1949 -0.0877 -0.9276
 1222TIP3    H127861   5.863   5.738  16.513 -0.1286  1.5902 -0.7323
 1222TIP3    H227862   5.918   5.777  16.648  0.8693 -1.7402 -0.0657
 1223TIP3   OH227863   3.548   2.949  18.228  0.9619 -0.4984  0.0953
 1223TIP3    H127864   3.544   2.859  18.194 -1.2294 -0.3486 -0.2367
 1223TIP3    H227865   3.608   2.995  18.169 -0.3694 -1.0077 -1.7500
 1224TIP3   OH227866   0.404   4.890  18.356 -0.1891 -0.1533 -0.5310
 1224TIP3    H127867   0.342   4.959  18.377 -0.1573 -0.2168 -0.2265
 1224TIP3    H227868   0.375   4.857  18.271 -0.9362 -0.5855 -0.1248
 1225TIP3   OH227869   4.091   6.694  16.335  0.3316 -0.3318  0.1667
 1225TIP3    H127870   4.180   6.707  16.302 -0.1710 -0.2722 -1.2693
 1225TIP3    H227871   4.064   6.780  16.366  0.6398 -0.2664  0.2562
 1226TIP3   OH227872   3.106   6.276  18.210  0.3532 -0.0660 -0.3760
 1226TIP3    H127873   3.201   6.270  18.217  0.3135 -2.6239 -0.8763
 1226TIP3    H227874   3.076   6.185  18.213 -1.9995  0.5881 -1.5061
 1227TIP3   OH227875   0.202   0.460  17.788 -0.3402 -0.0889 -0.1152
 1227TIP3    H127876   0.188   0.365  17.796  0.2186 -0.2087 -0.4548
 1227TIP3    H227877   0.140   0.487  17.720 -0.6815 -0.1663  0.1639
 1228TIP3   OH227878   7.133   7.360  17.665 -0.0192  0.2758  0.4234
 1228TIP3    H127879   7.200   7.398  17.722  0.3691 -1.1544  0.9483
 1228TIP3    H227880   7.093   7.290  17.717  0.8373 -1.5706 -1.2559
 1229TIP3   OH227881   2.527   4.281  17.845 -0.6851 -0.2836  0.0401
 1229TIP3    H127882   2.495   4.213  17.786 -1.0335 -1.3527  1.3903
 1229TIP3    H227883   2.482   4.263  17.928  0.3844  0.6670  0.8608
 1230TIP3   OH227884   5.814   0.444  16.821 -0.6344 -0.0746 -0.2304
 1230TIP3    H127885   5.789   0.534  16.803 -0.0899  0.2522  0.6161
 1230TIP3    H227886   5.793   0.431  16.913  1.2254 -0.1469  0.2087
 1231TIP3   OH227887   0.385   3.930  17.386  0.1354 -0.6830  0.3188
 1231TIP3    H127888   0.362   4.020  17.411 -0.9008 -0.9440  0.3473
 1231TIP3    H227889   0.447   3.941  17.313  1.5229  0.0585  1.5413
 1232TIP3   OH227890   0.360   3.589  16.980 -0.2176  0.1056 -0.3961
 1232TIP3    H127891   0.455   3.598  16.974 -0.2268  1.7956  1.0424
 1232TIP3    H227892   0.346   3.535  17.058 -0.4627 -0.3408 -0.7409
 1233TIP3   OH227893   2.305   5.612  18.585 -0.0757  0.3502  1.1311
 1233TIP3    H127894   2.278   5.598  18.676  1.1937  1.8268  1.7964
 1233TIP3    H227895   2.371   5.681  18.591  0.2486  0.2659 -0.9016
 1234TIP3   OH227896   5.715   0.272  18.647 -0.3554  0.3866 -0.2793
 1234TIP3    H127897   5.768   0.278  18.726 -1.6198  0.2896  0.5941
 1234TIP3    H227898   5.674   0.186  18.651 -0.2292  0.2722 -1.1823
 1235TIP3   OH227899   3.056   5.037  17.134  0.2949 -0.2875  0.8434
 1235TIP3    H127900   3.039   4.946  17.157  0.6685 -0.5406  0.1372
 1235TIP3    H227901   3.151   5.042  17.122  0.2769  0.1927  0.8774
 1236TIP3   OH227902   4.798   5.698  17.008  0.1822 -0.2186  0.1062
 1236TIP3    H127903   4.785   5.608  16.979 -0.4537  0.0219 -0.3634
 1236TIP3    H227904   4.726   5.747  16.970  0.0726  0.3535  1.0062
 1237TIP3   OH227905   0.082   2.845  16.338  0.0435  0.0759  0.1773
 1237TIP3    H127906   0.041   2.770  16.381 -0.2844  0.1192 -0.0545
 1237TIP3    H227907   0.147   2.876  16.401 -2.1349  1.7143  1.7759
 1238TIP3   OH227908   3.617   6.214  17.064  0.1320 -0.1154 -0.0548
 1238TIP3    H127909   3.559   6.147  17.099  0.4391 -0.3193  0.0743
 1238TIP3    H227910   3.650   6.260  17.141 -1.2427  1.1919 -0.2035
 1239TIP3   OH227911   4.830   4.881  18.386 -0.7788 -0.0561 -0.4870
 1239TIP3    H127912   4.755   4.920  18.429  0.4494  1.9770 -0.0818
 1239TIP3    H227913   4.884   4.847  18.457 -1.9172 -2.8769 -0.8253
 1240TIP3   OH227914   3.621   1.464  18.698 -0.1688 -0.4580 -0.5448
 1240TIP3    H127915   3.556   1.394  18.709 -1.3571  0.7107  0.1601
 1240TIP3    H227916   3.569   1.544  18.692  1.2324  0.8215  2.3324
 1241TIP3   OH227917   0.242   4.379  16.344  0.3755 -0.1881 -0.5337
 1241TIP3    H127918   0.223   4.473  16.346 -0.2519 -0.3082 -0.6988
 1241TIP3    H227919   0.331   4.373  16.307  0.3339  0.3247 -0.7244
 1242TIP3   OH227920   7.443   3.482  17.353  0.4484 -0.3036  0.3647
 1242TIP3    H127921   7.489   3.505  17.272  0.3818  0.5655  0.5670
 1242TIP3    H227922   7.358   3.525  17.345  0.1309 -0.8926  0.5395
 1243TIP3   OH227923   7.183   3.168  16.657 -1.1256  0.0569  0.4681
 1243TIP3    H127924   7.143   3.139  16.575  0.1182  0.0135 -0.1539
 1243TIP3    H227925   7.239   3.095  16.683  1.4989  1.4990 -0.7513
 1244TIP3   OH227926   3.119   3.362  17.200 -0.0862  0.5810  0.3243
 1244TIP3    H127927   3.109   3.433  17.263  0.3999  1.2930 -0.3747
 1244TIP3    H227928   3.051   3.379  17.135 -0.2208  0.1781  0.3623
 1245TIP3   OH227929   6.816   5.383  16.420 -0.0385  0.1757  0.1993
 1245TIP3    H127930   6.898   5.420  16.386 -0.3240 -0.7448 -1.5954
 1245TIP3    H227931   6.747   5.440  16.386 -0.4929 -1.9328 -2.7276
 1246TIP3   OH227932   7.175   3.035  16.950 -0.4101  0.2738  0.2208
 1246TIP3    H127933   7.246   3.074  17.001  0.3469  0.3574 -0.8592
 1246TIP3    H227934   7.213   3.019  16.864 -1.0664 -1.7025  0.2479
 1247TIP3   OH227935   0.502   1.074  17.128  0.2551 -0.6982  0.1604
 1247TIP3    H127936   0.597   1.085  17.131  0.3345 -1.1583 -0.4199
 1247TIP3    H227937   0.484   1.008  17.195  0.3330 -0.5328  0.3439
 1248TIP3   OH227938   7.407   2.673  16.765  0.2326 -0.1835 -0.1952
 1248TIP3    H127939   7.473   2.670  16.834 -0.1263  0.8861  0.2259
 1248TIP3    H227940   7.330   2.631  16.805  0.2466 -0.2171 -0.2037
 1249TIP3   OH227941   2.809   2.031  18.157  0.2381 -0.0888 -0.0243
 1249TIP3    H127942   2.834   1.982  18.078 -0.2896  0.7204 -0.7106
 1249TIP3    H227943   2.891   2.051  18.200  0.6554  0.7210 -1.1491
 1250TIP3   OH227944   5.765   1.342  17.318  0.2231  0.1630 -0.4511
 1250TIP3    H127945   5.681   1.306  17.347 -0.7856  0.3218 -2.9410
 1250TIP3    H227946   5.830   1.290  17.365 -1.2417 -2.2606 -0.8921
 1251TIP3   OH227947   2.892   0.335  16.776 -0.1626 -0.3595  0.3442
 1251TIP3    H127948   2.831   0.408  16.775 -2.7852 -2.3174  1.9606
 1251TIP3    H227949   2.885   0.295  16.689 -2.6402 -1.5379  1.0003
 1252TIP3   OH227950   5.654   6.280  16.314  0.8043  0.1370  0.6287
 1252TIP3    H127951   5.590   6.212  16.292 -0.0933  0.8304  1.0691
 1252TIP3    H227952   5.618   6.324  16.390  0.1645  2.6610 -1.0222
 1253TIP3   OH227953   4.992   4.716  18.025 -0.4188 -0.0406  0.1367
 1253TIP3    H127954   5.052   4.790  18.027  0.0818 -0.3777 -1.2600
 1253TIP3    H227955   4.905   4.755  18.023 -0.1737  0.4982 -0.0461
 1254TIP3   OH227956   4.740   3.239  18.061 -0.0650  0.0838 -0.4366
 1254TIP3    H127957   4.739   3.319  18.009 -0.2651  1.8180  2.1093
 1254TIP3    H227958   4.656   3.239  18.107  1.0289 -0.0990  1.6816
 1255TIP3   OH227959   3.864   1.945  17.621 -0.2233  0.0576  0.5603
 1255TIP3    H127960   3.855   1.931  17.527 -2.4435 -0.4823  0.7951
 1255TIP3    H227961   3.824   2.031  17.637  0.7437  0.4528  0.9478
 1256TIP3   OH227962   0.940   3.660  18.197  0.4793  0.1903 -0.6182
 1256TIP3    H127963   1.005   3.723  18.165  0.5013  1.1641  1.1973
 1256TIP3    H227964   0.893   3.708  18.266  0.3087 -1.6876  0.6276
 1257TIP3   OH227965   0.247   4.669  16.393  0.3887  0.1311  0.2593
 1257TIP3    H127966   0.239   4.741  16.457  0.9522  0.9575 -0.5793
 1257TIP3    H227967   0.326   4.689  16.344  0.5391 -1.0696 -0.0108
 1258TIP3   OH227968   5.624   2.166  17.191 -0.0378 -0.0623 -0.8504
 1258TIP3    H127969   5.700   2.191  17.140 -0.4189  1.8154 -0.5813
 1258TIP3    H227970   5.660   2.128  17.271  0.7138  2.0570 -0.1042
 1259TIP3   OH227971   2.860   2.263  18.579 -0.3355  0.6694 -0.4877
 1259TIP3    H127972   2.768   2.240  18.593 -0.0336 -0.1723  0.2571
 1259TIP3    H227973   2.864   2.293  18.488 -0.8050 -2.4301 -1.6839
 1260TIP3   OH227974   3.309   0.823  17.732 -0.1874 -0.3417 -0.6766
 1260TIP3    H127975   3.242   0.887  17.756  0.9784  1.2756 -1.5210
 1260TIP3    H227976   3.383   0.845  17.788 -0.5078 -2.5423  0.7360
 1261TIP3   OH227977   4.444   6.946  17.786  0.0636  1.0817  0.4302
 1261TIP3    H127978   4.521   6.914  17.834  0.3203  0.7713 -0.1813
 1261TIP3    H227979   4.395   6.996  17.851  1.1524  1.9182  0.6525
 1262TIP3   OH227980   5.777   7.427  17.321  0.7649  0.1959 -0.0882
 1262TIP3    H127981   5.792   7.350  17.376  2.4094  2.3767  2.7452
 1262TIP3    H227982   5.685   7.449  17.335  1.0650  0.4920  1.5975
 1263TIP3   OH227983   1.174   6.141  17.229 -0.1703  0.8221 -0.1568
 1263TIP3    H127984   1.111   6.207  17.201 -1.3243 -0.4058 -0.5730
 1263TIP3    H227985   1.172   6.075  17.160  0.6137  0.1270  0.4651
 1264TIP3   OH227986   7.616   4.191  18.604  0.2905 -0.5312  0.6636
 1264TIP3    H127987   7.585   4.101  18.590 -0.0027 -0.3943  0.4223
 1264TIP3    H227988   7.562   4.224  18.676  0.2348 -0.4668  0.5915
 1265TIP3   OH227989   6.412   6.004  17.756 -0.1273 -0.0832 -0.8118
 1265TIP3    H127990   6.347   5.934  17.751 -0.9308  0.6971 -1.7368
 1265TIP3    H227991   6.460   5.998  17.673  0.9427 -0.5869 -0.1807
 1266TIP3   OH227992   0.810   2.500  17.905  0.1212  0.1010  1.1347
 1266TIP3    H127993   0.734   2.445  17.921  0.7860 -1.1297  0.2452
 1266TIP3    H227994   0.776   2.575  17.857 -0.7463  0.3241  2.0708
 1267TIP3   OH227995   7.188   2.164  18.061  0.1885  0.7997  0.6987
 1267TIP3    H127996   7.105   2.122  18.082  1.0622 -1.0284  0.6531
 1267TIP3    H227997   7.164   2.235  18.001 -1.2217 -0.5896 -0.4823
 1268TIP3   OH227998   2.460   1.554  18.745  0.1503 -0.3872  0.3103
 1268TIP3    H127999   2.548   1.591  18.734  0.5497 -1.2205  0.6213
 1268TIP3    H228000   2.426   1.598  18.823  0.1724  0.1503  0.0241
 1269TIP3   OH228001   3.355   4.051  18.552 -0.6650  0.2499 -0.1135
 1269TIP3    H128002   3.273   4.022  18.593 -0.5917 -0.0481 -0.1691
 1269TIP3    H228003   3.424   4.008  18.603 -0.4763  1.6027  0.8086
 1270TIP3   OH228004   3.027   0.181  18.369  0.0136  0.2320  0.7234
 1270TIP3    H128005   3.113   0.146  18.343 -0.6219  0.3528 -1.7843
 1270TIP3    H228006   2.984   0.107  18.412 -0.8433 -1.9730 -3.3985
 1271TIP3   OH228007   1.564   0.686  16.100 -0.4937 -0.0311 -0.0418
 1271TIP3    H128008   1.480   0.640  16.099  0.7367 -2.4277  0.2764
 1271TIP3    H228009   1.629   0.617  16.087  1.3673  2.0223 -2.4114
 1272TIP3   OH228010   2.583   1.464  18.051  0.5453  0.2172  0.2408
 1272TIP3    H128011   2.564   1.439  18.141 -0.4929  0.3436  0.0670
 1272TIP3    H228012   2.630   1.547  18.058 -0.0910  0.5476  0.6454
 1273TIP3   OH228013   5.469   0.298  18.131  0.7545 -0.2966 -0.2830
 1273TIP3    H128014   5.465   0.354  18.209  0.5787 -0.5863 -0.0831
 1273TIP3    H228015   5.562   0.293  18.109  0.6615  1.2486 -1.1518
 1274TIP3   OH228016   2.802   6.185  18.690  0.1736 -0.5989  0.1542
 1274TIP3    H128017   2.885   6.189  18.643  0.0687  1.0880  0.0585
 1274TIP3    H228018   2.816   6.118  18.757  3.2027  2.4086  2.9533
 1275TIP3   OH228019   7.065   5.556  17.337 -0.0936 -0.5080  0.0783
 1275TIP3    H128020   7.123   5.615  17.385 -1.7941  0.6474  0.8148
 1275TIP3    H228021   7.046   5.603  17.255 -0.4436 -0.6100  0.0999
 1276TIP3   OH228022   6.184   7.588  16.737 -0.2061 -0.3230 -0.1000
 1276TIP3    H128023   6.157   7.654  16.801 -0.5773 -1.3537  0.8609
 1276TIP3    H228024   6.131   7.511  16.759  1.8575 -1.7019  0.3758
 1277TIP3   OH228025   6.528   4.297  16.574  0.3683 -0.6556  0.3668
 1277TIP3    H128026   6.558   4.335  16.491 -0.0013 -1.1826 -0.0195
 1277TIP3    H228027   6.597   4.319  16.636  2.0560 -2.5846 -0.6823
 1278TIP3   OH228028   0.666   2.788  18.247 -0.1330  0.4555 -0.2413
 1278TIP3    H128029   0.622   2.864  18.286  0.5270  0.1706  1.1030
 1278TIP3    H228030   0.743   2.824  18.204 -0.1178  0.6088 -0.0851
 1279TIP3   OH228031   4.313   4.975  17.655 -0.1196 -0.1661  0.3924
 1279TIP3    H128032   4.367   5.006  17.728 -0.1649 -0.7856  0.6963
 1279TIP3    H228033   4.374   4.933  17.595 -0.2755 -0.9994  0.8082
 1280TIP3   OH228034   3.446   2.266  15.680 -0.3628  0.0196  0.2011
 1280TIP3    H128035   3.510   2.335  15.664 -1.7070  1.5366  1.0593
 1280TIP3    H228036   3.362   2.307  15.663 -1.1569 -1.8325 -0.5725
 1281TIP3   OH228037   7.621   6.667  16.283 -0.0446 -0.2214 -0.1829
 1281TIP3    H128038   7.530   6.639  16.286 -0.7947  1.8303 -1.3532
 1281TIP3    H228039   7.652   6.638  16.197  0.7183 -1.6255  0.5210
 1282TIP3   OH228040   5.630   4.820  17.076  0.4755  0.3761  0.0845
 1282TIP3    H128041   5.641   4.770  16.995  0.6941 -1.0237  0.9360
 1282TIP3    H228042   5.696   4.889  17.072  1.0706 -0.2168 -0.5487
 1283TIP3   OH228043   5.088   0.577  16.990  0.3185 -0.6583 -0.8108
 1283TIP3    H128044   5.032   0.613  17.059  2.1752 -0.5239  0.7168
 1283TIP3    H228045   5.046   0.495  16.965  0.3199 -1.4994  1.6104
 1284TIP3   OH228046   2.461   6.917  16.529 -0.4492  0.7023 -0.2577
 1284TIP3    H128047   2.493   6.883  16.445  1.1640  0.2120  0.5125
 1284TIP3    H228048   2.438   6.838  16.579  0.1595  0.9101  0.3509
 1285TIP3   OH228049   4.597   2.251  16.572  0.1416  0.2477  0.6444
 1285TIP3    H128050   4.646   2.332  16.557  1.2528 -0.2997  1.1343
 1285TIP3    H228051   4.629   2.191  16.505  0.7948 -0.3796  1.4868
 1286TIP3   OH228052   4.360   7.590  16.732 -0.2642 -0.6787  0.4924
 1286TIP3    H128053   4.376   7.626  16.645  0.0928  0.0688  0.8634
 1286TIP3    H228054   4.398   7.502  16.728 -0.4774 -0.7451 -0.1854
 1287TIP3   OH228055   3.678   7.191  15.792  0.2049 -0.0443  0.2433
 1287TIP3    H128056   3.646   7.245  15.720  1.1959  0.8731  0.4621
 1287TIP3    H228057   3.757   7.236  15.822  0.5491 -1.1383  1.0303
 1288TIP3   OH228058   6.217   6.659  16.206  0.3694  0.0415 -0.7577
 1288TIP3    H128059   6.204   6.741  16.252  1.0797  0.1004 -0.6423
 1288TIP3    H228060   6.190   6.592  16.269  0.6014  0.1542 -0.5346
 1289TIP3   OH228061   5.944   4.729  16.816 -0.3946  0.0318  0.4551
 1289TIP3    H128062   5.964   4.819  16.792 -0.0673 -0.0349  0.4754
 1289TIP3    H228063   5.849   4.722  16.806 -0.4167  0.3696  0.4244
 1290TIP3   OH228064   1.452   6.923  18.956 -0.1579 -0.1206 -0.4076
 1290TIP3    H128065   1.479   6.990  18.892 -1.1132 -2.1511 -3.1558
 1290TIP3    H228066   1.523   6.859  18.956 -1.0509 -1.1558 -1.0644
 1291TIP3   OH228067   5.914   2.274  17.676 -0.3145 -0.5194  0.2460
 1291TIP3    H128068   5.839   2.221  17.706  0.3603 -1.2099  0.7448
 1291TIP3    H228069   5.897   2.361  17.710 -1.3719 -0.4376 -0.4513
 1292TIP3   OH228070   2.413   7.234  17.976 -0.0614 -0.5442 -0.5682
 1292TIP3    H128071   2.391   7.314  18.024  2.8177  0.4340 -0.6404
 1292TIP3    H228072   2.391   7.163  18.036 -0.4872  0.4318  0.4644
 1293TIP3   OH228073   7.424   1.866  16.659 -0.3527 -0.5205 -1.0105
 1293TIP3    H128074   7.410   1.958  16.635 -0.2233 -0.8289 -2.3676
 1293TIP3    H228075   7.343   1.822  16.634  0.2445 -1.0646 -2.0525
 1294TIP3   OH228076   5.069   2.062  18.198 -0.1520  0.4976  0.2544
 1294TIP3    H128077   5.117   2.145  18.203  0.0323  0.3743  0.5726
 1294TIP3    H228078   5.008   2.065  18.272  0.5165 -0.0564  0.8453
 1295TIP3   OH228079   4.644   7.392  16.965 -0.2330 -0.1739  0.2579
 1295TIP3    H128080   4.710   7.414  17.031 -0.8083  0.1362  0.7341
 1295TIP3    H228081   4.584   7.332  17.010 -0.2765 -0.4627 -0.1753
 1296TIP3   OH228082   1.034   4.278  17.858 -0.7005 -0.3305 -0.1342
 1296TIP3    H128083   1.018   4.372  17.860  1.2351  0.0858 -1.2222
 1296TIP3    H228084   1.072   4.262  17.771 -0.1700 -1.9517  0.3513
 1297TIP3   OH228085   4.994   1.086  17.073 -0.3999  0.2460 -0.4732
 1297TIP3    H128086   5.040   1.081  16.989 -1.2201 -0.6638 -0.8826
 1297TIP3    H228087   5.065   1.092  17.138  0.3647 -1.9092 -1.0356
 1298TIP3   OH228088   7.124   0.731  18.661 -0.9315 -0.4062 -0.2150
 1298TIP3    H128089   7.206   0.688  18.683 -0.0422  0.3900 -1.8217
 1298TIP3    H228090   7.057   0.666  18.680  0.3676 -2.6349 -2.6793
 1299TIP3   OH228091   3.322   6.574  16.685  0.0195  0.3130  0.5049
 1299TIP3    H128092   3.318   6.481  16.663  0.2171  0.3611  0.2641
 1299TIP3    H228093   3.249   6.588  16.745  0.4652 -0.1739  1.1788
 1300TIP3   OH228094   7.591   1.786  18.054 -0.0550  0.3278  0.7319
 1300TIP3    H128095   7.522   1.773  17.988  0.4862  0.2559  0.1730
 1300TIP3    H228096   7.672   1.764  18.008  0.3101  0.0483  1.4964
 1301TIP3   OH228097   3.100   1.403  16.001  0.0786 -0.3047  0.2602
 1301TIP3    H128098   3.168   1.451  15.955  0.2973 -1.4637 -0.6836
 1301TIP3    H228099   3.040   1.374  15.933 -0.8193 -0.1751  0.9676
 1302TIP3   OH228100   5.037   3.479  16.051 -0.1934 -0.2032 -0.3910
 1302TIP3    H128101   5.129   3.470  16.074 -0.4791  0.6533  1.2085
 1302TIP3    H228102   5.029   3.571  16.023 -0.4943 -0.3958 -0.9630
 1303TIP3   OH228103   1.561   0.160  17.829 -0.2350 -0.5787  0.0089
 1303TIP3    H128104   1.521   0.197  17.749  1.5737  1.2217 -0.1444
 1303TIP3    H228105   1.606   0.081  17.799 -0.7445 -0.6901 -0.4770
 1304TIP3   OH228106   7.654   3.843  16.718  0.6206 -0.7039  0.1101
 1304TIP3    H128107   7.622   3.843  16.808  2.3736  2.3446  0.8781
 1304TIP3    H228108   7.749   3.834  16.727  0.8735  0.1728 -1.3662
 1305TIP3   OH228109   6.157   0.491  16.930 -0.0583  0.2525  0.1880
 1305TIP3    H128110   6.089   0.559  16.935 -0.6493 -0.3959  1.5962
 1305TIP3    H228111   6.220   0.515  16.998 -0.4525 -0.7706  0.9360
 1306TIP3   OH228112   0.226   0.917  18.454 -0.0338  0.1689  0.3929
 1306TIP3    H128113   0.220   1.006  18.420  2.8073  0.1113 -0.5475
 1306TIP3    H228114   0.154   0.871  18.412 -1.6626  2.0148  1.0310
 1307TIP3   OH228115   0.422   1.711  18.170 -0.2721 -0.6723  0.4979
 1307TIP3    H128116   0.388   1.646  18.232 -0.6510  0.5468  1.6453
 1307TIP3    H228117   0.343   1.752  18.134 -0.0616  0.2018  0.9878
 1308TIP3   OH228118   3.993   0.652  17.827 -0.2018  0.8117  0.4361
 1308TIP3    H128119   3.900   0.630  17.832 -0.0853 -0.0063 -0.8387
 1308TIP3    H228120   4.000   0.735  17.875 -1.7273  1.2995 -0.1333
 1309TIP3   OH228121   1.278   1.164  17.364 -0.0919 -0.0537  0.5820
 1309TIP3    H128122   1.202   1.173  17.421 -1.7031 -0.3687 -1.4089
 1309TIP3    H228123   1.343   1.225  17.400 -1.3652  0.4168  2.1760
 1310TIP3   OH228124   6.979   5.994  18.267  0.9180 -0.1642  0.3535
 1310TIP3    H128125   7.055   5.940  18.247  0.7286 -0.1139 -0.5549
 1310TIP3    H228126   6.934   6.004  18.183 -0.2463 -0.4238  0.9316
 1311TIP3   OH228127   4.415   3.825  17.023 -0.7336 -0.4069  0.1137
 1311TIP3    H128128   4.401   3.891  17.091 -0.0545  1.8017 -1.7537
 1311TIP3    H228129   4.485   3.861  16.969  0.3290 -3.1339 -0.5096
 1312TIP3   OH228130   4.791   5.788  17.272 -0.4746  0.0118 -0.2637
 1312TIP3    H128131   4.780   5.751  17.185 -0.3081 -0.9656  0.1197
 1312TIP3    H228132   4.735   5.865  17.273 -0.9504 -0.3198 -1.0278
 1313TIP3   OH228133   4.149   1.359  18.907 -0.2808  0.2740  0.6968
 1313TIP3    H128134   4.172   1.303  18.833  0.7278  2.5010 -0.8143
 1313TIP3    H228135   4.071   1.406  18.877 -1.6002 -0.8103  2.2526
 1314TIP3   OH228136   4.784   4.769  17.526 -0.1407  0.0125  0.2396
 1314TIP3    H128137   4.851   4.835  17.544 -0.8052  0.5175  0.9526
 1314TIP3    H228138   4.823   4.712  17.460  1.1875  0.0034  0.9905
 1315TIP3   OH228139   3.557   1.749  18.226 -0.4297  0.2429 -0.0496
 1315TIP3    H128140   3.523   1.814  18.287  1.3207  1.3576 -0.1672
 1315TIP3    H228141   3.651   1.767  18.223 -0.2635 -0.6828 -2.0106
 1316TIP3   OH228142   1.302   5.704  16.959 -0.1966  0.3417  0.0257
 1316TIP3    H128143   1.391   5.670  16.957 -0.9687 -1.7562 -1.0017
 1316TIP3    H228144   1.255   5.648  17.020 -1.0434  0.8457 -0.1334
 1317TIP3   OH228145   5.473   5.656  16.275 -0.1423  0.4360 -0.2014
 1317TIP3    H128146   5.435   5.663  16.362  1.1732  1.4325  0.3353
 1317TIP3    H228147   5.567   5.645  16.291  0.2207  1.4308 -1.4825
 1318TIP3   OH228148   7.306   4.541  16.117 -0.1675  0.3056 -0.6895
 1318TIP3    H128149   7.212   4.524  16.107 -0.1318  0.6478 -1.7668
 1318TIP3    H228150   7.311   4.603  16.190 -0.7597  0.1011 -0.4663
 1319TIP3   OH228151   2.447   0.644  18.153 -0.2761  0.3523  0.6677
 1319TIP3    H128152   2.471   0.584  18.082 -0.6108  1.3340 -0.2967
 1319TIP3    H228153   2.511   0.626  18.222  0.9429  0.3718 -0.4333
 1320TIP3   OH228154   1.763   7.260  18.218 -0.1804 -0.8690 -1.1051
 1320TIP3    H128155   1.681   7.215  18.200  0.0786 -1.4944 -0.7753
 1320TIP3    H228156   1.760   7.280  18.312 -0.1864 -0.4130 -1.2004
 1321TIP3   OH228157   6.649   0.867  16.610 -0.0125  0.3421 -0.2251
 1321TIP3    H128158   6.582   0.883  16.677 -1.0603 -2.5097 -0.4502
 1321TIP3    H228159   6.732   0.880  16.656 -0.6618  2.7028  0.3995
 1322TIP3   OH228160   6.955   2.559  17.319  0.7358  0.0995  1.0284
 1322TIP3    H128161   6.978   2.629  17.380  0.4953 -0.7291  2.1174
 1322TIP3    H228162   6.953   2.480  17.374  0.0200 -0.6000  0.0330
 1323TIP3   OH228163   4.165   1.104  16.979  0.3336 -0.3189  0.2636
 1323TIP3    H128164   4.096   1.165  16.953  2.3804  1.2800 -1.8245
 1323TIP3    H228165   4.181   1.124  17.071  0.1116  1.5150 -0.0544
 1324TIP3   OH228166   7.146   0.956  17.023  0.2761  1.1239 -0.1128
 1324TIP3    H128167   7.094   0.952  17.103 -0.6180  3.8353 -0.4618
 1324TIP3    H228168   7.082   0.945  16.953  1.0624 -1.3118 -0.5512
 1325TIP3   OH228169   6.865   4.385  18.365  0.1325  0.2764  0.1884
 1325TIP3    H128170   6.953   4.376  18.327 -0.2049  1.9078 -1.1244
 1325TIP3    H228171   6.808   4.334  18.308 -0.2540  2.0933 -1.1636
 1326TIP3   OH228172   7.060   2.480  18.702  0.0972 -0.2810 -0.3040
 1326TIP3    H128173   7.090   2.523  18.782  0.0499  1.7985 -1.3205
 1326TIP3    H228174   7.017   2.400  18.732 -0.0861  0.5329  1.7592
 1327TIP3   OH228175   6.423   4.784  17.630 -0.4300  0.5282  0.5842
 1327TIP3    H128176   6.427   4.845  17.556 -2.0371  0.0554  0.0722
 1327TIP3    H228177   6.386   4.836  17.702  0.6495  0.8459  0.9281
 1328TIP3   OH228178   1.583   1.240  17.153  0.5522  0.4168 -0.1531
 1328TIP3    H128179   1.557   1.263  17.242 -0.7063 -0.7708 -0.1624
 1328TIP3    H228180   1.651   1.173  17.164 -2.4721 -2.9639  0.1439
 1329TIP3   OH228181   3.421   5.386  17.086  0.9486 -0.3109  0.7639
 1329TIP3    H128182   3.392   5.327  17.156 -0.2874 -0.9999 -0.3009
 1329TIP3    H228183   3.514   5.364  17.075  0.6305 -1.7668  0.7088
 1330TIP3   OH228184   0.726   5.550  18.751 -0.6179  0.4398 -0.0631
 1330TIP3    H128185   0.688   5.577  18.668 -1.2612  0.6602  0.2946
 1330TIP3    H228186   0.792   5.616  18.770  0.5531 -0.3943 -1.0974
 1331TIP3   OH228187   4.456   2.330  16.939 -0.3503  0.2397 -0.4494
 1331TIP3    H128188   4.547   2.337  16.971 -0.6717 -2.3898  1.3679
 1331TIP3    H228189   4.462   2.274  16.862 -0.3336  1.0676 -1.0648
 1332TIP3   OH228190   0.784   2.165  17.756 -0.6154 -0.1464 -0.3753
 1332TIP3    H128191   0.816   2.092  17.809  1.6541  2.0272  1.4959
 1332TIP3    H228192   0.720   2.209  17.812 -0.1761  0.6498 -0.4822
 1333TIP3   OH228193   3.771   0.958  17.628  0.7210  0.5891  0.0594
 1333TIP3    H128194   3.758   1.023  17.559  0.2120 -0.0558 -0.4652
 1333TIP3    H228195   3.844   0.904  17.597 -0.6336 -0.8020 -0.8514
 1334TIP3   OH228196   1.201   7.013  17.541  0.0333 -0.1074  0.0861
 1334TIP3    H128197   1.134   7.033  17.475 -0.7665  2.0476  1.4327
 1334TIP3    H228198   1.155   7.024  17.625  1.6909 -0.1673  1.0338
 1335TIP3   OH228199   4.521   7.134  16.203  0.2241  0.0795  0.0705
 1335TIP3    H128200   4.484   7.160  16.119 -0.1889 -0.2082  0.1564
 1335TIP3    H228201   4.521   7.214  16.255  1.0123  0.3820 -0.3838
 1336TIP3   OH228202   1.332   4.253  16.938 -0.0811 -0.2505 -0.0485
 1336TIP3    H128203   1.385   4.184  16.979  0.1845 -0.1648 -0.2404
 1336TIP3    H228204   1.285   4.209  16.868  0.5863 -0.1200 -0.5958
 1337TIP3   OH228205   6.047   4.678  16.567  0.4599  0.6139 -0.6123
 1337TIP3    H128206   6.011   4.591  16.550  2.3182 -0.4859  0.6765
 1337TIP3    H228207   6.009   4.704  16.650  0.4132  0.7355 -0.6720
 1338TIP3   OH228208   1.736   4.474  18.169  0.1621 -0.7104 -0.2960
 1338TIP3    H128209   1.686   4.555  18.159 -1.5999 -1.2754  2.7174
 1338TIP3    H228210   1.672   4.410  18.200  2.4574 -1.7439  2.8754
 1339TIP3   OH228211   2.820   4.823  17.967  0.0374  0.0629 -0.1556
 1339TIP3    H128212   2.851   4.883  17.899  0.3245  0.8200  0.6238
 1339TIP3    H228213   2.876   4.746  17.959  2.0599  1.3092  1.0827
 1340TIP3   OH228214   1.343   6.310  18.255  0.1903  0.0165 -0.0063
 1340TIP3    H128215   1.263   6.264  18.281 -0.0480  0.5634  0.2482
 1340TIP3    H228216   1.312   6.396  18.225  0.7640  0.6794  1.2200
 1341TIP3   OH228217   4.725   0.796  16.980  0.6911 -0.6790 -0.0477
 1341TIP3    H128218   4.640   0.813  16.940  1.3646 -1.9420 -2.1437
 1341TIP3    H228219   4.729   0.700  16.987  1.9318 -0.6356  0.0403
 1342TIP3   OH228220   1.306   0.932  17.216 -0.8369  0.2853  0.5464
 1342TIP3    H128221   1.284   1.013  17.263 -2.4486 -0.5586  1.3483
 1342TIP3    H228222   1.385   0.900  17.258 -0.9439  0.7688  1.1311
 1343TIP3   OH228223   6.042   1.935  17.615 -0.4195  0.5921 -0.5883
 1343TIP3    H128224   6.075   1.989  17.688  0.3251 -1.0138  0.3005
 1343TIP3    H228225   5.962   1.980  17.588 -0.3482  1.6209  0.7587
 1344TIP3   OH228226   4.685   2.726  18.538  0.2541 -0.5578  0.1500
 1344TIP3    H128227   4.639   2.739  18.620 -0.8020  0.5776 -0.5875
 1344TIP3    H228228   4.637   2.779  18.475  1.6344 -0.6162 -0.9938
 1345TIP3   OH228229   6.203   0.957  18.184  0.4693 -0.3362 -0.2916
 1345TIP3    H128230   6.230   0.872  18.217  0.2966 -0.7145 -1.1058
 1345TIP3    H228231   6.107   0.952  18.180 -0.0990  1.6152  4.3379
 1346TIP3   OH228232   6.088   1.108  17.044  0.4312 -0.3419 -0.3487
 1346TIP3    H128233   6.065   1.070  17.129  0.8662  1.7841  0.7968
 1346TIP3    H228234   6.023   1.177  17.030  1.4213  0.5246 -0.8363
 1347TIP3   OH228235   4.715   2.141  18.843 -0.7293 -0.2928  0.0179
 1347TIP3    H128236   4.643   2.200  18.868 -0.7007 -0.1160 -0.3045
 1347TIP3    H228237   4.790   2.172  18.894 -0.4495  0.6156 -0.8808
 1348TIP3   OH228238   6.619   0.624  16.488  0.4414 -0.1638 -0.3484
 1348TIP3    H128239   6.703   0.586  16.514  0.6425 -0.3976 -1.3070
 1348TIP3    H228240   6.619   0.710  16.529 -0.2754 -1.3428  2.3347
 1349TIP3   OH228241   7.572   2.927  16.048  0.3969  0.1220 -0.0216
 1349TIP3    H128242   7.629   2.954  16.120 -0.3652  0.5151  0.4483
 1349TIP3    H228243   7.603   2.978  15.973  1.2455 -0.3501  0.0009
 1350TIP3   OH228244   3.686   4.526  17.528  0.0265 -0.7570  0.1584
 1350TIP3    H128245   3.718   4.561  17.444  1.5541 -2.4051 -0.0175
 1350TIP3    H228246   3.739   4.570  17.594 -1.0639  0.4206  0.2711
 1351TIP3   OH228247   0.236   7.326  18.848  0.0145 -0.1654  0.0241
 1351TIP3    H128248   0.249   7.380  18.770 -1.0457 -0.9256 -0.7067
 1351TIP3    H228249   0.325   7.309  18.880  0.4091  1.2778 -0.2109
 1352TIP3   OH228250   2.782   2.637  18.720 -0.6247 -0.3444 -0.4579
 1352TIP3    H128251   2.719   2.565  18.727 -1.3663  0.3615  0.2386
 1352TIP3    H228252   2.729   2.715  18.709  0.1983 -0.0769 -3.4306
 1353TIP3   OH228253   3.690   0.442  16.542  0.4345  0.4249 -0.4910
 1353TIP3    H128254   3.685   0.435  16.447 -0.6418  0.9456 -0.4847
 1353TIP3    H228255   3.762   0.384  16.567  0.9358  0.5423 -1.6451
 1354TIP3   OH228256   4.432   5.129  17.345  0.2270  0.2012  0.0672
 1354TIP3    H128257   4.388   5.209  17.374 -0.0496  0.1346 -0.1561
 1354TIP3    H228258   4.362   5.076  17.307  0.4277 -0.1002  0.1151
 1355TIP3   OH228259   3.730   1.195  18.401  0.1970  0.3234  0.0046
 1355TIP3    H128260   3.760   1.279  18.435 -0.9022  0.5375  0.4604
 1355TIP3    H228261   3.768   1.191  18.313  1.0687  0.8405  0.3353
 1356TIP3   OH228262   0.325   6.239  17.575  0.8240  0.2909  0.3791
 1356TIP3    H128263   0.392   6.234  17.507  0.8012  0.7163  0.3245
 1356TIP3    H228264   0.368   6.285  17.648  0.4607  0.9795  0.1724
 1357TIP3   OH228265   3.520   6.395  18.444 -0.1591 -0.1458 -0.2438
 1357TIP3    H128266   3.524   6.403  18.539 -2.3952  0.5952 -0.1338
 1357TIP3    H228267   3.588   6.454  18.412  1.8246 -1.7118  0.8462
 1358TIP3   OH228268   6.407   5.761  17.251  0.8658 -1.6128  0.1475
 1358TIP3    H128269   6.496   5.732  17.266  1.0073 -0.5518  1.5802
 1358TIP3    H228270   6.417   5.846  17.207  0.4863 -2.8839 -2.5819
 1359TIP3   OH228271   4.674   5.137  15.696 -0.1526  0.4055  0.2624
 1359TIP3    H128272   4.650   5.048  15.672 -1.7186  1.2527 -1.5452
 1359TIP3    H228273   4.592   5.177  15.726  0.3597  1.4661  0.2890
 1360TIP3   OH228274   5.220   7.269  16.607 -0.5537  0.1035  0.3066
 1360TIP3    H128275   5.237   7.175  16.603 -2.0430 -0.1433 -2.1405
 1360TIP3    H228276   5.191   7.293  16.519  0.0071  2.9261  0.7709
 1361TIP3   OH228277   3.191   3.090  16.816 -0.7773  0.2014 -0.4146
 1361TIP3    H128278   3.281   3.059  16.821 -0.7457 -0.7803 -4.0311
 1361TIP3    H228279   3.151   3.063  16.899  1.7147 -1.0892  0.4584
 1362TIP3   OH228280   7.282   6.602  18.397  0.2977  0.5849 -0.2419
 1362TIP3    H128281   7.188   6.612  18.381  0.4468 -0.0070 -1.6253
 1362TIP3    H228282   7.289   6.527  18.455 -0.0638  0.4133 -0.4234
 1363TIP3   OH228283   6.069   0.488  17.794  0.0773 -0.2537 -0.1244
 1363TIP3    H128284   6.037   0.572  17.760  0.2740 -0.5341 -1.0167
 1363TIP3    H228285   6.018   0.422  17.747 -1.1206 -0.6342  1.6238
 1364TIP3   OH228286   3.609   0.828  17.314  0.0049 -0.5869 -0.1696
 1364TIP3    H128287   3.630   0.919  17.290 -1.4201 -0.2992 -0.4202
 1364TIP3    H228288   3.675   0.776  17.269  0.4841  0.2855 -0.5152
 1365TIP3   OH228289   7.247   7.544  18.775  0.2173 -0.7018 -0.2644
 1365TIP3    H128290   7.280   7.474  18.830  0.8904 -1.0646 -1.1040
 1365TIP3    H228291   7.261   7.624  18.825 -1.0673 -1.1857  0.9400
 1366TIP3   OH228292   2.268   6.615  17.903  0.2408 -0.1277  0.2435
 1366TIP3    H128293   2.226   6.539  17.944  0.8750 -1.2703 -1.1170
 1366TIP3    H228294   2.241   6.689  17.957  0.9445 -1.4957  2.6678
 1367TIP3   OH228295   6.683   5.020  16.469  0.5809  0.1872 -0.1375
 1367TIP3    H128296   6.675   4.925  16.467  0.0506  0.2390 -1.5098
 1367TIP3    H228297   6.648   5.045  16.555  2.1045 -0.9401  0.8628
 1368TIP3   OH228298   0.535   2.929  16.393 -0.1064  0.5273 -0.2068
 1368TIP3    H128299   0.521   2.980  16.313 -0.4328  1.1446  0.2414
 1368TIP3    H228300   0.623   2.954  16.422  0.9245 -1.2974 -1.5170
 1369TIP3   OH228301   5.576   0.460  17.834 -0.4104  0.5279 -0.0842
 1369TIP3    H128302   5.603   0.523  17.901  1.2206  0.6161 -0.7809
 1369TIP3    H228303   5.622   0.488  17.755  1.9204 -2.5767 -0.0158
 1370TIP3   OH228304   3.428   2.042  16.740 -0.2221  0.5273  0.3047
 1370TIP3    H128305   3.470   2.109  16.686  0.5882  0.6534  1.0641
 1370TIP3    H228306   3.352   2.086  16.778  0.8013  1.3425  1.5224
 1371TIP3   OH228307   0.328   1.415  18.797  0.2815 -0.5957 -0.1434
 1371TIP3    H128308   0.313   1.321  18.798 -2.1582 -0.3036 -1.3423
 1371TIP3    H228309   0.274   1.448  18.869  0.2631 -0.0307 -0.4108
 1372TIP3   OH228310   6.841   7.431  18.525  0.5449 -0.1817  0.0941
 1372TIP3    H128311   6.919   7.376  18.518 -0.1986 -1.1192 -1.4190
 1372TIP3    H228312   6.769   7.370  18.536 -0.0068  0.6759  1.5909
 1373TIP3   OH228313   4.709   6.047  18.208  0.8551  0.3830  0.2107
 1373TIP3    H128314   4.700   6.140  18.185  0.4281  0.4138  0.4886
 1373TIP3    H228315   4.656   6.037  18.287  0.3056 -0.2568 -0.2325
 1374TIP3   OH228316   7.418   2.298  17.079  0.0430  0.7133 -0.1219
 1374TIP3    H128317   7.329   2.304  17.112  0.0962  0.9726 -0.0250
 1374TIP3    H228318   7.455   2.221  17.124 -0.3561  0.1677 -0.7075
 1375TIP3   OH228319   0.531   7.095  16.955 -0.9678  0.5108 -0.5316
 1375TIP3    H128320   0.519   7.046  17.036 -1.1408  0.0802 -0.8185
 1375TIP3    H228321   0.561   7.181  16.984  1.9828 -0.5522 -0.1163
 1376TIP3   OH228322   2.100   6.749  15.814 -0.0523  0.1705  0.6013
 1376TIP3    H128323   2.168   6.701  15.767 -3.1796 -1.0853 -3.2589
 1376TIP3    H228324   2.121   6.841  15.800  0.5040 -0.1871 -1.1554
 1377TIP3   OH228325   7.639   0.066  17.828 -0.0092  0.2173 -0.5681
 1377TIP3    H128326   7.587   0.011  17.886 -0.5510  1.6948  0.3923
 1377TIP3    H228327   7.730   0.050  17.854 -0.3088  2.1378  1.9298
 1378TIP3   OH228328   2.611   5.261  18.943  0.2851  0.0572  0.5473
 1378TIP3    H128329   2.661   5.342  18.956 -0.5918  0.5471  1.0006
 1378TIP3    H228330   2.520   5.288  18.953 -0.0850 -0.7880 -0.3928
 1379TIP3   OH228331   1.827   3.808  16.639  0.4210  0.1895 -0.3809
 1379TIP3    H128332   1.825   3.903  16.639  0.6546  0.2036 -1.4176
 1379TIP3    H228333   1.749   3.782  16.690  0.2892  0.9244 -0.2043
 1380TIP3   OH228334   3.640   0.715  18.010 -0.4698  0.2222  0.2327
 1380TIP3    H128335   3.555   0.718  18.053 -0.1979  1.9588  0.7535
 1380TIP3    H228336   3.696   0.773  18.063  0.6940  0.0670 -0.7713
 1381TIP3   OH228337   4.182   5.405  16.858  0.6570 -0.3527 -0.0807
 1381TIP3    H128338   4.108   5.453  16.820 -2.1458 -3.6756  0.6841
 1381TIP3    H228339   4.232   5.374  16.783 -0.2274 -0.1866 -0.7526
 1382TIP3   OH228340   0.581   1.686  17.485  0.5122 -0.5672 -0.7174
 1382TIP3    H128341   0.619   1.599  17.477 -1.0959 -1.2754 -1.2424
 1382TIP3    H228342   0.487   1.672  17.475  0.4045  1.6657 -4.9058
 1383TIP3   OH228343   3.469   0.227  17.411 -0.1714 -0.1579 -0.0119
 1383TIP3    H128344   3.401   0.165  17.384 -1.0770  0.1143  1.5491
 1383TIP3    H228345   3.426   0.312  17.409  0.3633  0.1202  0.1720
 1384TIP3   OH228346   7.554   3.753  16.964 -0.4101  0.5952  0.5456
 1384TIP3    H128347   7.459   3.740  16.962 -0.4708  1.1005 -1.1683
 1384TIP3    H228348   7.590   3.664  16.966 -0.9138  0.3622 -0.2497
 1385TIP3   OH228349   7.135   7.362  16.681  0.3789  0.1231 -0.0321
 1385TIP3    H128350   7.066   7.347  16.746 -0.3121  0.6696 -0.6268
 1385TIP3    H228351   7.199   7.417  16.728 -0.3728  0.9635  0.0480
 1386TIP3   OH228352   1.787   4.216  16.210 -0.3022  0.0114  0.4860
 1386TIP3    H128353   1.870   4.209  16.258 -0.6372 -0.9711  0.9693
 1386TIP3    H228354   1.749   4.128  16.217 -0.8471  0.1381 -0.7171
 1387TIP3   OH228355   2.045   0.670  17.908 -0.3074 -0.0606  0.4490
 1387TIP3    H128356   2.008   0.696  17.823 -0.3840 -2.0524 -0.1932
 1387TIP3    H228357   2.131   0.712  17.910 -1.5172  2.5857  0.8426
 1388TIP3   OH228358   5.281   2.207  17.083 -0.3307  0.7085 -0.1666
 1388TIP3    H128359   5.253   2.297  17.097 -0.5851  0.7063 -0.6248
 1388TIP3    H228360   5.258   2.161  17.163  0.5099  1.2173  0.3805
 1389TIP3   OH228361   2.024   4.284  17.477 -0.0406 -0.0278 -0.0692
 1389TIP3    H128362   2.100   4.226  17.475  0.3151  0.4373 -1.8793
 1389TIP3    H228363   2.059   4.369  17.502  0.0888  0.2239 -1.0646
 1390TIP3   OH228364   4.742   0.958  17.666 -0.7790 -0.6042  0.3910
 1390TIP3    H128365   4.738   0.863  17.650 -1.3690 -0.2748 -1.8117
 1390TIP3    H228366   4.689   0.996  17.596 -0.1603  1.3935  0.9420
 1391TIP3   OH228367   7.519   4.824  18.232  0.3613 -0.1374  0.0788
 1391TIP3    H128368   7.609   4.792  18.242  0.0772 -1.2645 -0.7552
 1391TIP3    H228369   7.469   4.780  18.301  0.1963 -0.6036 -0.3294
 1392TIP3   OH228370   4.118   1.838  17.311  0.1445  0.1903 -0.2889
 1392TIP3    H128371   4.089   1.750  17.284 -1.2689  0.5075  0.1482
 1392TIP3    H228372   4.082   1.896  17.245  0.2296  0.5535 -0.0166
 1393TIP3   OH228373   3.517   4.774  16.763 -0.0927 -0.6953 -0.4699
 1393TIP3    H128374   3.464   4.741  16.835 -1.1836  1.6163 -0.1516
 1393TIP3    H228375   3.582   4.830  16.805  1.7007 -2.2568 -1.0039
 1394TIP3   OH228376   0.338   2.412  17.313 -0.5186  0.1931  0.2152
 1394TIP3    H128377   0.387   2.477  17.262 -2.5447  0.4748 -1.5037
 1394TIP3    H228378   0.274   2.377  17.252 -1.1096 -1.6652  1.8002
 1395TIP3   OH228379   6.361   7.503  18.376  0.0159 -0.1988 -0.1462
 1395TIP3    H128380   6.328   7.527  18.462 -0.7902 -0.3072 -0.4160
 1395TIP3    H228381   6.413   7.424  18.392 -0.2009 -0.2691  0.2268
 1396TIP3   OH228382   4.392   3.801  18.336  0.9223 -0.3514 -0.5422
 1396TIP3    H128383   4.408   3.767  18.248  0.5780  0.7323 -1.0513
 1396TIP3    H228384   4.364   3.891  18.321 -0.4931 -0.5710  0.6013
 1397TIP3   OH228385   1.652   1.369  18.636  0.2427 -0.3229 -0.2954
 1397TIP3    H128386   1.678   1.290  18.588  0.6842  0.0937 -0.7478
 1397TIP3    H228387   1.720   1.433  18.616 -1.4604  1.0691 -2.1580
 1398TIP3   OH228388   5.686   0.755  16.951  0.3846  0.2277 -0.3145
 1398TIP3    H128389   5.603   0.794  16.923 -0.8320 -2.7771 -1.3452
 1398TIP3    H228390   5.753   0.814  16.918 -1.2665  1.1228 -2.3251
 1399TIP3   OH228391   7.101   2.589  16.742 -0.3380 -0.5573 -0.0072
 1399TIP3    H128392   7.139   2.583  16.830  0.2758 -0.1659 -0.2428
 1399TIP3    H228393   7.050   2.670  16.743 -1.3532 -1.1844  0.3705
 1400TIP3   OH228394   4.752   4.758  18.152  0.4095 -0.3265  0.3784
 1400TIP3    H128395   4.792   4.808  18.223 -0.0879  0.1015  0.3654
 1400TIP3    H228396   4.661   4.746  18.180 -0.2408  1.2620 -0.8998
 1401TIP3   OH228397   2.249   6.890  16.899  0.6530 -0.3072  0.9354
 1401TIP3    H128398   2.332   6.925  16.929  0.7209  1.3887 -0.9705
 1401TIP3    H228399   2.272   6.826  16.832  0.4229 -0.5603  1.0919
 1402TIP3   OH228400   5.432   1.550  17.089 -0.1771  0.3581 -0.3312
 1402TIP3    H128401   5.456   1.527  16.999 -1.7470  1.9242 -1.1964
 1402TIP3    H228402   5.394   1.638  17.082 -0.3258  0.5089  1.8719
 1403TIP3   OH228403   5.601   5.277  18.585 -0.4105 -0.4103 -0.1429
 1403TIP3    H128404   5.592   5.275  18.680 -1.2823 -0.2711 -0.2164
 1403TIP3    H228405   5.512   5.273  18.552 -0.1539  0.1322 -0.9457
 1404TIP3   OH228406   3.483   3.034  17.166  0.6319  0.6168 -0.1368
 1404TIP3    H128407   3.562   3.088  17.159  1.3652 -0.1458  1.5680
 1404TIP3    H228408   3.463   3.034  17.260 -0.4472 -0.5401 -0.3450
 1405TIP3   OH228409   1.323   2.588  18.590  0.3610  0.7860 -0.1775
 1405TIP3    H128410   1.335   2.613  18.499  0.0002  0.9455 -0.1859
 1405TIP3    H228411   1.228   2.581  18.600  0.4205  0.3159  0.0669
 1406TIP3   OH228412   1.995   6.497  18.298 -0.2004  0.5110 -0.7673
 1406TIP3    H128413   2.008   6.590  18.279  1.2965  0.5516  0.2208
 1406TIP3    H228414   1.923   6.470  18.241  0.8117  1.7302 -2.7367
 1407TIP3   OH228415   7.571   3.343  18.573 -0.2274 -0.1127  0.3989
 1407TIP3    H128416   7.653   3.294  18.579  0.4177  0.0562 -3.6868
 1407TIP3    H228417   7.597   3.434  18.585  0.3191 -0.0397 -1.0854
 1408TIP3   OH228418   7.450   2.668  18.124 -0.4905  0.1061  1.0380
 1408TIP3    H128419   7.407   2.585  18.145  0.3823 -0.4354  0.7636
 1408TIP3    H228420   7.467   2.708  18.209 -2.5390  0.8974  1.1421
 1409TIP3   OH228421   4.275   4.450  17.620 -0.0514  0.7003 -0.3584
 1409TIP3    H128422   4.325   4.510  17.565 -1.3676 -0.1709 -2.6372
 1409TIP3    H228423   4.193   4.437  17.573 -1.3904  0.1016  1.9953
 1410TIP3   OH228424   3.891   2.550  16.547  0.4186 -0.0171  0.7201
 1410TIP3    H128425   3.894   2.456  16.527 -0.7071 -0.0750  0.7549
 1410TIP3    H228426   3.911   2.593  16.464  1.1872 -0.2822  0.7598
 1411TIP3   OH228427   4.763   3.369  15.747  0.1517 -0.3604  0.0878
 1411TIP3    H128428   4.842   3.315  15.752  0.8476  0.3938 -1.7281
 1411TIP3    H228429   4.719   3.339  15.667 -0.7319  0.1177  0.3781
 1412TIP3   OH228430   1.254   1.890  17.580  0.3610 -0.6110 -0.2341
 1412TIP3    H128431   1.345   1.907  17.604 -0.0063  0.8116  0.3094
 1412TIP3    H228432   1.232   1.962  17.520 -0.6966 -0.2936  0.4981
 1413TIP3   OH228433   2.267   4.894  17.162  1.3580  0.4387  0.2860
 1413TIP3    H128434   2.243   4.827  17.098  1.3300  0.8971 -0.1894
 1413TIP3    H228435   2.305   4.965  17.110  0.0144  1.4412  0.6308
 1414TIP3   OH228436   7.627   7.333  16.422  0.0679  0.2352  0.2667
 1414TIP3    H128437   7.711   7.357  16.382 -0.6330  0.1470 -1.3384
 1414TIP3    H228438   7.601   7.411  16.471  0.5745  0.6372 -0.0905
 1415TIP3   OH228439   4.102   6.698  18.619 -0.3057  0.0613 -0.5881
 1415TIP3    H128440   4.094   6.779  18.670  2.3442  1.4109 -2.1160
 1415TIP3    H228441   4.063   6.719  18.534  1.4307  0.2009 -1.3923
 1416TIP3   OH228442   0.648   5.902  18.913 -0.1866 -0.2340 -0.1656
 1416TIP3    H128443   0.677   5.917  19.003  0.6695 -1.8563 -0.1338
 1416TIP3    H228444   0.727   5.871  18.868 -0.4186  1.1922 -1.6749
 1417TIP3   OH228445   3.680   7.528  17.052  0.1298 -0.4804 -0.0012
 1417TIP3    H128446   3.589   7.531  17.021  0.4314  1.7639 -0.8518
 1417TIP3    H228447   3.678   7.468  17.126 -2.2836  0.2918  0.6427
 1418TIP3   OH228448   5.607   3.941  16.559 -0.3820  0.1369 -0.7752
 1418TIP3    H128449   5.648   3.856  16.541 -0.8681 -0.0991 -0.7873
 1418TIP3    H228450   5.602   3.984  16.473  0.6566  0.5484 -0.6460
 1419TIP3   OH228451   6.195   7.371  17.530 -0.5544  0.3100 -0.1582
 1419TIP3    H128452   6.203   7.465  17.550  0.3634  0.4522 -1.0666
 1419TIP3    H228453   6.285   7.338  17.537 -0.9063 -0.5520  0.3518
 1420TIP3   OH228454   3.607   7.542  18.618 -0.6318 -0.0796 -0.0200
 1420TIP3    H128455   3.656   7.461  18.603  2.0475  1.3735  0.0887
 1420TIP3    H228456   3.544   7.521  18.686 -0.1534 -2.1154 -0.1479
 1421TIP3   OH228457   2.687   5.833  16.958  0.2771 -0.6691 -0.3603
 1421TIP3    H128458   2.615   5.836  17.022 -0.2283 -1.8217 -0.8408
 1421TIP3    H228459   2.762   5.802  17.009  0.0521 -0.8954 -0.1541
 1422TIP3   OH228460   5.006   2.478  16.961 -0.1601 -0.6657  0.0614
 1422TIP3    H128461   4.925   2.472  16.911  0.3251 -2.0244 -0.6100
 1422TIP3    H228462   4.984   2.444  17.048 -0.5036 -0.1981  0.1662
 1423TIP3   OH228463   6.684   0.525  16.151  0.4141 -0.4414 -0.5184
 1423TIP3    H128464   6.717   0.451  16.100  1.0796 -0.9152  0.5712
 1423TIP3    H228465   6.729   0.518  16.235 -0.6161  0.3498  0.1224
 1424TIP3   OH228466   6.274   0.889  17.848  0.9467  0.2853  0.0865
 1424TIP3    H128467   6.206   0.954  17.863  0.1289 -0.3906 -0.6013
 1424TIP3    H228468   6.313   0.875  17.934  0.6166  1.1122  0.3810
 1425TIP3   OH228469   7.678   5.534  18.527  0.3026 -0.0642 -0.2105
 1425TIP3    H128470   7.667   5.498  18.439  3.0710 -0.5202 -0.4399
 1425TIP3    H228471   7.685   5.629  18.514  0.2711 -0.0884 -0.4029
 1426TIP3   OH228472   4.403   2.991  16.214 -0.1436 -0.2169 -0.3103
 1426TIP3    H128473   4.453   2.968  16.135 -0.4910 -0.8172 -0.3591
 1426TIP3    H228474   4.319   3.022  16.180 -0.5616 -1.1563 -0.1567
 1427TIP3   OH228475   6.010   0.814  17.470  0.1211  0.2606 -0.2134
 1427TIP3    H128476   6.105   0.807  17.480 -0.1583 -1.4919  2.1609
 1427TIP3    H228477   5.980   0.723  17.463 -1.5750  0.4708  2.5091
 1428TIP3   OH228478   3.076   0.828  17.101  0.1905  0.5661  0.0461
 1428TIP3    H128479   3.155   0.873  17.073 -0.7124  1.6378 -0.9092
 1428TIP3    H228480   3.081   0.742  17.059  0.7655  0.6909 -0.1505
 1429TIP3   OH228481   2.761   5.416  18.189  0.7046 -0.0388 -0.1817
 1429TIP3    H128482   2.749   5.321  18.188  2.3411 -0.3200  1.5352
 1429TIP3    H228483   2.778   5.440  18.098  0.9956 -1.5056 -0.5300
 1430TIP3   OH228484   5.302   6.102  18.640  0.2575 -0.0031  0.3365
 1430TIP3    H128485   5.264   6.060  18.718  0.2705 -0.7455 -0.0460
 1430TIP3    H228486   5.228   6.112  18.580  0.7708 -2.1951 -0.7302
 1431TIP3   OH228487   6.120   3.011  17.822  0.1444 -0.1479 -0.0161
 1431TIP3    H128488   6.083   3.060  17.750 -0.4658  0.3813  0.6431
 1431TIP3    H228489   6.110   2.919  17.797 -0.9546  0.0029 -0.1767
 1432TIP3   OH228490   0.151   6.019  16.490 -0.5296  0.2383  0.6306
 1432TIP3    H128491   0.216   6.088  16.476  1.1051 -1.2593  0.3921
 1432TIP3    H228492   0.139   5.980  16.403 -2.1951  0.8145  0.5672
 1433TIP3   OH228493   0.738   7.019  17.232 -0.6810 -0.5312 -0.1178
 1433TIP3    H128494   0.668   6.984  17.287 -1.1854 -0.5513 -0.7667
 1433TIP3    H228495   0.815   6.968  17.256 -0.6625  0.0960  1.2569
 1434TIP3   OH228496   0.058   7.304  17.197  0.1770  0.1960 -0.6848
 1434TIP3    H128497   0.081   7.269  17.110  1.4214 -1.6249  0.3041
 1434TIP3    H228498   0.102   7.389  17.200 -0.5821  0.6795 -2.1216
 1435TIP3   OH228499   6.507   1.584  16.057  0.1064  0.0905  0.0490
 1435TIP3    H128500   6.421   1.562  16.094  0.7581 -0.5352  1.2836
 1435TIP3    H228501   6.546   1.643  16.122  1.0558 -0.5720  0.1033
 1436TIP3   OH228502   7.214   3.396  17.637 -0.2308  0.4943 -0.5119
 1436TIP3    H128503   7.226   3.303  17.620  1.4654  0.7476 -0.8970
 1436TIP3    H228504   7.209   3.403  17.732  0.9722  0.1118 -0.3997
 1437TIP3   OH228505   5.114   2.454  17.678 -0.0344  0.4168  0.5373
 1437TIP3    H128506   5.030   2.413  17.700  0.6641 -1.3158  0.2148
 1437TIP3    H228507   5.097   2.502  17.597 -0.8187  0.4577  0.7191
 1438TIP3   OH228508   2.815   4.549  16.681 -0.4075 -0.2465  0.0648
 1438TIP3    H128509   2.875   4.589  16.745 -0.8359 -0.1620  0.4172
 1438TIP3    H228510   2.795   4.619  16.619 -2.5282  0.6474  1.6404
 1439TIP3   OH228511   2.902   3.760  17.366  0.2275  0.4823 -0.5440
 1439TIP3    H128512   2.840   3.751  17.294  1.3382 -1.1256 -1.3481
 1439TIP3    H228513   2.909   3.855  17.379 -0.4876  0.7867 -2.1100
 1440TIP3   OH228514   3.917   4.539  17.886  0.3951 -0.8253  0.3589
 1440TIP3    H128515   3.989   4.480  17.906  0.5329  0.1620  3.1334
 1440TIP3    H228516   3.839   4.493  17.918  0.3213 -0.1784  1.1353
 1441TIP3   OH228517   4.796   2.376  17.263 -0.7442  0.8158 -1.0456
 1441TIP3    H128518   4.890   2.388  17.268 -0.5695 -0.6419 -0.2705
 1441TIP3    H228519   4.760   2.465  17.256  0.6514  1.3970 -1.0272
 1442TIP3   OH228520   6.565   5.949  18.017 -0.1600 -0.0657  0.0710
 1442TIP3    H128521   6.499   5.975  17.953 -1.0883  1.7040  1.6336
 1442TIP3    H228522   6.514   5.909  18.088  0.5360  0.3090  0.7968
 1443TIP3   OH228523   2.021   6.855  17.074 -0.1942 -0.3339 -0.5275
 1443TIP3    H128524   2.056   6.874  16.987  0.1235  2.3052  0.0928
 1443TIP3    H228525   2.097   6.861  17.132 -0.8072  0.4568  0.2177
 1444TIP3   OH228526   1.856   7.488  17.752  0.3720  0.2559  0.4571
 1444TIP3    H128527   1.865   7.414  17.812 -2.6573  0.4931  1.3554
 1444TIP3    H228528   1.820   7.449  17.672 -0.3850  0.6054  0.6203
 1445TIP3   OH228529   6.677   1.972  18.465  0.2441 -0.1539  1.1785
 1445TIP3    H128530   6.739   1.899  18.461  0.6078  0.2091 -0.9255
 1445TIP3    H228531   6.591   1.930  18.461  0.4498 -0.5263  0.1028
 1446TIP3   OH228532   4.761   2.449  18.538  0.1787  0.0704 -0.1141
 1446TIP3    H128533   4.733   2.540  18.527  0.2087  0.1517  0.4389
 1446TIP3    H228534   4.680   2.401  18.555  0.2862  0.1999  0.8260
 1447TIP3   OH228535   1.462   4.962  17.871 -0.0961 -0.3735  0.3897
 1447TIP3    H128536   1.459   4.969  17.966  1.7911  1.0779  0.4080
 1447TIP3    H228537   1.370   4.952  17.845 -0.8514  1.0329  2.2631
 1448TIP3   OH228538   6.321   1.559  16.942  0.2197  0.0256  0.3605
 1448TIP3    H128539   6.410   1.583  16.917 -0.8673  1.8448 -2.2118
 1448TIP3    H228540   6.295   1.495  16.876 -0.9088  0.8021  0.0248
 1449TIP3   OH228541   2.062   6.951  18.389  0.3336 -0.5390  0.4856
 1449TIP3    H128542   2.091   6.887  18.454  1.4818  0.2417  0.7876
 1449TIP3    H228543   2.055   6.902  18.307  2.4040 -0.8378  0.4315
 1450TIP3   OH228544   0.532   0.431  17.393  0.5442 -0.5711 -0.4392
 1450TIP3    H128545   0.491   0.516  17.406  1.7412 -0.0670  0.2669
 1450TIP3    H228546   0.616   0.438  17.440  1.5430 -1.4421 -1.9970
 1451TIP3   OH228547   2.016   6.885  16.707  0.3100  0.0091 -0.0621
 1451TIP3    H128548   1.974   6.962  16.668 -0.4966  0.7362  2.0566
 1451TIP3    H228549   2.099   6.918  16.742  1.1463 -0.6851 -1.3252
 1452TIP3   OH228550   7.000   4.633  16.968  0.1741 -0.1395  0.1388
 1452TIP3    H128551   6.922   4.643  16.914  0.7386 -0.1419 -0.6919
 1452TIP3    H228552   7.033   4.722  16.979 -0.0746 -0.1119  0.6950
 1453TIP3   OH228553   5.044   6.204  17.338 -0.2077 -0.0861  0.6661
 1453TIP3    H128554   4.976   6.140  17.360 -1.5407  1.4709  1.2987
 1453TIP3    H228555   5.000   6.265  17.278  1.9731 -1.5537 -2.7034
 1454TIP3   OH228556   7.503   6.568  18.778  0.1619  0.6175  0.0943
 1454TIP3    H128557   7.546   6.535  18.699 -0.7133  1.8901 -0.9596
 1454TIP3    H228558   7.565   6.632  18.814  0.5379  0.0754  0.4244
 1455TIP3   OH228559   1.527   6.076  17.723 -0.1739 -0.6756  0.5394
 1455TIP3    H128560   1.570   6.000  17.683 -0.4288 -0.7242  0.3533
 1455TIP3    H228561   1.470   6.038  17.790  0.4104 -0.5795  1.0995
 1456TIP3   OH228562   3.222   0.535  18.069  0.3958 -0.4793  0.2014
 1456TIP3    H128563   3.304   0.494  18.096  0.4792  0.4281  1.3431
 1456TIP3    H228564   3.156   0.467  18.083  0.9834 -1.4041 -1.2295
 1457TIP3   OH228565   7.378   4.345  15.702  0.2890 -0.7604 -0.4429
 1457TIP3    H128566   7.319   4.283  15.659  1.4534 -1.9003 -0.4505
 1457TIP3    H228567   7.324   4.423  15.716 -0.1045 -0.1309 -4.3101
 1458TIP3   OH228568   4.372   7.480  17.966  0.2224 -0.6512 -0.3924
 1458TIP3    H128569   4.333   7.555  18.012 -0.3572 -0.4673 -1.1498
 1458TIP3    H228570   4.458   7.470  18.005  0.2578  0.3342 -0.1831
 1459TIP3   OH228571   3.164   5.874  18.061 -0.3750 -0.2224  0.1997
 1459TIP3    H128572   3.236   5.833  18.109 -0.0237 -0.2448 -0.3413
 1459TIP3    H228573   3.130   5.941  18.121  1.3476  1.1374 -0.2551
 1460TIP3   OH228574   2.060   4.203  17.816  0.0311 -0.0128  0.4784
 1460TIP3    H128575   1.977   4.211  17.769  0.6464 -0.6339 -0.7313
 1460TIP3    H228576   2.086   4.293  17.834 -0.5651  0.2051  0.2643
 1461TIP3   OH228577   2.115   3.641  18.352 -0.1462  0.0212 -0.1948
 1461TIP3    H128578   2.191   3.678  18.397 -0.6481  0.1780  0.5389
 1461TIP3    H228579   2.060   3.605  18.423 -1.1656  0.6779 -0.6376
 1462TIP3   OH228580   6.758   5.667  17.958  0.0716  0.2483  0.2963
 1462TIP3    H128581   6.707   5.719  17.897 -1.3048 -0.5851  0.6754
 1462TIP3    H228582   6.692   5.626  18.014  1.2547  0.6175  2.0406
 1463TIP3   OH228583   6.961   4.021  17.928 -1.2835  0.4068 -0.3392
 1463TIP3    H128584   6.866   4.020  17.911 -1.5490 -0.2778  1.0084
 1463TIP3    H228585   6.984   3.929  17.940 -0.6720  0.6548  0.4619
 1464TIP3   OH228586   4.682   6.560  17.277 -0.1735  0.1441  0.5982
 1464TIP3    H128587   4.672   6.593  17.187 -0.5259 -0.6601  0.3376
 1464TIP3    H228588   4.650   6.632  17.332  0.0521  0.6491  0.0884
 1465TIP3   OH228589   7.321   1.825  15.834 -0.4320 -0.0812  0.0969
 1465TIP3    H128590   7.280   1.910  15.848 -2.0177 -0.3775 -2.1184
 1465TIP3    H228591   7.359   1.831  15.746  0.4166 -1.2858  0.3570
 1466TIP3   OH228592   2.329   5.596  17.262 -0.6208 -0.0384 -0.1511
 1466TIP3    H128593   2.363   5.506  17.257 -1.0411 -0.1636 -1.0958
 1466TIP3    H228594   2.235   5.585  17.274 -0.5598  0.2917  0.6770
 1467TIP3   OH228595   2.362   0.455  16.769 -0.0255 -0.4634  0.2719
 1467TIP3    H128596   2.287   0.461  16.828  0.6332  1.8376  0.9826
 1467TIP3    H228597   2.435   0.493  16.819  1.0433 -0.3999 -1.2676
 1468TIP3   OH228598   5.355   2.556  17.698  0.6561  0.3328  0.0470
 1468TIP3    H128599   5.261   2.552  17.682  0.8847 -0.2229 -1.2593
 1468TIP3    H228600   5.371   2.648  17.719  0.2400  1.1364 -2.7560
 1469TIP3   OH228601   4.021   3.346  16.961 -0.5890  0.3270 -0.2200
 1469TIP3    H128602   4.027   3.250  16.964  0.6853  0.3593 -1.0667
 1469TIP3    H228603   4.037   3.373  17.051 -1.7251 -0.2775  0.1825
 1470TIP3   OH228604   1.857   7.611  18.594 -0.6440 -0.1412 -0.2588
 1470TIP3    H128605   1.937   7.562  18.575 -0.8307 -0.7642  0.5499
 1470TIP3    H228606   1.888   7.697  18.622 -0.3155  0.2109 -1.6176
 1471TIP3   OH228607   7.135   1.366  17.459  0.5553 -0.1314  0.4205
 1471TIP3    H128608   7.126   1.315  17.379  0.4404  0.1558  0.2487
 1471TIP3    H228609   7.182   1.308  17.519 -1.9031 -1.4760  1.1601
 1472TIP3   OH228610   4.785   7.079  18.276  0.1066  0.5166  0.3001
 1472TIP3    H128611   4.756   7.138  18.345  0.2919  0.3552  0.5166
 1472TIP3    H228612   4.723   7.005  18.282 -0.4221  0.9038 -0.2832
 1473TIP3   OH228613   5.867   4.062  17.041  0.7121 -0.2405  0.0532
 1473TIP3    H128614   5.927   4.107  16.982 -0.4186  1.1979 -0.0358
 1473TIP3    H228615   5.785   4.055  16.991  0.1056 -0.0793  1.0082
 1474TIP3   OH228616   5.739   6.536  17.376  0.0286  0.0508 -0.4745
 1474TIP3    H128617   5.767   6.480  17.449  0.6697  0.6982 -0.2104
 1474TIP3    H228618   5.803   6.607  17.374 -1.3821  1.3848 -0.1028
 1475TIP3   OH228619   1.180   3.003  16.780  0.6056 -0.0737 -0.0927
 1475TIP3    H128620   1.223   3.068  16.724  2.7664 -1.5925 -0.3246
 1475TIP3    H228621   1.211   3.024  16.869 -0.7493  0.7379  0.2152
 1476TIP3   OH228622   1.880   2.195  16.793  0.5008 -0.0812 -0.7135
 1476TIP3    H128623   1.869   2.106  16.761  0.6643 -0.2460 -0.3178
 1476TIP3    H228624   1.958   2.227  16.749  1.4045 -0.7093  0.3674
 1477TIP3   OH228625   4.311   5.209  18.439  0.1881  0.6244 -0.0313
 1477TIP3    H128626   4.278   5.283  18.490 -2.8086  0.0207 -0.9157
 1477TIP3    H228627   4.393   5.240  18.401 -0.3090  2.9959  0.7164
 1478TIP3   OH228628   1.751   4.806  16.792 -0.1103 -0.2309 -0.1237
 1478TIP3    H128629   1.759   4.898  16.818 -1.0466  0.3598 -1.7708
 1478TIP3    H228630   1.710   4.809  16.705  0.7681 -2.1750 -0.6556
 1479TIP3   OH228631   1.794   3.360  17.759 -0.1919 -0.2500 -0.4605
 1479TIP3    H128632   1.723   3.323  17.811  0.4511 -2.7512 -1.1930
 1479TIP3    H228633   1.794   3.453  17.779 -0.4717 -0.9255  3.3912
 1480TIP3   OH228634   6.751   6.948  18.340  0.1085  0.1541 -0.3955
 1480TIP3    H128635   6.786   6.863  18.313  0.9503 -0.2235  1.6948
 1480TIP3    H228636   6.718   6.934  18.429 -0.4108  1.8430 -0.2738
 1481TIP3   OH228637   6.251   6.769  18.153 -0.3409 -0.2658 -0.0535
 1481TIP3    H128638   6.220   6.803  18.236 -3.3887 -1.6318 -0.5055
 1481TIP3    H228639   6.229   6.837  18.089  0.4958  0.0688 -0.0078
 1482TIP3   OH228640   1.094   6.222  17.788 -0.4594 -0.0214 -0.0856
 1482TIP3    H128641   1.012   6.173  17.784 -1.1428  0.9927  0.7602
 1482TIP3    H228642   1.088   6.270  17.871  1.0844 -0.0893  0.0804
 1483TIP3   OH228643   2.697   0.706  18.695 -0.2736 -0.5096  0.2429
 1483TIP3    H128644   2.696   0.622  18.741 -0.8765  0.9444  3.0999
 1483TIP3    H228645   2.773   0.752  18.729  0.6061 -0.1947 -1.9999
 1484TIP3   OH228646   3.969   0.126  18.327  0.3615 -0.0937 -0.7025
 1484TIP3    H128647   3.982   0.095  18.238 -1.1718 -0.9965 -0.6392
 1484TIP3    H228648   3.901   0.069  18.363  0.9436  0.2436  1.0501
 1485TIP3   OH228649   0.035   5.858  17.191  0.0172 -0.1815  0.3446
 1485TIP3    H128650   0.104   5.841  17.127 -0.7806 -0.5590 -0.4442
 1485TIP3    H228651  -0.036   5.799  17.165 -0.1385 -0.7034  1.8922
 1486TIP3   OH228652   1.207   1.317  16.445 -0.0205  0.4919 -0.1244
 1486TIP3    H128653   1.183   1.259  16.373 -0.5239  1.5685 -0.8526
 1486TIP3    H228654   1.295   1.290  16.470  0.2279  0.2016 -1.2533
 1487TIP3   OH228655   7.206   0.314  17.745 -0.8162  0.0688 -0.1882
 1487TIP3    H128656   7.175   0.355  17.825 -3.2362 -0.6080 -0.6937
 1487TIP3    H228657   7.126   0.289  17.698  0.4013 -3.9678 -0.5391
 1488TIP3   OH228658   2.910   4.287  17.758 -0.1716  0.3315  0.2765
 1488TIP3    H128659   2.833   4.339  17.735 -0.5798 -1.3076 -2.5793
 1488TIP3    H228660   2.883   4.234  17.833 -2.1994 -0.8147 -1.1718
 1489TIP3   OH228661   3.382   7.550  17.177  0.0029 -0.0593  0.3029
 1489TIP3    H128662   3.353   7.526  17.264 -1.2380  4.3988  1.3682
 1489TIP3    H228663   3.453   7.614  17.191 -0.1536  0.7179 -1.9007
 1490TIP3   OH228664   6.005   4.531  17.968  0.2799  0.1912  0.8889
 1490TIP3    H128665   5.957   4.493  17.895 -0.0851 -2.9049  2.5949
 1490TIP3    H228666   5.937   4.555  18.032  0.7621 -1.2513  1.9897
 1491TIP3   OH228667   7.394   1.308  17.989 -0.1016  0.2067 -0.6131
 1491TIP3    H128668   7.340   1.385  18.009 -0.3310 -0.7750  3.6274
 1491TIP3    H228669   7.333   1.234  17.996  1.1554 -0.7253  1.8947
 1492TIP3   OH228670   4.644   2.229  18.166  0.0590 -0.2741  0.4764
 1492TIP3    H128671   4.660   2.192  18.079  0.0915 -0.1550  0.4329
 1492TIP3    H228672   4.585   2.165  18.208  1.6902 -1.4072  1.1380
 1493TIP3   OH228673   6.907   1.195  18.746  0.7385 -0.0992 -0.5266
 1493TIP3    H128674   6.814   1.187  18.728  0.5495  0.9154 -0.1015
 1493TIP3    H228675   6.941   1.106  18.739 -0.1708 -0.4137 -1.1428
 1494TIP3   OH228676   0.459   2.487  18.167  0.2049 -0.5053  0.2164
 1494TIP3    H128677   0.369   2.510  18.142 -0.4543 -0.9985  1.9273
 1494TIP3    H228678   0.452   2.399  18.205  1.2812 -0.2885  0.9749
 1495TIP3   OH228679   6.249   1.157  17.448 -0.3418  0.0727  0.2184
 1495TIP3    H128680   6.264   1.116  17.363  0.1434  0.7240 -0.0243
 1495TIP3    H228681   6.324   1.131  17.501 -1.0036 -0.9196  0.6885
 1496TIP3   OH228682   7.447   0.117  18.526 -0.1260 -0.0712 -0.2146
 1496TIP3    H128683   7.403   0.200  18.509 -0.9286  0.2441  2.7435
 1496TIP3    H228684   7.452   0.074  18.441 -0.8675  2.4344 -1.6134
 1497TIP3   OH228685   2.539   6.931  16.927 -0.1232 -0.2055  0.1763
 1497TIP3    H128686   2.575   6.844  16.944 -1.0158 -0.8247 -0.9521
 1497TIP3    H228687   2.613   6.982  16.894  0.2897 -0.6881  0.3550
 1498TIP3   OH228688   2.300   0.763  17.875 -0.4014 -0.6590  0.3707
 1498TIP3    H128689   2.346   0.827  17.930  1.4990 -1.9621  0.3561
 1498TIP3    H228690   2.360   0.745  17.803 -2.3537  0.1037 -1.5594
 1499TIP3   OH228691   1.163   7.154  18.709  0.1853 -0.2761  0.5771
 1499TIP3    H128692   1.068   7.149  18.720 -0.0868  0.9925 -0.7932
 1499TIP3    H228693   1.177   7.237  18.663  1.7290 -1.6253 -1.5488
 1500TIP3   OH228694   0.408   7.245  17.814 -0.0357  0.3997 -0.2138
 1500TIP3    H128695   0.408   7.334  17.848 -1.9605  1.0433 -1.7191
 1500TIP3    H228696   0.340   7.200  17.863  0.0431  0.1324 -0.3466
 1501TIP3   OH228697   7.202   1.037  18.345  0.2091 -0.5656 -0.4241
 1501TIP3    H128698   7.114   1.035  18.307 -0.0395  0.9500 -0.0209
 1501TIP3    H228699   7.254   1.090  18.285  0.7257 -1.0371 -0.4034
 1502TIP3   OH228700   7.043   1.694  18.032 -0.0325 -0.4969 -0.0653
 1502TIP3    H128701   6.953   1.705  18.002 -0.1433 -0.3326  0.3195
 1502TIP3    H228702   7.037   1.693  18.128  0.2351 -1.6907 -0.0457
 1503TIP3   OH228703   7.522   1.029  17.231 -0.8341 -0.9128 -0.1255
 1503TIP3    H128704   7.583   1.060  17.164 -0.9397 -0.2970  0.0616
 1503TIP3    H228705   7.512   0.935  17.213  1.2428 -1.3423  0.6454
 1504TIP3   OH228706   1.135   3.265  17.354  0.3914  0.0584  0.2048
 1504TIP3    H128707   1.077   3.277  17.278 -0.3187  0.9113  0.8694
 1504TIP3    H228708   1.160   3.353  17.379 -0.3535 -0.1178  1.6940
 1505TIP3   OH228709   5.206   2.347  18.549 -0.5204  1.0102  0.2147
 1505TIP3    H128710   5.263   2.419  18.576  2.8078 -1.2704 -0.1046
 1505TIP3    H228711   5.152   2.384  18.479  1.1383  3.1656 -0.0412
 1506TIP3   OH228712   3.622   6.620  16.387  0.5608 -0.3020 -0.7936
 1506TIP3    H128713   3.662   6.662  16.311 -0.9006  1.9573 -0.3978
 1506TIP3    H228714   3.556   6.682  16.418 -0.5625 -2.1855  0.8965
 1507TIP3   OH228715   2.312   0.103  18.478  0.0975  0.0271  0.2341
 1507TIP3    H128716   2.222   0.091  18.448 -0.2271  0.6855  0.9362
 1507TIP3    H228717   2.345   0.177  18.427  0.0376  0.1887  0.4319
 1508TIP3   OH228718   7.289   6.275  17.124  0.4033  0.1049 -0.5917
 1508TIP3    H128719   7.353   6.230  17.179  0.8982  1.7078  0.1868
 1508TIP3    H228720   7.325   6.363  17.111 -2.1112  1.4662  0.8071
 1509TIP3   OH228721   5.288   1.274  18.077  0.4692  0.1206  0.2572
 1509TIP3    H128722   5.229   1.203  18.102  0.8992 -0.2870  0.1268
 1509TIP3    H228723   5.243   1.354  18.105 -0.7624 -0.0804 -1.0089
 1510TIP3   OH228724   0.704   4.595  16.127  0.5212  0.2110  0.5923
 1510TIP3    H128725   0.737   4.510  16.100  1.0259  0.8956 -1.1369
 1510TIP3    H228726   0.779   4.640  16.165  0.5620  0.3048  0.4043
 1511TIP3   OH228727   4.469   2.285  19.103  0.2764  0.0207  0.1055
 1511TIP3    H128728   4.389   2.323  19.139 -0.0843 -0.6169 -0.0254
 1511TIP3    H228729   4.469   2.312  19.011  0.4229  0.3575  0.1998
 1512TIP3   OH228730   7.330   2.832  17.554  0.0437  0.4722  0.0022
 1512TIP3    H128731   7.414   2.825  17.507 -0.5742 -0.2927 -1.0493
 1512TIP3    H228732   7.333   2.918  17.596  2.7942 -0.8585  2.8865
 1513TIP3   OH228733   2.432   4.668  18.601  0.8541  0.1006  0.4090
 1513TIP3    H128734   2.444   4.673  18.506 -0.4632 -2.2235  0.0406
 1513TIP3    H228735   2.470   4.749  18.634 -0.1106  1.7712 -2.2436
 1514TIP3   OH228736   0.625   3.217  18.686 -0.3435  0.0734 -0.0577
 1514TIP3    H128737   0.575   3.213  18.605 -0.6311  0.6012  0.0915
 1514TIP3    H228738   0.562   3.246  18.752  0.1338  0.6674  0.1475
 1515TIP3   OH228739   1.316   0.107  16.291 -0.0179  0.3852 -0.1512
 1515TIP3    H128740   1.294   0.145  16.206 -2.1270 -0.2908  0.0376
 1515TIP3    H228741   1.241   0.052  16.313  0.7385  0.0828  1.8928
 1516TIP3   OH228742   6.968   2.902  17.691 -0.0220 -0.4049  0.0979
 1516TIP3    H128743   6.992   2.961  17.763 -1.6781 -0.6479  0.8942
 1516TIP3    H228744   6.910   2.955  17.636  1.4737 -0.1184 -1.2909
 1517TIP3   OH228745   2.919   0.206  16.080 -0.2226  0.7288  0.2205
 1517TIP3    H128746   2.905   0.258  16.160  0.4188  1.9589 -0.4347
 1517TIP3    H228747   2.923   0.271  16.010 -0.4427 -0.3122 -0.7773
 1518TIP3   OH228748   0.187   1.113  17.703 -0.3302 -0.0785 -0.5451
 1518TIP3    H128749   0.254   1.048  17.681  0.1524  0.3585 -0.4127
 1518TIP3    H228750   0.225   1.196  17.675 -0.5125  0.2568  0.1722
 1519TIP3   OH228751   7.046   0.116  17.930  0.1099  0.2671  0.2793
 1519TIP3    H128752   7.104   0.178  17.975  1.1559  1.3825 -2.4239
 1519TIP3    H228753   7.045   0.145  17.839 -3.6243 -0.5710 -0.1204
 1520TIP3   OH228754   5.189   6.325  15.982  0.3625  0.1333 -0.1376
 1520TIP3    H128755   5.224   6.302  16.068 -0.4283  1.1215  0.4718
 1520TIP3    H228756   5.264   6.317  15.923  0.6893 -1.5256  0.4412
 1521TIP3   OH228757   6.943   3.740  17.947 -0.1427  0.0571 -0.5034
 1521TIP3    H128758   6.944   3.662  17.893 -2.4692  0.0681 -0.6680
 1521TIP3    H228759   7.006   3.722  18.017  0.4251 -1.3379 -1.3478
 1522TIP3   OH228760   7.038   5.407  16.986  0.0285  0.4157  0.2349
 1522TIP3    H128761   7.121   5.451  17.006  1.2370 -2.0665  1.0367
 1522TIP3    H228762   6.983   5.476  16.949  2.6244  2.0352 -0.8771
 1523TIP3   OH228763   7.311   1.922  18.078  0.2802  0.3816 -0.0570
 1523TIP3    H128764   7.291   2.009  18.044  1.2837  1.0260  0.9439
 1523TIP3    H228765   7.397   1.931  18.120  0.1753 -0.9578  0.5091
 1524TIP3   OH228766   5.772   2.966  18.536  0.6403 -0.1732 -0.6830
 1524TIP3    H128767   5.681   2.997  18.534  1.0571  1.0929 -0.7236
 1524TIP3    H228768   5.770   2.882  18.491 -0.5628 -0.2957 -0.4320
 1525TIP3   OH228769   0.215   3.484  18.502  0.4025 -0.1579 -0.8208
 1525TIP3    H128770   0.307   3.459  18.513 -0.0069 -1.4341 -0.1325
 1525TIP3    H228771   0.166   3.417  18.550 -0.8553  0.9469 -0.5019
 1526TIP3   OH228772   6.266   1.832  17.920  0.0974  0.3426 -0.4343
 1526TIP3    H128773   6.239   1.900  17.982 -0.0882 -0.3733  0.3014
 1526TIP3    H228774   6.304   1.879  17.846 -1.5353  1.3254 -0.6965
 1527TIP3   OH228775   3.821   6.983  18.679 -0.9918 -0.1556  0.6865
 1527TIP3    H128776   3.895   7.003  18.737 -2.2674 -0.0618  2.3547
 1527TIP3    H228777   3.861   6.943  18.602  1.2863  4.2722 -0.7513
 1528TIP3   OH228778   4.609   7.375  18.060  0.8821 -0.1180  0.2902
 1528TIP3    H128779   4.630   7.350  17.970  1.3777  0.6677  0.1813
 1528TIP3    H228780   4.564   7.298  18.096  0.1883 -0.2408 -0.7856
 1529TIP3   OH228781   6.598   5.535  16.385  0.1982 -0.2846 -0.0122
 1529TIP3    H128782   6.591   5.506  16.294 -1.0493  3.5931 -1.3407
 1529TIP3    H228783   6.510   5.522  16.420 -0.1572  1.0709 -0.3737
 1530TIP3   OH228784   6.494   0.559  18.004 -0.4331  0.1808 -0.2522
 1530TIP3    H128785   6.505   0.624  17.935 -1.1211  0.2830 -0.2753
 1530TIP3    H228786   6.575   0.562  18.054  0.4938 -0.5740 -1.6260
 1531TIP3   OH228787   6.559   6.183  18.317 -0.3170 -0.0881 -0.0196
 1531TIP3    H128788   6.523   6.095  18.310 -0.6976 -0.1749  2.2459
 1531TIP3    H228789   6.604   6.197  18.234 -0.7356 -2.1791 -0.6645
 1532TIP3   OH228790   2.458   2.061  17.581  0.1497 -0.4411  0.5114
 1532TIP3    H128791   2.435   2.058  17.673 -0.1795 -1.3653  0.4001
 1532TIP3    H228792   2.551   2.082  17.580 -0.3547  2.2118  0.9807
 1533TIP3   OH228793   4.440   6.428  16.947  0.9007 -0.0844  0.2077
 1533TIP3    H128794   4.367   6.368  16.929  0.1111  1.3130 -1.5803
 1533TIP3    H228795   4.405   6.514  16.927  2.0176  1.0306  2.6885
 1534TIP3   OH228796   0.108   1.322  18.412  0.1179 -0.5834  0.1833
 1534TIP3    H128797   0.021   1.338  18.376 -0.0286 -2.6933 -0.5181
 1534TIP3    H228798   0.135   1.238  18.374  2.4987  0.0477  0.3128
 1535TIP3   OH228799   0.930   1.012  16.356  0.0092  0.6189 -0.0617
 1535TIP3    H128800   0.989   0.957  16.408  1.1493  2.8939  1.2186
 1535TIP3    H228801   0.857   1.031  16.416  0.2041  1.4088 -0.0623
 1536TIP3   OH228802   2.626   2.741  18.389  0.1140  0.3052  0.0403
 1536TIP3    H128803   2.611   2.724  18.482 -0.0033 -0.0890 -0.0503
 1536TIP3    H228804   2.663   2.829  18.387  0.9192 -0.0032  0.5403
 1537TIP3   OH228805   0.678   6.119  17.634 -0.1418  0.0908 -0.4404
 1537TIP3    H128806   0.652   6.208  17.660  1.1276  0.5240 -0.6169
 1537TIP3    H228807   0.597   6.068  17.643 -0.8575  1.2198 -0.1828
 1538TIP3   OH228808   2.270   2.846  18.584  0.1378 -0.2615  0.6727
 1538TIP3    H128809   2.193   2.853  18.527 -0.5818 -0.1680  1.6328
 1538TIP3    H228810   2.278   2.752  18.602 -0.4541 -0.1542  1.5094
 1539TIP3   OH228811   3.969   1.029  16.488 -0.2442 -0.1818 -0.1694
 1539TIP3    H128812   3.966   1.124  16.480 -0.9804 -0.2566 -1.0636
 1539TIP3    H228813   3.987   1.013  16.580  1.4919  0.8241 -0.3005
 1540TIP3   OH228814   5.525   1.889  17.421 -0.1231 -0.7295 -0.5460
 1540TIP3    H128815   5.598   1.949  17.404 -0.6494  0.1018  0.0503
 1540TIP3    H228816   5.566   1.803  17.427  0.9376 -0.1828  0.5344
 1541TIP3   OH228817   3.961   6.364  16.115  0.9686 -0.0234  0.5283
 1541TIP3    H128818   3.888   6.415  16.078  0.4381 -0.0967  1.4261
 1541TIP3    H228819   4.004   6.324  16.039 -0.7954 -1.1419  0.0456
 1542TIP3   OH228820   0.747   5.549  16.547 -0.5293 -0.0275 -0.1955
 1542TIP3    H128821   0.751   5.598  16.629  1.3099 -1.6508  0.7590
 1542TIP3    H228822   0.807   5.595  16.488  0.7272 -0.7321  0.5004
 1543TIP3   OH228823   2.939   4.364  18.672  0.5408 -0.6983  0.2266
 1543TIP3    H128824   2.887   4.286  18.655 -1.0409  0.6029 -1.3253
 1543TIP3    H228825   2.996   4.372  18.595  0.6899 -0.3239  0.3742
 1544TIP3   OH228826   3.168   1.237  18.031  0.1949  0.4725 -0.2983
 1544TIP3    H128827   3.179   1.260  18.123  0.5597  0.6095 -0.3731
 1544TIP3    H228828   3.164   1.321  17.986  0.3804  0.4043 -0.4456
 1545TIP3   OH228829   6.176   7.431  18.605 -0.4471 -0.4508 -0.4488
 1545TIP3    H128830   6.189   7.508  18.661 -1.5696 -0.5204 -0.0618
 1545TIP3    H228831   6.235   7.365  18.642  0.5630  0.2229 -0.8161
 1546TIP3   OH228832   2.463   6.934  17.481 -0.5328 -0.0622  0.0402
 1546TIP3    H128833   2.416   7.007  17.521 -1.9510 -1.0817  0.2996
 1546TIP3    H228834   2.512   6.895  17.553  1.2124  1.3053 -0.3281
 1547TIP3   OH228835   6.352   0.810  17.357  0.3658  0.4069  0.0081
 1547TIP3    H128836   6.388   0.721  17.361  0.3609  0.4094  0.1037
 1547TIP3    H228837   6.319   0.818  17.267  2.4254  1.1087 -0.7375
 1548TIP3   OH228838   2.116   3.047  17.905 -0.2086  0.0004 -0.5483
 1548TIP3    H128839   2.164   3.116  17.952  0.0277  1.9885 -3.4171
 1548TIP3    H228840   2.024   3.068  17.920 -0.1610 -0.3693  0.3101
 1549TIP3   OH228841   4.193   3.725  16.859 -0.0571  0.4337 -0.6827
 1549TIP3    H128842   4.265   3.772  16.901  1.5051 -2.2759 -0.1049
 1549TIP3    H228843   4.117   3.783  16.869  1.4828  2.2858  0.9681
 1550TIP3   OH228844   0.236   4.405  17.823  0.0685 -0.3431 -0.0814
 1550TIP3    H128845   0.140   4.404  17.825  0.0447 -0.5757 -0.9231
 1550TIP3    H228846   0.260   4.492  17.854 -0.3920 -0.4801  0.6884
 1551TIP3   OH228847   5.267   0.550  16.729  0.1703 -0.7768  0.1115
 1551TIP3    H128848   5.281   0.522  16.639 -1.6188  1.2866 -0.8914
 1551TIP3    H228849   5.172   0.560  16.737  0.4709  2.3187  1.1201
 1552TIP3   OH228850   6.673   6.988  16.595  0.2535 -0.5254 -0.5941
 1552TIP3    H128851   6.580   6.974  16.576  0.1922  0.5705 -1.1765
 1552TIP3    H228852   6.675   7.014  16.687 -0.1470  0.5691 -0.8866
 1553TIP3   OH228853   6.443   0.907  18.069 -0.9715 -0.4373  0.4954
 1553TIP3    H128854   6.382   0.898  18.143 -0.3413 -0.0980  1.0669
 1553TIP3    H228855   6.529   0.891  18.107 -0.6773 -0.7212 -0.2691
 1554TIP3   OH228856   7.338   0.111  17.606 -0.1228 -0.1708 -0.2422
 1554TIP3    H128857   7.427   0.131  17.634  0.2008  1.0247 -1.9826
 1554TIP3    H228858   7.283   0.178  17.647  0.0335  0.1749 -0.5917
 1555TIP3   OH228859   4.675   4.118  17.995  0.0052  1.1681 -0.2647
 1555TIP3    H128860   4.581   4.114  18.007 -0.1317  0.3931 -1.3684
 1555TIP3    H228861   4.709   4.161  18.073 -1.1575  0.5095  0.6193
 1556TIP3   OH228862   4.643   1.886  16.778  0.0910  0.4646 -0.0611
 1556TIP3    H128863   4.664   1.876  16.685 -0.3871  3.6240 -0.6127
 1556TIP3    H228864   4.595   1.968  16.783  1.8009  1.4388  3.2573
 1557TIP3   OH228865   7.105   1.007  16.574  0.3220  0.0033  0.1344
 1557TIP3    H128866   7.074   0.967  16.656  0.9063 -1.6074 -0.3810
 1557TIP3    H228867   7.034   0.991  16.512 -0.4430  1.8805  0.4632
 1558TIP3   OH228868   6.101   6.780  18.428  0.0303  0.3273  0.1316
 1558TIP3    H128869   6.130   6.869  18.406 -0.7319  0.5386 -0.0404
 1558TIP3    H228870   6.006   6.783  18.421  0.0502 -0.7641 -0.8260
 1559TIP3   OH228871   3.185   4.229  17.781  0.2522 -0.3842 -0.3750
 1559TIP3    H128872   3.099   4.271  17.773  1.1114  1.3551 -0.8732
 1559TIP3    H228873   3.236   4.288  17.836  1.1504 -1.4226 -0.0444
 1560TIP3   OH228874   1.900   5.313  17.367 -0.0606 -0.6682 -0.5511
 1560TIP3    H128875   1.965   5.243  17.375  0.9872  0.1980 -1.3466
 1560TIP3    H228876   1.918   5.370  17.442 -1.9877 -2.0460  1.0853
 1561TIP3   OH228877   5.028   0.063  17.543 -0.4158  0.2555 -0.3131
 1561TIP3    H128878   5.053   0.143  17.589 -1.3260  0.1840  0.3193
 1561TIP3    H228879   5.060  -0.008  17.598 -0.8610  0.1765 -0.1525
 1562TIP3   OH228880   2.780   3.406  16.391 -0.0049  0.5017 -0.2012
 1562TIP3    H128881   2.725   3.457  16.451  0.4640 -0.3137  0.9661
 1562TIP3    H228882   2.865   3.451  16.392  0.0970  0.3118  0.0170
 1563TIP3   OH228883   1.602   1.662  18.366 -0.0148 -0.5090 -0.0053
 1563TIP3    H128884   1.543   1.630  18.297 -0.5901  1.6065 -0.5587
 1563TIP3    H228885   1.688   1.661  18.326 -0.5406  2.2099 -1.4239
 1564TIP3   OH228886   1.813   2.940  17.438  0.5320 -0.0787 -0.3834
 1564TIP3    H128887   1.875   3.002  17.399  1.3382 -0.7674 -0.2149
 1564TIP3    H228888   1.781   2.985  17.516  2.5524 -0.5766  0.8213
 1565TIP3   OH228889   5.031   0.326  17.619  0.4098 -0.1656 -0.1803
 1565TIP3    H128890   5.074   0.358  17.540  1.6175  2.4900  1.4237
 1565TIP3    H228891   4.968   0.395  17.641 -1.0842 -1.6264  0.3268
 1566TIP3   OH228892   5.456   3.215  17.051  0.2618  0.1360  0.4506
 1566TIP3    H128893   5.421   3.218  17.140  0.1357 -0.7168  0.4364
 1566TIP3    H228894   5.469   3.122  17.033 -1.1512  0.1809 -0.9920
 1567TIP3   OH228895   1.787   4.080  16.578  0.3599  0.0163  0.8234
 1567TIP3    H128896   1.844   4.107  16.506  0.3876  0.4640  1.0106
 1567TIP3    H228897   1.711   4.137  16.571  0.2518 -0.1053  1.0011
 1568TIP3   OH228898   5.935   5.254  16.806  0.1692 -0.0814  0.3482
 1568TIP3    H128899   5.973   5.334  16.842 -1.2731  0.8382 -0.1057
 1568TIP3    H228900   5.840   5.267  16.812 -0.1140 -0.8211 -1.7329
 1569TIP3   OH228901   5.845   5.032  17.032 -0.2700  0.1096  0.0379
 1569TIP3    H128902   5.815   5.049  16.942 -1.2039 -0.4567  0.2239
 1569TIP3    H228903   5.820   5.111  17.080  1.6569  1.0913 -0.5026
 1570TIP3   OH228904   1.041   2.559  18.578 -0.1598 -0.8338 -0.4973
 1570TIP3    H128905   0.956   2.561  18.621  0.0451  0.7295 -0.1170
 1570TIP3    H228906   1.032   2.619  18.503  1.2614  1.2762  0.9017
 1571TIP3   OH228907   6.647   2.078  16.698  0.1893  0.5646 -0.2866
 1571TIP3    H128908   6.609   2.059  16.612 -0.0210  2.3887 -0.6297
 1571TIP3    H228909   6.590   2.033  16.760  1.0981 -1.9186 -1.1235
 1572TIP3   OH228910   5.661   6.948  16.543  0.0537  0.1420 -0.3185
 1572TIP3    H128911   5.572   6.964  16.576  1.3048  1.8671  2.5856
 1572TIP3    H228912   5.687   6.865  16.583 -0.3952 -0.6659 -1.6399
 1573TIP3   OH228913   6.795   4.977  18.813 -0.2130 -0.3061 -0.3606
 1573TIP3    H128914   6.756   4.892  18.793 -0.2626 -0.3887  0.0679
 1573TIP3    H228915   6.837   4.964  18.898 -0.7686  0.2755  0.0123
 1574TIP3   OH228916   0.176   5.646  16.519 -0.1424 -0.2829 -0.2385
 1574TIP3    H128917   0.202   5.686  16.436  0.5989  0.7736  0.4751
 1574TIP3    H228918   0.258   5.617  16.559 -0.6943 -3.3861 -1.0941
 1575TIP3   OH228919   2.664   3.713  17.213 -0.0971 -0.7195 -0.3794
 1575TIP3    H128920   2.616   3.671  17.142 -0.3226 -0.1916 -0.5468
 1575TIP3    H228921   2.670   3.805  17.186  1.1265 -0.7994 -0.4311
 1576TIP3   OH228922   0.120   6.458  16.133 -0.2759  0.2563  0.0869
 1576TIP3    H128923   0.087   6.404  16.061  2.7576 -0.0336 -1.2102
 1576TIP3    H228924   0.097   6.409  16.212 -0.6590 -1.1861 -0.8812
 1577TIP3   OH228925   2.967   7.517  18.699  0.6780  0.0617  0.2435
 1577TIP3    H128926   2.915   7.437  18.709  0.9847  0.0220  1.6934
 1577TIP3    H228927   3.021   7.521  18.777  0.7684  1.6203  0.1367
 1578TIP3   OH228928   4.068   0.283  17.751  0.7969 -0.7103  0.1295
 1578TIP3    H128929   4.020   0.336  17.688  1.4746 -1.2366 -0.8472
 1578TIP3    H228930   4.022   0.199  17.752  0.2929 -0.4409  0.9716
 1579TIP3   OH228931   7.588   6.108  18.659 -0.0627 -0.1638 -0.2797
 1579TIP3    H128932   7.539   6.048  18.604  1.2335 -2.3422  0.7982
 1579TIP3    H228933   7.525   6.135  18.726 -0.3173 -1.4837  0.0429
 1580TIP3   OH228934   5.128   1.002  16.836  0.1771  0.0626 -0.0668
 1580TIP3    H128935   5.173   0.921  16.811 -1.2554 -0.4323 -1.2162
 1580TIP3    H228936   5.038   0.990  16.804 -0.4261  1.5579  0.9472
 1581TIP3   OH228937   1.143   4.525  16.361  0.2620  0.0137 -0.6593
 1581TIP3    H128938   1.194   4.472  16.422  0.3607  0.6651 -0.1738
 1581TIP3    H228939   1.140   4.611  16.401 -1.1591  0.0103 -0.7332
 1582TIP3   OH228940   1.438   3.705  18.711  0.4425  0.5973  0.3439
 1582TIP3    H128941   1.501   3.633  18.707 -0.1723 -0.1992  2.9448
 1582TIP3    H228942   1.357   3.665  18.742 -0.3863  2.1508  0.3168
 1583TIP3   OH228943   2.877   6.054  16.277 -0.0509  0.0667 -0.5758
 1583TIP3    H128944   2.921   6.110  16.213  1.3998  0.0520  0.3442
 1583TIP3    H228945   2.839   5.983  16.226 -0.1833  0.8249 -1.5547
 1584TIP3   OH228946   7.634   2.888  16.648 -0.0460  0.0941 -0.1709
 1584TIP3    H128947   7.686   2.912  16.725  1.4614  0.4104 -1.2429
 1584TIP3    H228948   7.629   2.968  16.596  0.0376 -0.4287 -1.0068
 1585TIP3   OH228949   0.109   6.025  18.127  0.0978  0.4624  0.7391
 1585TIP3    H128950   0.156   6.029  18.210  1.0150  1.0126  0.2012
 1585TIP3    H228951   0.177   6.020  18.060 -0.6270 -1.2698  0.0590
 1586TIP3   OH228952   4.652   2.814  18.282  0.1431  0.2904 -0.3299
 1586TIP3    H128953   4.716   2.873  18.322 -1.4659  1.2182  0.9978
 1586TIP3    H228954   4.700   2.772  18.211  2.1531  1.1058  0.4620
 1587TIP3   OH228955   3.022   7.506  16.753 -0.4226  0.1061  0.1538
 1587TIP3    H128956   3.087   7.489  16.685 -0.5951  0.1349 -0.0213
 1587TIP3    H228957   3.070   7.552  16.822 -0.2345  0.0288  0.0732
 1588TIP3   OH228958   5.998   1.313  17.484 -0.1367 -0.5743  0.2530
 1588TIP3    H128959   5.962   1.243  17.538 -1.2859 -0.4808 -0.3659
 1588TIP3    H228960   6.084   1.281  17.458  0.0027 -1.0684  1.2570
 1589TIP3   OH228961   4.574   4.600  16.852 -0.0819  0.5232 -0.4062
 1589TIP3    H128962   4.483   4.617  16.826 -0.8245 -1.3884  0.8073
 1589TIP3    H228963   4.606   4.538  16.786 -0.0937  0.1504 -0.0590
 1590TIP3   OH228964   5.618   3.443  17.381  0.0118  0.0974  0.1591
 1590TIP3    H128965   5.568   3.499  17.441  0.5019  1.6773 -0.8297
 1590TIP3    H228966   5.554   3.416  17.315 -0.1632 -0.2659  0.4766
 1591TIP3   OH228967   0.131   4.467  17.081  0.1777  0.1653  0.6495
 1591TIP3    H128968   0.194   4.483  17.152  1.3447  0.1563 -0.3417
 1591TIP3    H228969   0.177   4.409  17.021 -0.8472  0.0377 -0.0404
 1592TIP3   OH228970   2.315   1.986  18.738 -0.2099  0.1061  0.1678
 1592TIP3    H128971   2.364   1.973  18.819  0.3089  0.7761 -0.0254
 1592TIP3    H228972   2.306   2.081  18.731  1.6364  0.2176 -1.6408
 1593TIP3   OH228973   5.908   2.245  18.422 -0.2831  0.3601 -0.0908
 1593TIP3    H128974   5.912   2.222  18.515  0.3082  1.7385  0.2478
 1593TIP3    H228975   5.944   2.169  18.377  0.8661  0.2777  0.9143
 1594TIP3   OH228976   3.496   6.757  15.988 -0.4956 -0.3441 -0.4703
 1594TIP3    H128977   3.533   6.798  15.910  0.7521 -0.8960 -0.1910
 1594TIP3    H228978   3.572   6.733  16.041 -1.3029 -0.3907  0.7138
 1595TIP3   OH228979   5.555   0.853  16.578 -0.0709 -0.1389 -0.3282
 1595TIP3    H128980   5.479   0.831  16.631 -0.0924 -0.4830 -0.4939
 1595TIP3    H228981   5.624   0.793  16.609  0.7491  1.5370  1.2261
 1596TIP3   OH228982   4.896   3.303  16.178  0.0828 -0.4973  0.0482
 1596TIP3    H128983   4.927   3.328  16.265  0.4137  0.7242 -0.3928
 1596TIP3    H228984   4.903   3.383  16.127 -0.7923 -1.0166 -0.9193
 1597TIP3   OH228985   4.225   5.514  15.640 -0.1032  0.7264  0.5159
 1597TIP3    H128986   4.170   5.439  15.620  0.9016 -0.4044  1.7376
 1597TIP3    H228987   4.281   5.525  15.564  0.9694 -0.9493  1.0265
 1598TIP3   OH228988   1.469   0.973  17.602 -0.1648  0.2838 -0.5064
 1598TIP3    H128989   1.497   0.958  17.511  1.9097 -0.7840  0.2477
 1598TIP3    H228990   1.485   1.067  17.616 -0.3466  0.4258 -1.1884
 1599TIP3   OH228991   5.826   5.931  18.112 -0.3430 -0.1833 -0.2273
 1599TIP3    H128992   5.891   5.863  18.127 -0.4263 -0.0426  0.8741
 1599TIP3    H228993   5.746   5.884  18.090 -0.4191 -0.4699  0.6012
 1600TIP3   OH228994   2.024   4.150  18.080 -0.0235 -0.1920  0.2897
 1600TIP3    H128995   2.027   4.149  17.984 -0.3092  0.9786  0.2562
 1600TIP3    H228996   2.040   4.059  18.105 -1.3730 -0.7993 -0.9133
 1601TIP3   OH228997   0.524   6.235  17.375 -0.2421  0.6708  0.1487
 1601TIP3    H128998   0.611   6.259  17.406  0.2211 -0.2493 -0.4048
 1601TIP3    H228999   0.539   6.164  17.313 -1.2621  1.5316 -1.1370
 1602TIP3   OH229000   1.336   5.070  17.571  0.0095  0.6159 -0.2533
 1602TIP3    H129001   1.245   5.096  17.585 -0.0181  0.6604 -0.5100
 1602TIP3    H229002   1.332   4.976  17.555  0.0723  0.5091  0.3184
 1603TIP3   OH229003   3.924   3.455  19.114 -0.1440 -0.0077  0.5158
 1603TIP3    H129004   3.964   3.375  19.081 -2.0096 -0.6054 -0.4325
 1603TIP3    H229005   3.953   3.461  19.206  1.4529 -0.7647  0.0949
 1604TIP3   OH229006   5.797   6.335  17.548  0.8651  0.3266  0.3544
 1604TIP3    H129007   5.709   6.300  17.531  1.8623 -2.2355  0.0334
 1604TIP3    H229008   5.787   6.387  17.627 -1.0475  0.5815  0.0033
 1605TIP3   OH229009   1.993   3.885  16.329 -0.0029  0.0473 -0.6256
 1605TIP3    H129010   2.079   3.844  16.336 -0.0941 -0.0297  0.1277
 1605TIP3    H229011   1.990   3.947  16.401 -0.9886 -0.7226  0.0195
 1606TIP3   OH229012   7.494   6.732  18.513 -0.1653 -0.1820  0.1846
 1606TIP3    H129013   7.409   6.701  18.481 -0.0697  0.4108 -0.6720
 1606TIP3    H229014   7.540   6.652  18.538  0.4150 -0.9144 -2.7986
 1607TIP3   OH229015   0.983   6.455  17.939 -0.4653  0.1050 -0.3563
 1607TIP3    H129016   1.056   6.514  17.960 -1.4189  0.9487  0.7708
 1607TIP3    H229017   1.001   6.376  17.991  0.4346 -0.3327 -1.2994
 1608TIP3   OH229018   2.159   6.981  16.408 -0.1135 -0.4482  0.0978
 1608TIP3    H129019   2.208   7.063  16.416 -0.9842  0.2896 -1.5431
 1608TIP3    H229020   2.071   7.002  16.441 -0.1972 -0.8465  0.1305
 1609TIP3   OH229021   1.393   1.602  18.194  0.5373 -0.1933 -0.0207
 1609TIP3    H129022   1.353   1.565  18.273 -0.2261  0.6766  0.0087
 1609TIP3    H229023   1.395   1.529  18.132 -3.6997  0.3278 -1.0235
 1610TIP3   OH229024   1.940   2.901  16.452 -0.2421 -0.7319 -0.5142
 1610TIP3    H129025   1.965   2.812  16.425 -0.5448 -0.9727 -0.0293
 1610TIP3    H229026   1.844   2.899  16.452 -0.2521 -0.2694 -0.9283
 1611TIP3   OH229027   0.009   3.979  18.319  0.2837  0.6201  0.1612
 1611TIP3    H129028   0.051   3.911  18.371  2.1857  0.5254 -1.3899
 1611TIP3    H229029   0.039   4.061  18.358 -0.3686  0.5747  0.7730
 1612TIP3   OH229030   3.865   4.886  15.752  0.1911 -0.4094 -0.6311
 1612TIP3    H129031   3.941   4.944  15.760  2.0112 -1.9342 -4.2875
 1612TIP3    H229032   3.883   4.814  15.811 -0.2333  0.8822  1.1425
 1613TIP3   OH229033   2.383   4.538  17.130  0.0782 -0.0868 -0.4046
 1613TIP3    H129034   2.449   4.592  17.174  1.1894 -0.2123 -1.8483
 1613TIP3    H229035   2.433   4.464  17.094 -1.1702 -1.2482  0.1503
 1614TIP3   OH229036   5.049   5.312  16.842 -0.1951  0.4944 -0.3120
 1614TIP3    H129037   4.956   5.304  16.823 -0.1441 -0.1319 -0.3262
 1614TIP3    H229038   5.054   5.376  16.913 -0.5515  1.2566 -0.9609
 1615TIP3   OH229039   1.663   4.589  16.985 -0.2154  0.2511  0.0547
 1615TIP3    H129040   1.697   4.530  16.917  1.0320  0.8569  0.1273
 1615TIP3    H229041   1.698   4.675  16.962  0.5020  0.4165  1.6329
 1616TIP3   OH229042   2.040   1.923  18.375  0.5860 -0.0159 -0.4868
 1616TIP3    H129043   2.121   1.938  18.423 -0.1894  1.2699  0.5211
 1616TIP3    H229044   2.056   1.958  18.288  0.9214  0.8256 -0.0966
 1617TIP3   OH229045   3.762   1.694  18.853  0.5510 -0.4411  0.2642
 1617TIP3    H129046   3.736   1.675  18.763 -0.7295  1.0470  0.2706
 1617TIP3    H229047   3.718   1.776  18.874  2.1446  0.1180  1.7062
 1618TIP3   OH229048   3.737   2.129  16.158  0.2854 -0.6206  0.2603
 1618TIP3    H129049   3.782   2.045  16.152 -0.4435 -0.9932 -0.0163
 1618TIP3    H229050   3.647   2.107  16.180  0.2548  0.1275  0.9319
 1619TIP3   OH229051   5.267   7.117  18.689 -0.1469 -0.3139 -0.1757
 1619TIP3    H129052   5.250   7.126  18.595  0.6571  1.3117 -0.2009
 1619TIP3    H229053   5.343   7.058  18.694  0.2946  0.2067 -0.6088
 1620TIP3   OH229054   5.836   3.667  17.316 -0.1935  0.8583 -0.4661
 1620TIP3    H129055   5.806   3.732  17.253 -0.0083  1.6591  0.2548
 1620TIP3    H229056   5.762   3.607  17.327 -1.3116  2.4036  0.7659
 1621TIP3   OH229057   6.041   6.222  17.521 -0.5737 -0.2182  1.0512
 1621TIP3    H129058   5.961   6.275  17.528 -1.6302 -0.4659 -4.5778
 1621TIP3    H229059   6.104   6.280  17.479  0.5435 -1.4721  0.9537
 1622TIP3   OH229060   5.147   5.484  18.591 -0.3429  0.0841  0.0451
 1622TIP3    H129061   5.113   5.504  18.504  0.1177 -0.6372 -0.3096
 1622TIP3    H229062   5.071   5.488  18.649 -0.6524  0.5634 -0.3840
 1623TIP3   OH229063   3.829   0.071  17.098 -0.6844 -0.4184 -0.7538
 1623TIP3    H129064   3.899   0.082  17.034  0.3192 -2.3696 -0.0697
 1623TIP3    H229065   3.783  -0.009  17.070 -0.9145 -0.6812  0.3468
 1624TIP3   OH229066   4.004   3.534  18.836  0.1354 -0.0196  0.7133
 1624TIP3    H129067   3.962   3.574  18.913 -3.3791 -1.0474 -0.4601
 1624TIP3    H229068   3.987   3.441  18.846  2.0423 -0.4851 -0.0245
 1625TIP3   OH229069   0.454   0.086  18.586 -0.4089  0.0420 -0.4493
 1625TIP3    H129070   0.481   0.116  18.499  0.9831 -1.4221 -0.5695
 1625TIP3    H229071   0.537   0.067  18.631 -1.1453 -0.2636  0.8165
 1626TIP3   OH229072   2.503   5.379  18.613  0.0658 -0.6394 -0.4011
 1626TIP3    H129073   2.471   5.354  18.700  0.8125 -0.7660 -0.1531
 1626TIP3    H229074   2.444   5.448  18.585  0.0099 -0.3671  0.3520
 1627TIP3   OH229075   0.883   6.895  18.401 -0.5720 -0.0821  0.6037
 1627TIP3    H129076   0.930   6.823  18.359  0.2258 -0.3351  1.8755
 1627TIP3    H229077   0.895   6.880  18.495 -0.5991  1.5750  0.9034
 1628TIP3   OH229078   7.426   1.655  17.856  0.3236  0.2603  0.3549
 1628TIP3    H129079   7.495   1.589  17.845 -0.8061 -0.8966  0.0002
 1628TIP3    H229080   7.346   1.604  17.870 -0.2402  1.5579  2.3843
 1629TIP3   OH229081   0.815   0.782  17.608  0.2690  0.0881 -0.2370
 1629TIP3    H129082   0.906   0.771  17.578 -0.4601 -2.5863 -1.8472
 1629TIP3    H229083   0.774   0.835  17.541 -0.2871 -2.2638 -1.9103
 1630TIP3   OH229084   3.015   6.752  15.905 -0.0272  0.2681  0.8120
 1630TIP3    H129085   2.967   6.823  15.861  1.0052 -0.1086 -1.0568
 1630TIP3    H229086   3.088   6.796  15.949  1.0420  0.3752 -0.9581
 1631TIP3   OH229087   5.731   6.158  16.998  0.7274 -0.0025  0.2069
 1631TIP3    H129088   5.659   6.204  17.040  0.9127  0.7088 -0.2472
 1631TIP3    H229089   5.706   6.152  16.906  0.0494 -2.0688  0.4667
 1632TIP3   OH229090   3.781   6.341  15.748 -0.4950  0.0256 -0.2133
 1632TIP3    H129091   3.690   6.369  15.739 -0.2719  0.5389 -0.9795
 1632TIP3    H229092   3.777   6.245  15.742 -1.1321 -0.0697  1.2250
 1633TIP3   OH229093   0.442   0.385  18.663  0.3663 -0.1721 -0.1115
 1633TIP3    H129094   0.441   0.291  18.680 -0.7296 -0.2936 -0.7474
 1633TIP3    H229095   0.532   0.411  18.680  0.5458 -1.2191  0.6692
 1634TIP3   OH229096   3.193   6.617  17.652 -0.0450  0.1916  0.2748
 1634TIP3    H129097   3.181   6.702  17.610 -0.3300  0.4211  0.8126
 1634TIP3    H229098   3.104   6.588  17.675 -0.1330 -1.0712 -1.4657
 1635TIP3   OH229099   4.906   1.356  17.805  0.0732 -0.1508  0.9188
 1635TIP3    H129100   4.992   1.314  17.798 -0.6661 -1.7228  0.9353
 1635TIP3    H229101   4.915   1.437  17.756  1.8945  0.2711  1.8562
 1636TIP3   OH229102   2.566   3.638  17.780 -0.2579 -0.0097  0.0625
 1636TIP3    H129103   2.571   3.651  17.685  0.6551 -0.7281  0.0016
 1636TIP3    H229104   2.570   3.727  17.816  2.4979  0.1718 -0.4602
 1637TIP3   OH229105   1.977   4.708  18.010  0.4548  0.0426  0.5767
 1637TIP3    H129106   1.947   4.622  17.983  1.8215  0.4241 -2.5451
 1637TIP3    H229107   2.058   4.691  18.059 -0.3193 -0.4898  1.7211
 1638TIP3   OH229108   6.525   2.534  17.944  0.2810  0.7527  0.3198
 1638TIP3    H129109   6.450   2.586  17.971  0.2512  0.3596  1.0186
 1638TIP3    H229110   6.489   2.450  17.919  0.3443  1.0134 -0.6756
 1639TIP3   OH229111   6.358   4.915  17.867 -0.1286  0.9067 -0.5518
 1639TIP3    H129112   6.394   4.939  17.952  0.2653 -1.0502 -0.1279
 1639TIP3    H229113   6.279   4.865  17.887 -0.7089  1.4665 -1.3769
 1640TIP3   OH229114   4.727   6.412  16.453  0.0198  0.3325 -0.0591
 1640TIP3    H129115   4.632   6.403  16.454  0.0102  0.4341 -0.0516
 1640TIP3    H229116   4.744   6.494  16.499  0.3459 -1.7930  4.0837
 1641TIP3   OH229117   2.570   7.422  18.686  0.0565  0.3948  0.0864
 1641TIP3    H129118   2.612   7.508  18.686  0.5139  0.2020 -1.2158
 1641TIP3    H229119   2.476   7.441  18.684  0.1238  0.8423  0.8289
 1642TIP3   OH229120   0.550   4.492  17.623  0.1638  0.1681 -0.0495
 1642TIP3    H129121   0.606   4.547  17.678  1.3406 -1.0608  0.0343
 1642TIP3    H229122   0.565   4.524  17.534 -1.0737  1.5841  0.2149
 1643TIP3   OH229123   4.728   3.684  16.244 -0.4671  0.0978 -0.1521
 1643TIP3    H129124   4.701   3.773  16.265 -1.4680 -0.2885  0.3157
 1643TIP3    H229125   4.737   3.683  16.149 -1.8533  0.3574 -0.3142
 1644TIP3   OH229126   0.412   5.601  17.335  0.5295 -0.1264 -0.1757
 1644TIP3    H129127   0.494   5.647  17.316  0.1563  0.5059 -0.2985
 1644TIP3    H229128   0.384   5.565  17.251  0.1398  0.5716 -0.3538
 1645TIP3   OH229129   2.444   4.989  18.100  0.1967 -0.1259  0.0942
 1645TIP3    H129130   2.354   5.012  18.122  0.3854  0.0984  0.6365
 1645TIP3    H229131   2.463   4.911  18.151 -0.1826 -1.0697 -1.1578
 1646TIP3   OH229132   6.982   6.864  17.190  0.0107 -1.1220  0.6456
 1646TIP3    H129133   7.016   6.838  17.104 -0.0867 -1.3805  0.6844
 1646TIP3    H229134   7.017   6.798  17.250 -1.3164 -1.9451  0.5549
 1647TIP3   OH229135   3.467   1.449  17.983  0.6986 -0.0768 -0.5584
 1647TIP3    H129136   3.496   1.540  17.981 -1.9504  0.8737  0.3033
 1647TIP3    H229137   3.452   1.431  18.076 -3.1103  0.2097 -0.9486
 1648TIP3   OH229138   2.905   2.453  16.773 -0.7245 -0.3965 -0.0727
 1648TIP3    H129139   2.828   2.511  16.768  0.4197  1.3263  1.2345
 1648TIP3    H229140   2.979   2.510  16.751  0.2941 -1.7977 -0.3561
 1649TIP3   OH229141   7.423   2.155  17.724 -0.7241 -0.2648 -0.0136
 1649TIP3    H129142   7.422   2.156  17.629  0.8471 -0.1788 -0.0551
 1649TIP3    H229143   7.416   2.062  17.747 -0.7043 -0.3217 -0.2352
 1650TIP3   OH229144   0.318   6.093  17.922 -0.1889 -0.0257 -0.4116
 1650TIP3    H129145   0.378   6.131  17.987 -1.9745  1.2886  0.5583
 1650TIP3    H229146   0.309   6.162  17.856 -2.4376  0.8552  0.6952
 1651TIP3   OH229147   2.222   4.466  18.445 -0.0163  0.4838  0.2359
 1651TIP3    H129148   2.246   4.458  18.353 -1.3768 -0.1347 -0.0936
 1651TIP3    H229149   2.133   4.503  18.443 -0.2564 -0.0141  1.2783
 1652TIP3   OH229150   4.531   1.250  18.074 -0.4277  0.3343 -0.2692
 1652TIP3    H129151   4.591   1.319  18.047 -0.5907  0.3919 -0.4825
 1652TIP3    H229152   4.454   1.297  18.106 -0.2466  0.2690  0.2810
 1653TIP3   OH229153   7.433   5.180  17.195 -0.3648 -0.0666 -0.0728
 1653TIP3    H129154   7.452   5.258  17.247  0.5582 -0.6720  0.5351
 1653TIP3    H229155   7.487   5.111  17.234 -1.7592 -1.2136 -0.0789
 1654TIP3   OH229156   0.987   0.767  16.503 -0.1567  0.1504  0.1993
 1654TIP3    H129157   0.999   0.673  16.487  0.8421  0.3956 -0.5955
 1654TIP3    H229158   1.024   0.782  16.589 -1.9565 -0.4849  1.1329
 1655TIP3   OH229159   6.276   3.442  17.614  0.4846  0.3503 -0.2478
 1655TIP3    H129160   6.226   3.396  17.680  2.5710 -0.0736  1.1362
 1655TIP3    H229161   6.226   3.431  17.533 -0.9049 -1.1997  0.7726
 1656TIP3   OH229162   4.985   7.536  16.839  0.3183  0.5967  0.2782
 1656TIP3    H129163   4.981   7.441  16.853  0.1894  0.4841 -0.4777
 1656TIP3    H229164   5.060   7.548  16.780 -1.2483  0.6793 -1.8150
 1657TIP3   OH229165   2.378   7.214  17.049 -0.0373 -0.1008 -0.1347
 1657TIP3    H129166   2.285   7.193  17.040 -0.2592  0.4159  0.7326
 1657TIP3    H229167   2.393   7.211  17.144  0.9565 -0.6722 -0.3032
 1658TIP3   OH229168   1.126   0.712  17.351 -0.0312 -0.1897 -0.1100
 1658TIP3    H129169   1.145   0.769  17.426  1.0561 -0.0679 -0.4539
 1658TIP3    H229170   1.178   0.749  17.279 -1.8106  0.2747 -1.2020
 1659TIP3   OH229171   7.445   4.535  16.602 -0.3880 -0.1872  0.2951
 1659TIP3    H129172   7.411   4.551  16.690 -0.9047  1.2432 -0.1378
 1659TIP3    H229173   7.501   4.610  16.584 -2.1429  0.7770 -1.4799
 1660TIP3   OH229174   2.134   5.364  16.988 -0.3487  0.2530  0.4937
 1660TIP3    H129175   2.106   5.413  17.066  1.8330  3.7424 -0.6562
 1660TIP3    H229176   2.171   5.431  16.930 -0.6703 -2.3424 -3.0469
 1661TIP3   OH229177   0.264   3.008  15.722 -0.4868 -0.0930  0.2489
 1661TIP3    H129178   0.304   3.054  15.649 -1.9596  0.6392 -0.1310
 1661TIP3    H229179   0.337   2.963  15.765  0.9575  2.2705  0.4249
 1662TIP3   OH229180   1.248   2.494  17.856 -0.1932  0.3324 -0.0193
 1662TIP3    H129181   1.173   2.460  17.905 -0.4653  0.0615 -0.6167
 1662TIP3    H229182   1.248   2.588  17.875 -1.4118  0.5453 -0.9511
 1663TIP3   OH229183   2.622   3.251  18.562  0.0540 -0.2735 -0.4822
 1663TIP3    H129184   2.535   3.223  18.535 -0.4424  0.0378  0.7182
 1663TIP3    H229185   2.657   3.176  18.612 -0.1709  0.1833  0.3787
 1664TIP3   OH229186   1.062   6.431  18.736 -0.0854  0.2111  0.1722
 1664TIP3    H129187   1.004   6.379  18.791  0.0377 -1.3537 -1.1123
 1664TIP3    H229188   1.107   6.489  18.798 -0.4272 -1.0121  1.6351
 1665TIP3   OH229189   2.265   6.431  18.269  0.1432 -0.1636 -0.2673
 1665TIP3    H129190   2.187   6.459  18.316  0.0134 -0.5671 -0.2331
 1665TIP3    H229191   2.317   6.384  18.334  0.3568 -0.0004 -0.3180
 1666TIP3   OH229192   1.778   7.386  17.473  0.1431  0.3514 -0.4032
 1666TIP3    H129193   1.836   7.309  17.470  0.3947  0.4200  1.3013
 1666TIP3    H229194   1.817   7.448  17.411  1.1987 -0.0869 -0.2112
 1667TIP3   OH229195   0.323   6.375  18.347 -0.1593  0.1561 -0.0249
 1667TIP3    H129196   0.341   6.411  18.434  2.5762 -0.3515 -0.2890
 1667TIP3    H229197   0.322   6.451  18.290 -0.2656  0.3363  0.2113
 1668TIP3   OH229198   0.902   6.770  17.973  0.5529 -0.1415  0.5923
 1668TIP3    H129199   0.914   6.813  18.057  3.1845 -0.3523  0.4122
 1668TIP3    H229200   0.888   6.678  17.995 -0.3098  0.0377  0.8257
 1669TIP3   OH229201   7.336   6.903  18.676 -0.6871  0.2238  0.1903
 1669TIP3    H129202   7.277   6.848  18.727 -1.5894  0.1728 -0.8639
 1669TIP3    H229203   7.396   6.841  18.635 -0.5600  0.1850  0.4323
 1670TIP3   OH229204   2.783   4.656  16.417  0.5051 -0.6468 -0.5016
 1670TIP3    H129205   2.836   4.736  16.416  0.4068 -0.5629  0.3585
 1670TIP3    H229206   2.693   4.688  16.422  0.2916 -0.7670 -2.7756
 1671TIP3   OH229207   4.135   2.303  18.952  0.1947 -0.8844  0.2019
 1671TIP3    H129208   4.084   2.270  19.027 -0.1980 -0.5330  0.0866
 1671TIP3    H229209   4.090   2.268  18.875  0.3697 -0.9120  0.1106
 1672TIP3   OH229210   2.754   6.762  17.932 -0.0900  0.6680  0.0761
 1672TIP3    H129211   2.776   6.687  17.987 -1.4546  0.3535  0.2115
 1672TIP3    H229212   2.836   6.811  17.925  0.9052 -0.9518 -0.2212
 1673TIP3   OH229213   7.334   3.986  17.622  0.1377 -0.2008 -0.8314
 1673TIP3    H129214   7.365   3.975  17.532 -0.6426  1.2226 -1.3120
 1673TIP3    H229215   7.269   4.056  17.616 -0.3475 -0.4817  0.7576
 1674TIP3   OH229216   2.646   1.281  16.522  0.5440  0.1317  0.1274
 1674TIP3    H129217   2.581   1.347  16.545  0.3341 -0.8454  2.6804
 1674TIP3    H229218   2.727   1.331  16.511 -0.1720  1.1150 -0.9449
 1675TIP3   OH229219   1.324   4.167  17.813 -0.4127  0.3321  0.3618
 1675TIP3    H129220   1.242   4.119  17.822 -0.2271 -0.1162 -0.2944
 1675TIP3    H229221   1.330   4.189  17.720  0.4244 -0.0304  0.3225
 1676TIP3   OH229222   3.094   2.245  16.600  0.2666  0.1990  0.1461
 1676TIP3    H129223   3.187   2.229  16.615  0.3049  0.3562  0.0788
 1676TIP3    H229224   3.051   2.218  16.681  0.6212  2.5604  1.1753
 1677TIP3   OH229225   7.380   7.679  16.170 -0.5140 -0.3165 -0.2247
 1677TIP3    H129226   7.461   7.722  16.144 -0.6811  0.4240  0.4100
 1677TIP3    H229227   7.390   7.588  16.142  0.5937 -0.2736 -0.0089
 1678TIP3   OH229228   3.444   3.366  19.050  0.4696  0.1403  0.0548
 1678TIP3    H129229   3.426   3.361  19.144  0.0786 -1.7173 -0.0752
 1678TIP3    H229230   3.535   3.337  19.041 -0.0828 -1.6262 -0.2707
 1679TIP3   OH229231   3.647   1.079  18.646  0.0735 -0.1322 -0.1134
 1679TIP3    H129232   3.685   0.993  18.662  1.1201  0.4148  0.4409
 1679TIP3    H229233   3.684   1.107  18.562 -0.6344 -0.4084 -0.5278
 1680TIP3   OH229234   6.684   2.201  18.196 -0.1751 -0.0438  0.2087
 1680TIP3    H129235   6.597   2.240  18.191 -0.7081 -1.1296  0.6684
 1680TIP3    H229236   6.708   2.207  18.289  0.9535  1.6892 -0.1375
 1681TIP3   OH229237   5.854   0.418  18.884  0.4303  0.0553  0.7461
 1681TIP3    H129238   5.805   0.499  18.898 -1.1118 -0.6143 -0.4183
 1681TIP3    H229239   5.798   0.349  18.921 -0.4380 -0.9257 -2.0827
 1682TIP3   OH229240   0.158   4.061  16.557 -0.1337  0.1859  0.3367
 1682TIP3    H129241   0.072   4.050  16.599 -0.3316 -1.2292 -0.4004
 1682TIP3    H229242   0.140   4.118  16.482 -0.6504 -0.9078 -0.3998
 1683TIP3   OH229243   4.369   6.683  16.861 -0.1793  0.0728  0.3937
 1683TIP3    H129244   4.320   6.644  16.789  1.4705 -0.4002 -0.5380
 1683TIP3    H229245   4.435   6.738  16.818 -0.9521  2.0664  1.6247
 1684TIP3   OH229246   6.795   4.688  17.289 -0.9516  0.2070 -0.0673
 1684TIP3    H129247   6.754   4.717  17.370  0.3201 -0.0187  0.6852
 1684TIP3    H229248   6.801   4.593  17.298 -0.4925  0.2139 -0.2654
 1685TIP3   OH229249   4.373   1.089  18.673 -0.4853  0.2895  0.2182
 1685TIP3    H129250   4.453   1.082  18.621  0.0138  2.1110  0.6766
 1685TIP3    H229251   4.309   1.036  18.625  1.0438 -1.5397  0.0471
 1686TIP3   OH229252   2.381   3.437  16.976 -0.6528 -0.3428  0.1121
 1686TIP3    H129253   2.302   3.434  17.030 -1.6781  0.4487 -1.2678
 1686TIP3    H229254   2.349   3.427  16.886  0.8658 -0.3890 -0.4500
 1687TIP3   OH229255   7.147   1.576  16.733  0.1769  0.5428  0.5628
 1687TIP3    H129256   7.164   1.536  16.648  2.9225  0.3787  1.0813
 1687TIP3    H229257   7.118   1.665  16.713  0.7961  0.5040 -0.5535
 1688TIP3   OH229258   2.432   6.321  17.587  0.9763  0.3032  0.3134
 1688TIP3    H129259   2.340   6.335  17.567  1.0895 -0.8919 -1.2184
 1688TIP3    H229260   2.450   6.379  17.661 -0.9363  0.7141  0.4926
 1689TIP3   OH229261   2.997   6.476  17.021  0.3610  0.0126  0.2822
 1689TIP3    H129262   2.991   6.425  16.941  3.4050 -0.1635  0.0306
 1689TIP3    H229263   3.081   6.450  17.060 -0.0060  1.6725  2.3873
 1690TIP3   OH229264   3.921   1.652  19.080  0.0965 -0.1033 -0.5761
 1690TIP3    H129265   4.014   1.663  19.060  0.1002 -0.4930 -0.7869
 1690TIP3    H229266   3.877   1.674  18.998  0.0737 -1.1044 -0.8375
 1691TIP3   OH229267   4.951   3.953  18.158 -0.2961 -0.5435 -0.1110
 1691TIP3    H129268   4.932   3.915  18.244 -2.1698  0.1584 -0.1583
 1691TIP3    H229269   4.927   4.045  18.167  0.6624 -0.1866 -1.0458
 1692TIP3   OH229270   3.939   7.147  16.673 -0.0763  0.1297 -0.7118
 1692TIP3    H129271   3.927   7.113  16.762 -1.9713  1.1004 -0.5423
 1692TIP3    H229272   3.996   7.223  16.684  1.1240 -0.7636 -0.5913
 1693TIP3   OH229273   4.953   0.125  17.277  0.3997 -0.4399 -0.1146
 1693TIP3    H129274   4.962   0.067  17.353  0.3695  0.0489  0.2610
 1693TIP3    H229275   4.908   0.202  17.310  1.4502  0.2980 -0.3554
 1694TIP3   OH229276   7.480   2.268  18.060 -0.1543 -0.0872 -0.3088
 1694TIP3    H129277   7.399   2.256  18.010  0.8550 -1.1737 -1.7775
 1694TIP3    H229278   7.489   2.187  18.111  0.8332 -0.7608 -1.4755
 1695TIP3   OH229279   3.285   0.977  16.974 -0.0138 -0.2875  0.0863
 1695TIP3    H129280   3.307   1.040  17.043 -1.6636  0.6701 -0.2288
 1695TIP3    H229281   3.364   0.973  16.920  0.3169  1.1183  0.4147
 1696TIP3   OH229282   0.184   6.066  17.329  0.2565  0.4367  0.0528
 1696TIP3    H129283   0.221   6.017  17.403  1.4563 -1.3307 -1.5883
 1696TIP3    H229284   0.097   6.027  17.316 -0.0538  0.9155  0.6597
 1697TIP3   OH229285   5.755   0.482  17.099 -0.8246  0.1446  0.4849
 1697TIP3    H129286   5.723   0.460  17.187 -0.8944  0.2711  0.4913
 1697TIP3    H229287   5.719   0.569  17.082 -0.3895  0.3334  0.5342
 1698TIP3   OH229288   6.899   1.474  18.563  0.2732 -0.5767 -0.3818
 1698TIP3    H129289   6.808   1.446  18.567 -0.9611  2.3127 -3.3198
 1698TIP3    H229290   6.944   1.407  18.512 -1.0271 -0.4777 -1.6997
 1699TIP3   OH229291   5.213   2.806  17.450 -0.3018  0.0891  0.4009
 1699TIP3    H129292   5.232   2.893  17.485  2.0106  0.2997 -1.1336
 1699TIP3    H229293   5.298   2.761  17.453 -1.0794 -1.5158 -0.4529
 1700TIP3   OH229294   0.635   5.590  16.809 -0.0184  0.3612 -0.0347
 1700TIP3    H129295   0.726   5.598  16.839 -0.0974  1.0078  0.0362
 1700TIP3    H229296   0.599   5.519  16.862  0.5120 -0.0715 -0.2370
 1701TIP3   OH229297   1.862   5.606  17.002  0.1745 -0.5651  0.5309
 1701TIP3    H129298   1.781   5.562  17.027  1.2097 -2.2361  1.1034
 1701TIP3    H229299   1.855   5.618  16.907 -0.3005 -1.6179  0.4266
 1702TIP3   OH229300   0.802   5.254  17.283  0.7860 -0.0641 -0.1127
 1702TIP3    H129301   0.829   5.219  17.199 -0.1916  0.0267 -0.4780
 1702TIP3    H229302   0.713   5.221  17.295  0.2345  1.4061  0.0279
 1703TIP3   OH229303   1.374   3.794  17.104  0.0479 -0.5723 -0.3681
 1703TIP3    H129304   1.327   3.829  17.179 -0.3736 -0.5438 -0.6443
 1703TIP3    H229305   1.446   3.743  17.142  0.2213 -0.0266  0.0423
 1704TIP3   OH229306   5.469   1.083  17.043  0.3904 -0.6244 -0.0909
 1704TIP3    H129307   5.394   1.134  17.073  0.9909  1.1093 -1.3894
 1704TIP3    H229308   5.433   0.997  17.022 -1.1337  0.0014 -0.1440
 1705TIP3   OH229309   2.198   0.658  16.648 -0.5682  0.3561 -0.3115
 1705TIP3    H129310   2.269   0.641  16.710 -0.1423 -1.3547 -1.1924
 1705TIP3    H229311   2.118   0.655  16.701 -0.3120 -2.2194  0.0634
 1706TIP3   OH229312   2.802   5.776  16.590 -0.6207 -0.2025  0.1138
 1706TIP3    H129313   2.888   5.817  16.578 -0.6879 -0.1894 -0.3254
 1706TIP3    H229314   2.762   5.777  16.503 -0.6281 -1.1906  0.0962
 1707TIP3   OH229315   2.174   0.231  16.553  0.5099 -0.8945 -0.0558
 1707TIP3    H129316   2.090   0.276  16.557 -0.5789 -2.7357 -1.0124
 1707TIP3    H229317   2.221   0.262  16.630 -0.3035  1.5345 -0.4569
 1708TIP3   OH229318   6.993   2.884  16.796 -0.5592  0.1325  0.5582
 1708TIP3    H129319   6.956   2.968  16.823 -0.7290 -0.4797  2.3567
 1708TIP3    H229320   7.066   2.870  16.855  0.2417 -0.4352 -0.5347
 1709TIP3   OH229321   4.345   2.965  17.227  0.1423 -0.4135  0.4426
 1709TIP3    H129322   4.400   3.027  17.180 -0.3572 -0.6084 -0.4196
 1709TIP3    H229323   4.313   3.013  17.303  0.3270  0.1538  0.1626
 1710TIP3   OH229324   5.161   0.410  17.350  0.0040 -0.0878 -0.2144
 1710TIP3    H129325   5.238   0.408  17.292 -0.2527  0.2165 -0.5660
 1710TIP3    H229326   5.108   0.482  17.318  0.5164  1.0000  1.2576
 1711TIP3   OH229327   4.186   2.260  16.767  0.1096 -0.0001 -0.7859
 1711TIP3    H129328   4.211   2.351  16.752 -0.0544  0.3506  0.8300
 1711TIP3    H229329   4.190   2.250  16.862 -0.8057 -1.4158 -0.8716
 1712TIP3   OH229330   6.317   5.565  18.720 -0.5676 -0.0088 -0.5176
 1712TIP3    H129331   6.386   5.519  18.671 -0.7781 -0.4055 -0.4498
 1712TIP3    H229332   6.235   5.528  18.687 -0.7061 -0.6470  0.4592
 1713TIP3   OH229333   2.761   7.292  17.239 -0.1047  0.4186  0.0062
 1713TIP3    H129334   2.750   7.299  17.334  1.4745 -1.9376  0.4602
 1713TIP3    H229335   2.691   7.234  17.211  1.1146 -1.2767  0.2801
 1714TIP3   OH229336   5.589   6.360  17.182 -0.3070  0.3961  0.0012
 1714TIP3    H129337   5.645   6.436  17.167 -0.1889  0.4927  0.8622
 1714TIP3    H229338   5.507   6.397  17.214  0.3063  0.1148  2.0283
 1715TIP3   OH229339   0.009   4.457  18.032 -0.3285 -0.2660  0.3266
 1715TIP3    H129340  -0.064   4.400  18.053  0.9724 -2.1124  0.0734
 1715TIP3    H229341   0.066   4.451  18.109  0.3395 -0.1760 -0.1586
 1716TIP3   OH229342   3.106   1.768  18.537  0.3272  0.0755  0.1459
 1716TIP3    H129343   3.189   1.722  18.550 -0.6859 -1.5247  1.3939
 1716TIP3    H229344   3.112   1.844  18.594  0.3868 -0.8489  1.4210
 1717TIP3   OH229345   1.433   7.085  18.706  0.1652 -0.0600 -0.3229
 1717TIP3    H129346   1.452   7.068  18.613 -0.0691 -1.9732 -0.0635
 1717TIP3    H229347   1.338   7.101  18.708  0.5007  2.4751 -0.6813
 1718TIP3   OH229348   3.512   7.269  17.372 -0.2467  0.3616 -0.7025
 1718TIP3    H129349   3.453   7.332  17.413  0.8425  0.6756  0.4605
 1718TIP3    H229350   3.572   7.322  17.320  1.7356  0.5603  1.5952
 1719TIP3   OH229351   5.643   1.636  17.430 -0.2930 -0.2128 -0.2501
 1719TIP3    H129352   5.715   1.573  17.433  1.4754  1.6795 -1.3156
 1719TIP3    H229353   5.567   1.583  17.406  0.6591 -2.2885  1.0187
 1720TIP3   OH229354   3.566   3.603  17.217 -0.3819  0.0663  0.6065
 1720TIP3    H129355   3.595   3.673  17.275 -1.0402  1.2780 -0.4615
 1720TIP3    H229356   3.470   3.606  17.223 -0.4580  0.1700 -0.4519
 1721TIP3   OH229357   6.799   3.177  17.289 -0.3266  0.9899  0.0145
 1721TIP3    H129358   6.871   3.139  17.239 -0.4984  1.1192 -0.3330
 1721TIP3    H229359   6.842   3.226  17.360  0.0045  2.3962 -1.1028
 1722TIP3   OH229360   6.199   3.997  16.116  0.2617  0.1405  0.1024
 1722TIP3    H129361   6.143   4.047  16.057 -0.3837 -1.3090 -0.5513
 1722TIP3    H229362   6.261   4.062  16.150  0.7246  1.0232 -2.2384
 1723TIP3   OH229363   2.562   2.343  18.330 -0.7046 -0.0066  0.1205
 1723TIP3    H129364   2.573   2.402  18.405 -2.7326  0.0684  0.4243
 1723TIP3    H229365   2.649   2.336  18.292  0.3589  0.1382  2.3442
 1724TIP3   OH229366   6.905   2.835  18.613  0.6529  0.6566  0.4589
 1724TIP3    H129367   6.932   2.868  18.699  0.6572 -1.3830  1.2861
 1724TIP3    H229368   6.982   2.847  18.558  1.5855 -0.4798  1.4685
 1725TIP3   OH229369   6.230   1.903  17.305 -0.2536 -0.2833 -0.1034
 1725TIP3    H129370   6.305   1.934  17.356 -1.0891 -0.1159  1.0556
 1725TIP3    H229371   6.266   1.833  17.250  0.6815 -0.4646  0.7041
 1726TIP3   OH229372   0.478   1.342  18.557  0.3612 -0.1764 -0.1153
 1726TIP3    H129373   0.440   1.379  18.637 -5.2243 -2.1603 -1.3837
 1726TIP3    H229374   0.455   1.249  18.560  0.0430 -0.3745 -3.9131
 1727TIP3   OH229375   1.916   2.604  18.686 -0.1902  0.2402  0.3864
 1727TIP3    H129376   1.949   2.689  18.716  0.6492  0.3629 -0.8126
 1727TIP3    H229377   1.822   2.606  18.704 -0.0921  1.2222  0.8122
 1728TIP3   OH229378   2.464   2.008  17.037  0.3258 -0.1366 -0.2986
 1728TIP3    H129379   2.486   2.030  16.947  1.4307  0.1609  0.0240
 1728TIP3    H229380   2.395   1.943  17.030  1.3572 -1.1681 -1.3982
 1729TIP3   OH229381   4.397   6.688  18.597 -0.4624 -0.0945  0.2644
 1729TIP3    H129382   4.314   6.651  18.627  0.6791 -0.8803  2.7986
 1729TIP3    H229383   4.378   6.780  18.581 -1.8949 -0.3283  0.4857
 1730TIP3   OH229384   3.106   4.166  18.082 -0.4092  0.2132  0.2982
 1730TIP3    H129385   3.170   4.095  18.072 -0.5024  0.3014 -1.3218
 1730TIP3    H229386   3.024   4.129  18.049 -0.2809  1.2546 -1.3332
 1731TIP3   OH229387   3.439   0.657  16.997 -0.0116 -0.7428 -0.0713
 1731TIP3    H129388   3.518   0.694  16.957 -0.3257  0.2392  0.1964
 1731TIP3    H229389   3.470   0.583  17.048  0.6631 -0.7108 -0.4263
 1732TIP3   OH229390   0.239   3.289  16.403 -0.1174 -0.0662 -0.2167
 1732TIP3    H129391   0.157   3.279  16.354 -0.5804  0.2829  0.4729
 1732TIP3    H229392   0.214   3.278  16.495  0.5496  0.4190  0.0294
 1733TIP3   OH229393   7.165   6.335  18.813  0.0051  0.5506 -0.3390
 1733TIP3    H129394   7.217   6.363  18.888  1.3226  1.9767 -1.6973
 1733TIP3    H229395   7.085   6.387  18.818  0.0151  0.5173  0.1610
 1734TIP3   OH229396   2.556   4.019  17.288 -0.0500  0.2092 -0.2746
 1734TIP3    H129397   2.619   4.001  17.219  0.6806 -0.7636  0.6141
 1734TIP3    H229398   2.489   3.951  17.278  0.4407 -0.3934  0.4018
 1735TIP3   OH229399   7.062   0.562  17.688  0.2336 -0.6642  0.2242
 1735TIP3    H129400   7.005   0.639  17.694 -0.4099 -0.8588 -2.3057
 1735TIP3    H229401   7.132   0.579  17.751  1.2843  3.0479 -1.6133
 1736TIP3   OH229402   7.158   4.170  15.997  0.0330  0.0654  0.6493
 1736TIP3    H129403   7.094   4.103  16.021  1.1978 -1.3613 -0.0424
 1736TIP3    H229404   7.148   4.238  16.063 -1.7270 -0.4116  0.9236
 1737TIP3   OH229405   1.322   1.106  15.952 -0.5290 -0.6355 -0.5523
 1737TIP3    H129406   1.232   1.137  15.948 -1.0031 -1.8608  0.0520
 1737TIP3    H229407   1.344   1.110  16.045 -0.1055 -0.7433 -0.6463
 1738TIP3   OH229408   6.111   7.400  17.248 -0.4189  0.0657  0.0732
 1738TIP3    H129409   6.124   7.399  17.343  0.7723  1.2387 -0.0575
 1738TIP3    H229410   6.158   7.478  17.218 -0.6831 -0.3520 -1.5005
 1739TIP3   OH229411   6.050   1.667  18.179 -0.3217 -0.2992 -0.0449
 1739TIP3    H129412   6.104   1.745  18.189  1.0655 -1.1447 -0.6216
 1739TIP3    H229413   6.015   1.673  18.090 -0.6531 -0.0757  0.0989
 1740TIP3   OH229414   4.345   3.099  17.705 -0.2292  0.1503  0.1834
 1740TIP3    H129415   4.392   3.147  17.773 -0.5572  0.1774  0.3976
 1740TIP3    H229416   4.323   3.165  17.640 -0.5648  0.2659  0.4133
 1741TIP3   OH229417   7.042   2.816  18.284  0.0718 -0.1894  0.2062
 1741TIP3    H129418   7.116   2.873  18.305 -0.3998  0.3614  0.4228
 1741TIP3    H229419   7.053   2.740  18.341  0.0690  0.2335  0.7820
 1742TIP3   OH229420   1.032   6.701  18.271  0.1129  0.3223 -0.4398
 1742TIP3    H129421   1.111   6.684  18.219  1.3748  2.0713  0.8166
 1742TIP3    H229422   1.043   6.646  18.348 -1.0810 -1.1990 -1.2970
 1743TIP3   OH229423   0.171   2.329  17.109  0.0650  0.2655  0.0209
 1743TIP3    H129424   0.220   2.303  17.032  0.9543  1.5815  0.1203
 1743TIP3    H229425   0.153   2.247  17.155  0.5908 -0.4032 -0.9438
 1744TIP3   OH229426   5.539   1.883  18.874  0.6747 -0.3411 -0.3570
 1744TIP3    H129427   5.540   1.789  18.891 -1.4791 -0.1646  1.2389
 1744TIP3    H229428   5.446   1.904  18.860  1.3527  1.1384 -3.5428
 1745TIP3   OH229429   7.137   7.250  16.348  0.3123  0.5691  0.3320
 1745TIP3    H129430   7.111   7.190  16.278  1.3537  1.3047 -0.7335
 1745TIP3    H229431   7.210   7.206  16.391 -1.5448 -0.7899  2.3190
 1746TIP3   OH229432   5.877   7.406  17.052 -0.1652 -0.2865  0.3892
 1746TIP3    H129433   5.934   7.392  17.127 -0.3837 -0.4410  0.5265
 1746TIP3    H229434   5.789   7.385  17.084 -0.8058  2.8592  1.1204
 1747TIP3   OH229435   0.007   5.763  17.682  1.1841  0.4376 -0.2006
 1747TIP3    H129436  -0.082   5.789  17.705  0.5670 -1.2738 -0.4981
 1747TIP3    H229437   0.049   5.746  17.766  1.2284  1.2130 -0.0590
 1748TIP3   OH229438   6.692   4.369  17.744 -0.1974  0.4913 -0.4426
 1748TIP3    H129439   6.626   4.305  17.770  1.2108 -0.8218  0.0564
 1748TIP3    H229440   6.647   4.454  17.748 -2.0962 -0.4367 -1.0571
 1749TIP3   OH229441   6.329   4.724  17.253 -0.6284 -0.0894 -0.5364
 1749TIP3    H129442   6.266   4.668  17.298  0.1421 -1.4074 -1.0071
 1749TIP3    H229443   6.278   4.770  17.187 -1.2372 -0.5172 -0.3784
 1750TIP3   OH229444   2.993   7.133  18.369 -0.6782  0.0216 -0.0569
 1750TIP3    H129445   2.987   7.105  18.460  2.5668  0.0561  0.2815
 1750TIP3    H229446   2.939   7.070  18.321 -2.0397 -0.3056  1.8032
 1751TIP3   OH229447   3.524   6.373  17.540 -0.5796 -0.3147  0.0376
 1751TIP3    H129448   3.511   6.309  17.470  4.3871 -0.1409 -1.4091
 1751TIP3    H229449   3.485   6.454  17.507  1.2798 -0.3429 -2.5061
 1752TIP3   OH229450   2.866   0.302  17.351 -0.6007 -0.2669  0.4197
 1752TIP3    H129451   2.804   0.235  17.324 -0.0274 -0.3624 -0.7712
 1752TIP3    H229452   2.884   0.351  17.270  0.2981  0.2151  0.8944
 1753TIP3   OH229453   6.125   7.362  18.120  0.2098 -0.3336  0.3663
 1753TIP3    H129454   6.045   7.326  18.159  1.1001 -1.6472  1.0802
 1753TIP3    H229455   6.105   7.369  18.027 -1.0369  0.2410  0.6523
 1754TIP3   OH229456   3.169   2.818  15.812  0.2036 -0.0682 -0.4427
 1754TIP3    H129457   3.150   2.822  15.905  3.3340 -0.0299  0.3184
 1754TIP3    H229458   3.120   2.742  15.780  0.1490 -0.9256  1.5440
 1755TIP3   OH229459   5.471   2.025  18.127 -0.1149  0.0833 -0.0220
 1755TIP3    H129460   5.487   2.119  18.133 -0.4669  0.1213  0.3453
 1755TIP3    H229461   5.429   2.002  18.209  1.3767 -0.6879  0.5748
 1756TIP3   OH229462   0.057   3.054  17.156 -0.4485 -0.0301  0.1780
 1756TIP3    H129463  -0.005   2.983  17.173  1.3967 -1.1366  2.9263
 1756TIP3    H229464   0.035   3.121  17.220  1.2273 -0.5304  1.3453
 1757TIP3   OH229465   0.019   2.473  16.814 -0.1565 -0.0470  0.0157
 1757TIP3    H129466  -0.021   2.402  16.763 -2.0278  0.3410  0.8491
 1757TIP3    H229467   0.106   2.483  16.777 -0.2288 -2.0605 -0.8310
 1758TIP3   OH229468   3.633   5.043  17.851 -0.3569 -0.1841 -0.2963
 1758TIP3    H129469   3.707   4.992  17.884 -0.3822  0.4872  0.8529
 1758TIP3    H229470   3.585   5.070  17.929 -1.1795  0.3472 -0.9590
 1759TIP3   OH229471   1.126   3.828  18.050  0.4998  0.8233  0.3379
 1759TIP3    H129472   1.110   3.899  17.988 -1.4942  0.1972  0.0688
 1759TIP3    H229473   1.175   3.763  17.999  0.2040  0.9705 -0.1366
 1760TIP3   OH229474   2.783   2.031  17.280 -0.5745  0.1618  0.6341
 1760TIP3    H129475   2.857   2.015  17.222  0.7814 -0.1755  2.3496
 1760TIP3    H229476   2.817   2.012  17.368 -0.9827  5.0505  2.1949
 1761TIP3   OH229477   1.504   6.748  17.236  0.1515 -0.1725  0.4758
 1761TIP3    H129478   1.531   6.689  17.306  0.1241 -0.0664  0.5771
 1761TIP3    H229479   1.585   6.786  17.203  0.3147 -1.3982 -0.6018
 1762TIP3   OH229480   3.614   2.476  16.622  0.2438 -0.6560  0.4930
 1762TIP3    H129481   3.698   2.507  16.590  0.2153 -0.9347  0.1462
 1762TIP3    H229482   3.549   2.523  16.569  0.1589  0.0708  1.2129
 1763TIP3   OH229483   5.909   7.112  16.975 -0.1852  0.3808  0.6752
 1763TIP3    H129484   5.924   7.059  16.897  1.2111  1.6929  0.0039
 1763TIP3    H229485   5.899   7.201  16.942 -1.7091  0.6883  1.8395
 1764TIP3   OH229486   3.262   4.780  15.869 -0.1129  0.2403 -0.2889
 1764TIP3    H129487   3.276   4.749  15.958 -0.7967  2.6778  0.7683
 1764TIP3    H229488   3.167   4.775  15.857  0.0383 -0.7453 -1.1747
 1765TIP3   OH229489   3.276   1.384  17.390 -0.2338  0.0534 -0.3115
 1765TIP3    H129490   3.194   1.396  17.437  0.1340 -0.5931  0.5069
 1765TIP3    H229491   3.337   1.353  17.455  0.5196 -0.0259 -1.0393
 1766TIP3   OH229492   5.973   5.726  17.435 -0.2871 -0.4333 -0.1165
 1766TIP3    H129493   5.883   5.753  17.451 -0.1800 -0.4701  0.5662
 1766TIP3    H229494   6.024   5.807  17.440 -0.1252 -0.5807  0.7251
 1767TIP3   OH229495   3.599   3.751  17.718 -0.0818  0.2274 -0.3133
 1767TIP3    H129496   3.605   3.662  17.683  3.0027  0.0938  0.2332
 1767TIP3    H229497   3.662   3.752  17.791 -1.0057  2.5014  0.5546
 1768TIP3   OH229498   6.511   4.964  17.005 -0.4004  0.1856 -0.5556
 1768TIP3    H129499   6.559   4.960  17.088  1.8374 -2.6386 -1.7874
 1768TIP3    H229500   6.535   5.049  16.968  0.7297  0.3747  0.5151
 1769TIP3   OH229501   5.627   4.519  16.464 -0.6132  0.0476  0.3253
 1769TIP3    H129502   5.715   4.481  16.465 -1.0359 -0.9660  0.8628
 1769TIP3    H229503   5.620   4.563  16.379  0.0187 -0.8143 -0.1857
 1770TIP3   OH229504   2.815   7.618  16.500 -0.2123  0.0490  0.5398
 1770TIP3    H129505   2.841   7.710  16.498 -2.4247  0.7127 -1.4372
 1770TIP3    H229506   2.803   7.595  16.408 -3.0321 -1.1947  1.1394
 1771TIP3   OH229507   4.971   3.366  17.300 -0.3282  0.0517  0.0621
 1771TIP3    H129508   4.974   3.271  17.311 -0.1556  0.0779  0.2436
 1771TIP3    H229509   5.050   3.398  17.343 -0.3610  0.2738 -0.0423
 1772TIP3   OH229510   1.632   2.182  16.967 -0.4265 -0.2486 -0.0154
 1772TIP3    H129511   1.700   2.123  17.000 -1.1387 -0.7575  0.5785
 1772TIP3    H229512   1.679   2.244  16.911  0.8860  0.7523  2.0742
 1773TIP3   OH229513   6.988   1.294  17.925  0.3373  0.0381  0.0112
 1773TIP3    H129514   6.936   1.271  17.848  0.2168 -2.7827  0.8279
 1773TIP3    H229515   6.922   1.311  17.993  0.4605  1.4432 -0.1999
 1774TIP3   OH229516   5.760   0.579  17.658 -0.0091 -0.1221 -0.4078
 1774TIP3    H129517   5.717   0.654  17.616 -0.1428  0.7319  1.1875
 1774TIP3    H229518   5.828   0.618  17.712  0.6757 -1.2546 -0.4254
 1775TIP3   OH229519   4.350   6.438  17.407 -0.1125  0.3701 -0.2428
 1775TIP3    H129520   4.422   6.436  17.470 -1.2420 -1.3326  1.1203
 1775TIP3    H229521   4.279   6.391  17.451 -1.8476  1.3959 -1.7857
 1776TIP3   OH229522   0.409   5.919  16.702  0.5354  0.3805 -0.7949
 1776TIP3    H129523   0.320   5.884  16.700 -0.8409  3.3817  1.4121
 1776TIP3    H229524   0.424   5.950  16.613 -0.1243 -1.2124 -1.4990
 1777TIP3   OH229525   7.534   5.502  16.251 -0.4966 -0.2065  0.5355
 1777TIP3    H129526   7.600   5.560  16.289  0.7126 -1.2725  0.1683
 1777TIP3    H229527   7.581   5.419  16.237 -1.6225 -0.6582 -0.7754
 1778TIP3   OH229528   3.593   5.387  18.363  0.3493  0.0117 -0.0223
 1778TIP3    H129529   3.680   5.348  18.354 -0.1967 -1.6450  1.2620
 1778TIP3    H229530   3.535   5.312  18.377 -0.9185  1.2221  1.6230
 1779TIP3   OH229531   3.293   3.294  17.549 -0.2494  0.5529  0.3102
 1779TIP3    H129532   3.231   3.222  17.561 -0.6971  0.7253 -0.8649
 1779TIP3    H229533   3.379   3.251  17.548 -0.5039  0.0456 -0.2842
 1780TIP3   OH229534   5.678   2.169  16.556 -0.1206 -0.1552 -0.5042
 1780TIP3    H129535   5.712   2.106  16.494  0.4128  0.3790 -0.7606
 1780TIP3    H229536   5.583   2.158  16.552  0.0186 -2.7031  1.3162
 1781TIP3   OH229537   3.570   4.086  17.510  0.3593 -0.0836 -0.2034
 1781TIP3    H129538   3.648   4.092  17.454  0.3349  0.8196 -0.1552
 1781TIP3    H229539   3.498   4.068  17.449  0.5814 -0.8728 -0.2524
 1782TIP3   OH229540   5.374   4.113  16.811  0.1429  0.0715  0.3929
 1782TIP3    H129541   5.353   4.189  16.866  0.1437  1.1080 -0.9817
 1782TIP3    H229542   5.308   4.115  16.742  0.9309 -0.4227 -0.3867
 1783TIP3   OH229543   4.255   5.878  17.988  0.5090 -0.0948 -0.0755
 1783TIP3    H129544   4.286   5.905  18.075 -1.8911 -0.6172  1.0427
 1783TIP3    H229545   4.240   5.784  17.997 -2.2286  0.2592 -0.1551
 1784TIP3   OH229546   6.000   0.017  18.171  0.5838 -0.1050 -0.7306
 1784TIP3    H129547   6.089  -0.009  18.196  0.8917  0.4730 -1.1871
 1784TIP3    H229548   6.009   0.109  18.146 -0.3977  0.3292  0.4548
 1785TIP3   OH229549   1.142   0.472  18.577  0.6153 -0.0399 -0.5098
 1785TIP3    H129550   1.179   0.545  18.527  1.6154  1.3145  2.0018
 1785TIP3    H229551   1.209   0.404  18.573  0.3525 -0.2432 -1.6010
 1786TIP3   OH229552   3.258   5.345  16.870  0.1503 -0.0242 -0.4650
 1786TIP3    H129553   3.322   5.364  16.939 -0.8105 -2.8039  1.3511
 1786TIP3    H229554   3.310   5.309  16.799  0.7100 -3.2162  1.3729
 1787TIP3   OH229555   2.420   7.139  16.688  0.1749  0.0569 -0.6583
 1787TIP3    H129556   2.477   7.179  16.754 -2.3451 -0.9231  2.3798
 1787TIP3    H229557   2.443   7.046  16.691  0.0561  0.0116 -1.1797
 1788TIP3   OH229558   7.188   4.341  16.515 -0.4951  0.1855  0.3095
 1788TIP3    H129559   7.179   4.358  16.421  0.9718 -1.4359 -0.1797
 1788TIP3    H229560   7.258   4.400  16.543  0.2062 -0.4804  0.0000
 1789TIP3   OH229561   1.381   0.863  17.854  0.5621 -0.0454  0.7058
 1789TIP3    H129562   1.447   0.797  17.873  0.6042 -0.0913  0.3970
 1789TIP3    H229563   1.417   0.914  17.782  0.7695  0.6645  1.2979
 1790TIP3   OH229564   1.577   6.352  17.653  0.2638  0.2608 -0.5883
 1790TIP3    H129565   1.499   6.396  17.688  1.3078  1.5713  0.1982
 1790TIP3    H229566   1.574   6.264  17.690 -0.8634  0.2641 -0.6297
 1791TIP3   OH229567   1.414   5.450  18.094  0.3592 -0.1495  0.2121
 1791TIP3    H129568   1.472   5.399  18.150 -0.0939 -0.3221  0.5300
 1791TIP3    H229569   1.447   5.436  18.005  1.7871  1.0405  0.5079
 1792TIP3   OH229570   7.092   2.397  17.495 -0.3254  0.0353  0.0281
 1792TIP3    H129571   7.129   2.309  17.482  0.0602  0.2081 -0.0406
 1792TIP3    H229572   7.087   2.406  17.590 -0.3923 -0.0751  0.0364
 1793TIP3   OH229573   1.553   4.332  16.803 -0.3066 -0.0545 -0.1355
 1793TIP3    H129574   1.634   4.306  16.847  1.0826 -0.4187 -2.7511
 1793TIP3    H229575   1.483   4.298  16.860  1.3754 -2.6537  0.5282
 1794TIP3   OH229576   4.163   6.739  18.343 -0.4216  0.2449 -0.3140
 1794TIP3    H129577   4.149   6.646  18.327 -2.0847  0.2881  0.7061
 1794TIP3    H229578   4.251   6.756  18.309  0.1703 -1.8266  0.0661
 1795TIP3   OH229579   1.658   3.374  17.326 -0.6635 -0.2639  0.3570
 1795TIP3    H129580   1.721   3.311  17.291 -0.2531  0.0824  0.4555
 1795TIP3    H229581   1.583   3.321  17.352 -1.4421 -0.4345 -2.0180
 1796TIP3   OH229582   4.428   5.988  17.033 -0.4037  0.1381 -0.4603
 1796TIP3    H129583   4.360   6.049  17.061  0.4106  0.6528  0.4931
 1796TIP3    H229584   4.383   5.904  17.023 -1.3476  0.6739 -0.7710
 1797TIP3   OH229585   5.810   1.447  18.742  0.7224 -0.4637  0.7806
 1797TIP3    H129586   5.791   1.477  18.653  1.8560  1.0249  1.0045
 1797TIP3    H229587   5.753   1.371  18.754 -1.3515  0.8244 -0.2756
 1798TIP3   OH229588   0.629   3.581  17.001  0.3732  0.3823  0.1409
 1798TIP3    H129589   0.636   3.529  16.921 -0.3935 -0.8628  0.8403
 1798TIP3    H229590   0.678   3.531  17.066 -1.0330  0.0950  1.0234
 1799TIP3   OH229591   1.566   5.031  18.644 -0.2378  0.2556 -0.0195
 1799TIP3    H129592   1.476   5.023  18.677  0.7753  0.2026  3.0455
 1799TIP3    H229593   1.610   4.952  18.676  1.7809  2.0298  1.9208
 1800TIP3   OH229594   5.747   4.859  17.558  0.3211 -0.3124  0.0816
 1800TIP3    H129595   5.703   4.933  17.600 -0.9656 -1.0971  0.1543
 1800TIP3    H229596   5.770   4.891  17.471  0.8798  0.5540  0.5261
 1801TIP3   OH229597   4.942   4.218  17.835  0.4204 -0.0339  0.4766
 1801TIP3    H129598   4.932   4.313  17.822 -0.7788 -0.1969  0.0818
 1801TIP3    H229599   4.878   4.197  17.903 -0.6995 -0.8500 -0.7834
 1802TIP3   OH229600   5.922   2.877  16.231  0.1295  0.1207  0.4658
 1802TIP3    H129601   5.869   2.949  16.198  0.0084 -0.2547 -0.1766
 1802TIP3    H229602   6.001   2.879  16.178  0.9454  0.8955  1.6520
 1803TIP3   OH229603   1.119   3.147  18.810  0.8832  0.5068  0.2276
 1803TIP3    H129604   1.138   3.123  18.719  1.2583  1.3420  0.0743
 1803TIP3    H229605   1.031   3.114  18.826  1.6244 -1.5750  0.2619
 1804TIP3   OH229606   1.544   3.111  16.788  0.3038 -0.2161  0.3839
 1804TIP3    H129607   1.544   3.125  16.693 -0.2900 -0.4782  0.3407
 1804TIP3    H229608   1.611   3.045  16.803  0.7976  0.2376  0.2141
 1805TIP3   OH229609   1.487   0.488  18.690 -0.0305 -0.1901  0.2419
 1805TIP3    H129610   1.437   0.429  18.633 -0.0626 -0.3811  0.4671
 1805TIP3    H229611   1.474   0.452  18.778 -1.5481  1.1649  0.6303
 1806TIP3   OH229612   7.502   6.061  18.045  0.2128 -0.2848 -1.0851
 1806TIP3    H129613   7.450   6.119  18.101  0.7889 -1.0921  0.3501
 1806TIP3    H229614   7.512   5.981  18.097  1.2405 -0.8616 -2.1346
 1807TIP3   OH229615   7.083   5.286  17.390  0.3631  0.3996  0.1769
 1807TIP3    H129616   7.055   5.363  17.340  2.3050  1.7715  1.0604
 1807TIP3    H229617   7.092   5.318  17.480 -1.3337 -1.5659  1.1498
 1808TIP3   OH229618   6.433   7.564  16.884 -0.1140 -0.1660 -0.3203
 1808TIP3    H129619   6.399   7.521  16.963 -0.7683  3.1369  1.4218
 1808TIP3    H229620   6.363   7.555  16.820 -1.6841  0.9829  1.1075
 1809TIP3   OH229621   4.027   6.082  18.024  0.6929  0.0571 -0.1068
 1809TIP3    H129622   4.044   6.099  17.931 -0.7828  2.0147 -0.0955
 1809TIP3    H229623   4.106   6.113  18.069  1.4602 -1.0079 -0.6978
 1810TIP3   OH229624   3.714   2.758  17.137  0.1528 -0.9088  0.8247
 1810TIP3    H129625   3.687   2.707  17.214 -1.9366  0.7270  1.2673
 1810TIP3    H229626   3.803   2.787  17.157 -0.1955 -0.8831  2.4301
 1811TIP3   OH229627   0.468   6.923  18.576 -0.0620 -0.0101 -0.1547
 1811TIP3    H129628   0.401   6.991  18.584  3.0457  3.0826  4.6141
 1811TIP3    H229629   0.536   6.961  18.521  0.7473 -0.1664  0.7161
 1812TIP3   OH229630   5.019   3.050  18.518  0.0901  0.0772 -0.3648
 1812TIP3    H129631   4.954   3.116  18.541  0.7773 -0.0191  2.1544
 1812TIP3    H229632   4.999   3.026  18.428 -3.4022  0.0231  0.3059
 1813TIP3   OH229633   3.767   2.744  18.551  0.1689  0.4408  0.3239
 1813TIP3    H129634   3.682   2.785  18.533 -0.2240 -0.4041  0.2050
 1813TIP3    H229635   3.806   2.730  18.465 -0.5105 -1.0963  0.2372
 1814TIP3   OH229636   0.681   3.388  17.541  0.7482  0.2758 -0.3188
 1814TIP3    H129637   0.726   3.341  17.611  0.7078  1.2448  0.3861
 1814TIP3    H229638   0.676   3.479  17.573  0.7726  0.7468 -1.5973
 1815TIP3   OH229639   1.873   2.709  17.268 -0.0106  0.1458 -0.0771
 1815TIP3    H129640   1.843   2.780  17.325  2.2380 -0.4543  2.0089
 1815TIP3    H229641   1.967   2.722  17.262  0.3975 -2.3271 -0.0777
 1816TIP3   OH229642   4.971   3.132  17.433 -0.3904 -0.4333 -0.0725
 1816TIP3    H129643   5.058   3.096  17.452  1.1270  2.2821 -1.2774
 1816TIP3    H229644   4.948   3.181  17.512  0.1831  0.5655 -0.5042
 1817TIP3   OH229645   1.203   2.941  18.205  0.1519 -0.2165  0.1950
 1817TIP3    H129646   1.260   2.931  18.128  1.3479  0.7688  0.9054
 1817TIP3    H229647   1.242   3.013  18.254 -0.8256 -0.5541  1.5321
 1818TIP3   OH229648   4.769   6.418  16.189  0.5786  0.0952 -0.1455
 1818TIP3    H129649   4.850   6.452  16.150  0.4896  0.5685  0.0700
 1818TIP3    H229650   4.779   6.436  16.282 -0.5100  1.7392 -0.3021
 1819TIP3   OH229651   3.250   2.658  17.950  0.3402 -0.5492 -0.1059
 1819TIP3    H129652   3.258   2.636  18.043  1.7253 -1.4703 -0.4079
 1819TIP3    H229653   3.251   2.573  17.905  1.1214 -0.0748 -1.0422
 1820TIP3   OH229654   6.728   3.978  17.785  0.4805  0.1527  0.2716
 1820TIP3    H129655   6.636   4.001  17.777  0.2340 -0.3810  1.3596
 1820TIP3    H229656   6.734   3.889  17.752  0.6641  0.2813 -0.0483
 1821TIP3   OH229657   2.831   4.899  18.245  0.1734  0.3541  0.1281
 1821TIP3    H129658   2.793   4.865  18.165  0.1025  0.8712 -0.0642
 1821TIP3    H229659   2.923   4.872  18.242  0.0696  0.0051  0.0850
 1822TIP3   OH229660   7.563   0.429  16.759 -0.6184 -0.5581  0.0453
 1822TIP3    H129661   7.631   0.474  16.709 -0.4986 -0.4867  0.2671
 1822TIP3    H229662   7.562   0.341  16.724 -0.3999 -0.5634  0.0470
 1823TIP3   OH229663   1.650   7.579  18.772  0.2882  0.0292  0.6051
 1823TIP3    H129664   1.718   7.602  18.709  0.5642  2.5545  1.7093
 1823TIP3    H229665   1.694   7.583  18.857 -0.6540 -0.8802  1.1556
 1824TIP3   OH229666   1.342   6.973  17.809  0.2151 -0.0907  0.1074
 1824TIP3    H129667   1.364   6.916  17.735 -0.8397 -0.5214  0.1007
 1824TIP3    H229668   1.246   6.970  17.813  0.2922 -2.1056  3.0587
 1825TIP3   OH229669   0.930   6.089  16.597  0.1191 -0.4502  0.0925
 1825TIP3    H129670   0.992   6.159  16.616 -0.5049 -0.2596  1.5539
 1825TIP3    H229671   0.880   6.121  16.522 -0.7121  1.0914  1.2292
 1826TIP3   OH229672   5.154   3.819  17.244  0.3326 -0.4329 -0.0907
 1826TIP3    H129673   5.201   3.741  17.215  0.6015 -0.0333 -0.7449
 1826TIP3    H229674   5.221   3.872  17.289 -0.0811 -1.0537  1.3147
 1827TIP3   OH229675   5.001   6.500  16.084  0.0988 -0.5997  0.7512
 1827TIP3    H129676   5.040   6.431  16.030  1.5378 -0.0207  1.0043
 1827TIP3    H229677   5.075   6.557  16.108 -0.7240 -0.0836  2.2075
 1828TIP3   OH229678   0.456   4.889  17.747  0.2321 -0.3478 -0.3654
 1828TIP3    H129679   0.367   4.926  17.748 -0.1471 -1.2384 -0.0310
 1828TIP3    H229680   0.508   4.952  17.697  0.0431  1.6019  1.7399
 1829TIP3   OH229681   6.089   3.899  17.982  0.1366  0.0745  0.1127
 1829TIP3    H129682   6.092   3.807  17.955 -2.5652 -0.5702  1.6196
 1829TIP3    H229683   6.067   3.947  17.902  1.8122 -0.5141 -0.7357
 1830TIP3   OH229684   2.829   3.802  17.884 -0.1107  0.0139 -0.0968
 1830TIP3    H129685   2.764   3.830  17.819 -0.2266  0.1885  0.0957
 1830TIP3    H229686   2.913   3.812  17.838 -0.2160 -0.1982 -0.3404
 1831TIP3   OH229687   5.168   4.680  17.639 -0.0021 -0.1653  0.0298
 1831TIP3    H129688   5.158   4.775  17.649 -0.9862 -0.2408 -0.1434
 1831TIP3    H229689   5.244   4.670  17.581  0.1548  0.5107  0.1137
 1832TIP3   OH229690   7.571   2.842  17.112  0.0278 -0.3537 -0.5598
 1832TIP3    H129691   7.491   2.852  17.163  0.3522  0.7013 -0.2379
 1832TIP3    H229692   7.566   2.753  17.077 -0.5271 -0.8566  0.7381
 1833TIP3   OH229693   5.717   6.585  16.428  0.1763 -0.1078 -0.1691
 1833TIP3    H129694   5.698   6.656  16.367  2.1227 -0.2170 -0.9938
 1833TIP3    H229695   5.812   6.590  16.441  0.1178 -1.5356  1.0452
 1834TIP3   OH229696   1.895   4.454  17.964 -0.6655 -0.4881 -0.0757
 1834TIP3    H129697   1.848   4.439  18.045 -2.4754 -0.5776 -1.0868
 1834TIP3    H229698   1.858   4.391  17.902  0.2358 -0.0288 -1.1317
 1835TIP3   OH229699   5.717   1.932  18.199 -0.2427  0.1279 -0.2975
 1835TIP3    H129700   5.629   1.908  18.170  0.0882  0.1911 -1.3650
 1835TIP3    H229701   5.735   2.015  18.157  0.5672 -0.1772 -0.5755
 1836TIP3   OH229702   2.426   5.824  18.790  0.3806  0.5281  0.4452
 1836TIP3    H129703   2.418   5.902  18.844  0.8825  0.9860 -0.1316
 1836TIP3    H229704   2.452   5.856  18.704 -2.0252 -0.0083 -0.5836
 1837TIP3   OH229705   5.296   2.965  16.712  0.1026  0.6669  0.4381
 1837TIP3    H129706   5.296   2.979  16.806 -1.0711  0.7049  0.4515
 1837TIP3    H229707   5.359   2.894  16.698 -1.5991 -1.1870  1.5867
 1838TIP3   OH229708   1.424   0.303  17.636 -0.1135  0.2983  0.3125
 1838TIP3    H129709   1.391   0.335  17.552 -0.2187 -2.7304 -0.9359
 1838TIP3    H229710   1.347   0.262  17.677  0.2970  0.3490  1.1414
 1839TIP3   OH229711   6.428   5.636  17.898  0.4194  0.3773  0.6730
 1839TIP3    H129712   6.344   5.650  17.855  0.6466  0.8049  0.3608
 1839TIP3    H229713   6.411   5.655  17.991  0.4906  1.8339  0.4093
 1840TIP3   OH229714   3.482   2.546  17.062 -0.2411 -0.4102  0.4759
 1840TIP3    H129715   3.482   2.571  17.154 -0.5721 -1.0938  0.6718
 1840TIP3    H229716   3.573   2.519  17.045  0.2386  1.3358  0.1291
 1841TIP3   OH229717   1.618   7.551  18.286  0.3778  0.6015 -0.4340
 1841TIP3    H129718   1.681   7.562  18.215 -0.7875  0.5946 -1.5142
 1841TIP3    H229719   1.656   7.483  18.342  1.7185  1.1995 -0.5677
 1842TIP3   OH229720   4.782   0.934  18.280 -0.1187 -0.2778  0.1682
 1842TIP3    H129721   4.701   0.900  18.319 -0.0016  0.5395  1.1363
 1842TIP3    H229722   4.826   0.857  18.245 -1.1559 -0.7764 -0.0889
 1843TIP3   OH229723   0.675   4.081  16.846  0.0737 -0.3936  0.0088
 1843TIP3    H129724   0.706   4.003  16.893  0.3457 -0.5818 -0.4784
 1843TIP3    H229725   0.713   4.074  16.759 -1.8964 -0.9785 -0.8503
 1844TIP3   OH229726   1.793   6.326  16.614  0.3111 -0.1303 -0.5343
 1844TIP3    H129727   1.817   6.240  16.579 -1.3906 -1.0721  0.5065
 1844TIP3    H229728   1.698   6.323  16.623  0.2943  1.5848  0.3073
 1845TIP3   OH229729   3.854   0.226  17.357 -0.5752  0.4511  0.1837
 1845TIP3    H129730   3.945   0.213  17.330 -0.7529 -0.4154 -0.0295
 1845TIP3    H229731   3.819   0.290  17.295 -0.0560  0.9404  0.3911
 1846TIP3   OH229732   5.143   7.007  16.683 -0.2747  0.1793  0.2167
 1846TIP3    H129733   5.212   6.940  16.680  0.0281  0.5206 -1.1540
 1846TIP3    H229734   5.084   6.984  16.612 -0.9456  0.5788  0.6260
 1847TIP3   OH229735   6.152   6.491  17.054 -0.3608 -0.7570  0.4954
 1847TIP3    H129736   6.071   6.444  17.075 -0.3827 -0.6893  0.5657
 1847TIP3    H229737   6.207   6.481  17.132  0.5552 -2.5844 -0.3299
 1848TIP3   OH229738   0.067   5.357  16.679 -0.0421 -0.3540  0.5243
 1848TIP3    H129739   0.129   5.368  16.607 -0.6492  2.4579  0.3055
 1848TIP3    H229740  -0.005   5.306  16.641  0.9195 -1.3638  0.0189
 1849TIP3   OH229741   3.885   3.670  16.149 -0.6039  0.1508 -0.2256
 1849TIP3    H129742   3.795   3.664  16.116 -0.1416 -1.1617 -1.3377
 1849TIP3    H229743   3.919   3.581  16.144  0.7520  0.6087  0.2399
 1850TIP3   OH229744   3.942   0.202  16.251  0.1230  0.0233 -0.1741
 1850TIP3    H129745   3.940   0.285  16.204  1.4423  0.5454  0.6226
 1850TIP3    H229746   4.034   0.174  16.246  0.0977 -0.3940  1.2341
 1851TIP3   OH229747   5.201   0.848  18.606  0.0240  0.7022 -0.2906
 1851TIP3    H129748   5.263   0.921  18.608  0.0736  0.6683 -0.5494
 1851TIP3    H229749   5.130   0.878  18.550 -1.1438  1.4812  1.5139
 1852TIP3   OH229750   6.920   4.486  16.338 -0.0304 -0.1460 -0.5507
 1852TIP3    H129751   6.906   4.529  16.422 -2.2175 -1.1161 -0.3263
 1852TIP3    H229752   6.836   4.497  16.291 -0.1670 -2.7266 -1.0839
 1853TIP3   OH229753   3.538   5.517  17.428  0.1229 -0.1836 -0.0227
 1853TIP3    H129754   3.470   5.503  17.362  1.4340  0.2942 -1.5430
 1853TIP3    H229755   3.540   5.612  17.440 -0.6633 -0.3153  1.3629
 1854TIP3   OH229756   2.934   5.789  17.378 -0.2739  0.0008 -0.6399
 1854TIP3    H129757   2.945   5.854  17.446 -0.6869  0.0180 -0.5852
 1854TIP3    H229758   2.967   5.708  17.416 -0.3257  0.0511 -0.4897
 1855TIP3   OH229759   0.097   1.149  16.691 -0.6314  0.2510  0.0290
 1855TIP3    H129760   0.130   1.071  16.648  0.2046  1.3909 -1.4969
 1855TIP3    H229761   0.016   1.170  16.645  0.2995  1.5112 -1.1364
 1856TIP3   OH229762   6.839   0.399  17.125  0.0910 -0.1123 -0.6629
 1856TIP3    H129763   6.867   0.475  17.073  0.7316  1.3868  1.7169
 1856TIP3    H229764   6.921   0.354  17.146 -0.3003 -1.6341 -2.2015
 1857TIP3   OH229765   3.474   2.501  18.836 -0.3785  0.3238 -0.6232
 1857TIP3    H129766   3.476   2.450  18.917 -0.1462  2.6126  0.9241
 1857TIP3    H229767   3.398   2.468  18.789 -1.5448  0.0236  1.3454
 1858TIP3   OH229768   5.230   7.656  16.751  0.0357  0.1591  0.1563
 1858TIP3    H129769   5.246   7.748  16.729  0.4621 -0.2386 -1.2414
 1858TIP3    H229770   5.198   7.659  16.841  1.0120  1.5936  0.4900
 1859TIP3   OH229771   0.108   0.614  18.000 -1.0291 -0.1969 -0.3829
 1859TIP3    H129772   0.156   0.572  17.929  1.1433  1.8738 -0.2709
 1859TIP3    H229773   0.097   0.705  17.970 -0.7866  0.5101  1.5463
 1860TIP3   OH229774   5.720   6.987  15.900  0.0222  0.3182 -0.0299
 1860TIP3    H129775   5.748   6.984  15.809 -1.4977 -0.2487 -0.5137
 1860TIP3    H229776   5.642   6.931  15.903 -0.2338  0.7088  1.5120
 1861TIP3   OH229777   3.483   5.083  17.625 -0.7915  0.1513  0.2104
 1861TIP3    H129778   3.569   5.089  17.584 -0.2598 -1.2515  1.0343
 1861TIP3    H229779   3.502   5.067  17.718 -1.9331 -0.1225  0.4128
 1862TIP3   OH229780   6.885   3.135  18.277  0.7821 -0.0242  0.4053
 1862TIP3    H129781   6.792   3.128  18.255  1.2088  1.0428 -2.1495
 1862TIP3    H229782   6.890   3.109  18.369 -1.9949 -0.2715  0.5844
 1863TIP3   OH229783   0.726   5.274  18.305  0.2415 -0.2832  0.4172
 1863TIP3    H129784   0.732   5.369  18.298 -0.2427 -0.2276  0.6682
 1863TIP3    H229785   0.816   5.244  18.314  0.6339 -0.0541 -2.0649
 1864TIP3   OH229786   7.544   3.150  18.217 -0.3890 -0.3143  0.0551
 1864TIP3    H129787   7.512   3.070  18.176  0.1348  0.0403 -1.0926
 1864TIP3    H229788   7.477   3.173  18.281 -1.0484 -1.1047 -0.3351
 1865TIP3   OH229789   2.441   2.733  17.246  0.3047 -0.0743 -0.2138
 1865TIP3    H129790   2.465   2.809  17.298  1.2098  0.4918 -1.4015
 1865TIP3    H229791   2.489   2.660  17.286 -1.6670 -0.3688  1.8132
 1866TIP3   OH229792   7.607   1.013  18.343  0.1478  0.1994  0.3342
 1866TIP3    H129793   7.574   0.965  18.419  0.3941  0.9827  0.9499
 1866TIP3    H229794   7.528   1.051  18.304 -0.0739 -0.8395 -0.2762
 1867TIP3   OH229795   6.989   0.492  18.680  0.1187 -0.6631  0.2848
 1867TIP3    H129796   7.068   0.439  18.677  0.2292 -0.4654 -0.6112
 1867TIP3    H229797   6.921   0.432  18.712  0.1570 -1.4896 -1.0949
 1868TIP3   OH229798   3.251   7.440  16.622 -0.5891  0.3394 -0.7881
 1868TIP3    H129799   3.337   7.480  16.638 -0.0412 -1.0774 -0.0452
 1868TIP3    H229800   3.270   7.368  16.562 -1.3903  0.4664 -1.2028
 1869TIP3   OH229801   5.654   0.634  18.902 -0.1629 -0.2290  0.0706
 1869TIP3    H129802   5.561   0.649  18.892  0.2699  2.0313 -1.1395
 1869TIP3    H229803   5.675   0.670  18.988 -0.3500 -0.5067  0.2347
 1870TIP3   OH229804   0.130   0.161  17.300  0.1384  0.1698  0.3458
 1870TIP3    H129805   0.117   0.176  17.394  1.8501 -1.8683  0.9959
 1870TIP3    H229806   0.042   0.165  17.263 -1.0489 -2.1827  2.5828
 1871TIP3   OH229807   1.176   4.325  17.643  0.1276 -1.2910 -0.1386
 1871TIP3    H129808   1.168   4.344  17.550 -0.8481 -3.0863 -0.4776
 1871TIP3    H229809   1.220   4.402  17.680 -0.5052 -0.0336 -1.8661
 1872TIP3   OH229810   6.487   4.157  17.774  0.6822 -0.6390 -0.0414
 1872TIP3    H129811   6.451   4.068  17.774  0.4041 -0.5294 -0.2852
 1872TIP3    H229812   6.447   4.200  17.849  0.9784 -0.7829  0.2017
 1873TIP3   OH229813   3.237   7.585  18.121 -0.2152  0.2464  0.0958
 1873TIP3    H129814   3.229   7.603  18.027  1.5181 -0.2194 -0.1635
 1873TIP3    H229815   3.169   7.520  18.139  1.5401 -2.2364 -1.5811
 1874TIP3   OH229816   5.002   5.866  16.965 -0.4069 -0.5875 -0.4006
 1874TIP3    H129817   4.981   5.950  16.923 -0.7879  0.0188  0.9415
 1874TIP3    H229818   4.930   5.808  16.940 -1.1873  0.0720  0.2637
 1875TIP3   OH229819   5.034   2.911  18.190 -0.3203 -0.3215 -0.2938
 1875TIP3    H129820   5.030   2.856  18.268 -1.7109  0.6292  0.3371
 1875TIP3    H229821   4.951   2.896  18.145  1.1489 -2.2602 -2.6425
 1876TIP3   OH229822   7.321   6.448  18.974  0.2177  0.0030  0.2311
 1876TIP3    H129823   7.346   6.480  19.061  1.5317  1.7701 -0.7355
 1876TIP3    H229824   7.395   6.472  18.917 -1.6705  1.2096 -1.8768
 1877TIP3   OH229825   3.138   3.576  17.370  0.3065  0.6111 -0.8503
 1877TIP3    H129826   3.068   3.635  17.342  0.4440  0.7520 -0.8990
 1877TIP3    H229827   3.218   3.616  17.336  0.4137  0.4656 -0.7703
 1878TIP3   OH229828   2.381   1.839  17.415  0.1160  0.6041 -0.2161
 1878TIP3    H129829   2.397   1.923  17.457 -1.9029  1.5627 -1.2500
 1878TIP3    H229830   2.447   1.834  17.346  1.2498  0.5719  0.8255
 1879TIP3   OH229831   2.900   5.043  16.386  0.1478 -0.0137  0.1633
 1879TIP3    H129832   2.875   5.039  16.294 -0.6795 -1.8426  0.4270
 1879TIP3    H229833   2.986   5.084  16.386  0.0653  0.2215 -1.3861
 1880TIP3   OH229834   4.946   2.735  18.397 -0.4450 -0.1069 -0.4427
 1880TIP3    H129835   5.030   2.703  18.430 -0.5808 -0.2589 -0.2408
 1880TIP3    H229836   4.885   2.717  18.468 -0.7484 -0.4463 -0.7886
 1881TIP3   OH229837   6.307   4.536  18.439  0.2329 -0.1169 -0.3391
 1881TIP3    H129838   6.249   4.550  18.514  0.9580  1.7696 -0.0758
 1881TIP3    H229839   6.249   4.507  18.369 -1.3081  2.8503 -0.4386
 1882TIP3   OH229840   1.967   3.617  17.740  0.4805 -0.0049 -0.2003
 1882TIP3    H129841   1.883   3.636  17.782  0.5347 -0.5944  0.1922
 1882TIP3    H229842   1.950   3.624  17.647 -0.2734 -1.1763 -0.1616
 1883TIP3   OH229843   1.615   0.368  17.212 -0.1898  0.2208  0.1508
 1883TIP3    H129844   1.543   0.370  17.275  0.1307 -1.7439  0.6462
 1883TIP3    H229845   1.597   0.291  17.157  1.1253  0.1363 -0.1937
 1884TIP3   OH229846   2.836   7.463  15.951  0.2886  0.0917 -0.5693
 1884TIP3    H129847   2.779   7.503  15.886  1.1107  0.3595 -1.1382
 1884TIP3    H229848   2.893   7.535  15.980 -0.5206  0.1600  0.9743
 1885TIP3   OH229849   2.561   0.734  18.428 -0.1644 -0.1679 -0.0173
 1885TIP3    H129850   2.467   0.738  18.445 -0.1203  0.3164  0.1315
 1885TIP3    H229851   2.598   0.693  18.505 -0.3634 -1.3147 -0.5155
 1886TIP3   OH229852   3.731   7.551  17.944 -0.1697  0.1638 -0.0687
 1886TIP3    H129853   3.693   7.597  17.868  0.8893  0.4767 -0.4250
 1886TIP3    H229854   3.655   7.527  17.997 -0.9393 -0.0059 -1.1922
 1887TIP3   OH229855   2.718   1.141  15.753  0.0936 -0.0594  0.2720
 1887TIP3    H129856   2.641   1.139  15.696 -0.1468 -0.8622  0.6107
 1887TIP3    H229857   2.761   1.056  15.739 -0.9864 -1.0805  2.6446
 1888TIP3   OH229858   2.415   7.254  17.316  0.0388  0.3419  0.3893
 1888TIP3    H129859   2.416   7.282  17.408  0.1236  1.4473  0.0718
 1888TIP3    H229860   2.480   7.185  17.311  0.3670  0.5897  1.0696
 1889TIP3   OH229861   6.464   6.512  17.238  0.1718  0.3137  0.2454
 1889TIP3    H129862   6.454   6.589  17.182 -1.6950  0.3718  0.6029
 1889TIP3    H229863   6.461   6.438  17.177  3.8547  0.4718 -0.3324
 1890TIP3   OH229864   7.225   5.842  18.239  0.0092 -0.2799  0.0836
 1890TIP3    H129865   7.211   5.759  18.192 -1.7367  0.8264 -1.4827
 1890TIP3    H229866   7.314   5.867  18.215  0.5590 -1.6600  0.5511
 1891TIP3   OH229867   1.009   6.516  17.649 -0.7772  0.1221 -0.5133
 1891TIP3    H129868   1.091   6.565  17.651 -0.8478  0.2238  0.1670
 1891TIP3    H229869   1.014   6.457  17.724 -1.6197  0.6232 -0.0413
 1892TIP3   OH229870   0.257   7.656  16.943  0.1553  0.3419 -0.8283
 1892TIP3    H129871   0.267   7.585  17.006  0.2868  0.6666 -0.4783
 1892TIP3    H229872   0.162   7.664  16.932  0.1653 -0.5428 -1.6287
 1893TIP3   OH229873   6.351   4.495  16.259  0.2140 -0.4458  0.3727
 1893TIP3    H129874   6.333   4.518  16.168 -0.9962 -0.3636  0.6054
 1893TIP3    H229875   6.417   4.427  16.254  1.6916  0.9678 -0.4658
 1894TIP3   OH229876   2.983   5.875  18.712  0.3101 -0.2360 -0.3749
 1894TIP3    H129877   2.939   5.811  18.769 -1.2557  0.4627 -0.7600
 1894TIP3    H229878   2.996   5.828  18.630  0.9348 -0.6683 -0.0385
 1895TIP3   OH229879   7.197   1.081  17.947  0.1458  0.3922 -0.4989
 1895TIP3    H129880   7.140   1.157  17.936  0.7605  1.0053  0.4611
 1895TIP3    H229881   7.138   1.011  17.976 -0.6554  0.0966 -2.6242
 1896TIP3   OH229882   2.970   0.954  16.617 -0.9947  0.7871  0.0509
 1896TIP3    H129883   2.943   0.975  16.706 -0.7538 -0.9102  0.5637
 1896TIP3    H229884   2.908   0.887  16.589  0.6528 -0.8239  0.0556
 1897TIP3   OH229885   6.524   1.227  18.352 -0.0593  0.0537  0.0390
 1897TIP3    H129886   6.454   1.172  18.387 -1.9305  1.6989 -0.9567
 1897TIP3    H229887   6.549   1.284  18.426 -2.1765  1.7361 -0.4550
 1898TIP3   OH229888   2.215   3.666  17.081 -0.2728  0.0198  0.1278
 1898TIP3    H129889   2.197   3.712  16.999  0.5142 -0.3593 -0.2717
 1898TIP3    H229890   2.145   3.601  17.089  1.5564 -2.4817 -2.1745
 1899TIP3   OH229891   7.473   1.369  18.577  0.3116  0.0212 -0.2719
 1899TIP3    H129892   7.459   1.425  18.501 -0.3905  0.6039  0.2710
 1899TIP3    H229893   7.396   1.311  18.578 -0.3690  0.9129  0.7503
 1900TIP3   OH229894   4.857   7.449  17.141 -0.5024 -0.3893 -0.0874
 1900TIP3    H129895   4.904   7.369  17.118  1.8639  1.1946 -1.2095
 1900TIP3    H229896   4.923   7.505  17.182 -1.7387  1.4674 -0.4938
 1901TIP3   OH229897   4.888   4.222  18.174  0.3315  0.1031 -0.2805
 1901TIP3    H129898   4.833   4.299  18.181  0.8162  0.3306  1.9478
 1901TIP3    H229899   4.977   4.255  18.185  0.5627 -0.7180  0.4869
 1902TIP3   OH229900   5.495   6.299  18.269  0.2198  0.2912 -0.2633
 1902TIP3    H129901   5.530   6.214  18.241  0.9387  0.8310 -1.0633
 1902TIP3    H229902   5.523   6.308  18.360  1.7128  0.4522 -0.7156
 1903TIP3   OH229903   2.904   0.738  17.624 -0.1036  0.2667  0.0502
 1903TIP3    H129904   2.988   0.744  17.577 -0.3168  0.3639 -0.3239
 1903TIP3    H229905   2.858   0.818  17.601 -0.6197 -0.1424 -0.3670
 1904TIP3   OH229906   1.739   3.241  18.605 -0.2196 -0.0538 -0.4649
 1904TIP3    H129907   1.814   3.183  18.618  0.4348  0.9973  0.6484
 1904TIP3    H229908   1.755   3.283  18.520  0.1061 -0.3284 -0.5425
 1905TIP3   OH229909   2.444   5.813  16.785 -0.0753  0.0483 -0.1161
 1905TIP3    H129910   2.531   5.782  16.809  0.2425  1.9099  1.4365
 1905TIP3    H229911   2.460   5.883  16.722 -0.4562  0.1190 -0.1355
 1906TIP3   OH229912   1.097   2.038  16.439 -0.2713 -0.1509 -0.1601
 1906TIP3    H129913   1.122   1.946  16.435 -2.1648 -0.8003  1.3986
 1906TIP3    H229914   1.007   2.040  16.404  0.1144  1.3029 -1.1683
 1907TIP3   OH229915   1.995   3.498  17.023 -0.2190 -0.4225  0.2726
 1907TIP3    H129916   2.010   3.463  16.935  0.9467 -0.6231  0.5361
 1907TIP3    H229917   1.903   3.526  17.022  0.0149  0.4236 -1.3009
 1908TIP3   OH229918   5.582   4.431  16.939 -0.1624  1.1831 -0.0381
 1908TIP3    H129919   5.670   4.431  16.904 -0.1248 -1.0454 -0.0656
 1908TIP3    H229920   5.525   4.451  16.865  0.1243 -0.6062 -0.7828
 1909TIP3   OH229921   6.882   3.463  18.003  0.5367 -0.0158  0.0441
 1909TIP3    H129922   6.926   3.381  17.981 -0.3605 -0.6153  0.4252
 1909TIP3    H229923   6.946   3.512  18.054  0.9029 -0.7103  0.2657
 1910TIP3   OH229924   3.462   3.482  16.345 -0.3844 -0.6316 -0.2177
 1910TIP3    H129925   3.528   3.421  16.312 -2.3891 -1.7801 -2.4565
 1910TIP3    H229926   3.393   3.427  16.381 -0.7012  0.4931  1.0055
 1911TIP3   OH229927   3.019   7.240  16.840  0.1363 -0.1924 -0.1769
 1911TIP3    H129928   3.112   7.219  16.829  0.5013  0.9251  0.6430
 1911TIP3    H229929   3.016   7.335  16.847 -1.3415 -0.0162 -2.4616
 1912TIP3   OH229930   6.145   6.017  18.666 -0.2337  0.1999 -0.5541
 1912TIP3    H129931   6.055   6.049  18.664 -0.0662  0.6427 -1.6640
 1912TIP3    H229932   6.140   5.926  18.636 -0.3781  0.0145  0.0136
 1913TIP3   OH229933   0.748   0.153  18.681 -0.0271 -0.4742 -0.2191
 1913TIP3    H129934   0.833   0.112  18.668  0.6830  0.6606  0.6611
 1913TIP3    H229935   0.703   0.098  18.745  0.4381 -0.5471  0.0448
 1914TIP3   OH229936   2.740   3.004  18.421 -0.0822 -0.0787 -0.0993
 1914TIP3    H129937   2.736   3.027  18.514 -3.3541  1.7667 -0.5137
 1914TIP3    H229938   2.777   3.081  18.379  1.0246 -0.7565 -0.3847
 1915TIP3   OH229939   2.030   5.073  17.376  0.0002 -0.3416  0.3513
 1915TIP3    H129940   2.079   5.000  17.338  0.2208  0.3393 -0.7180
 1915TIP3    H229941   1.986   5.035  17.452 -1.2957 -2.0172 -1.1529
 1916TIP3   OH229942   6.932   6.505  17.713  0.3832 -0.0696  0.0387
 1916TIP3    H129943   6.958   6.585  17.758  1.2938  0.0837 -0.7316
 1916TIP3    H229944   7.012   6.474  17.671 -0.3078 -0.5423 -0.9537
 1917TIP3   OH229945   5.879   3.951  17.373  0.9963 -0.3370  0.4050
 1917TIP3    H129946   5.912   4.023  17.319  1.4414 -1.8966 -1.5246
 1917TIP3    H229947   5.944   3.882  17.363 -0.0747 -1.4906  1.1083
 1918TIP3   OH229948   0.212   7.532  17.224  0.0563  0.0728  0.9971
 1918TIP3    H129949   0.213   7.627  17.235  0.8606  0.3875 -1.1924
 1918TIP3    H229950   0.219   7.497  17.313 -3.4802  1.9608  2.1997
 1919TIP3   OH229951   6.413   3.839  18.024 -0.1967  0.1260 -0.1719
 1919TIP3    H129952   6.426   3.850  17.930  0.9292  0.2082 -0.0143
 1919TIP3    H229953   6.391   3.746  18.035 -1.2007  0.2987 -0.5928
 1920TIP3   OH229954   0.122   3.752  18.458  0.2375  0.3742 -0.0066
 1920TIP3    H129955   0.148   3.666  18.492 -0.8254 -0.5077 -1.3606
 1920TIP3    H229956   0.205   3.800  18.450  1.0831 -1.1752 -1.0016
 1921TIP3   OH229957   4.647   1.250  17.408 -0.2645 -0.2470 -0.3261
 1921TIP3    H129958   4.589   1.263  17.333  0.0049 -1.8262 -0.8614
 1921TIP3    H229959   4.596   1.196  17.468 -0.1867  0.3442  0.2799
 1922TIP3   OH229960   3.383   4.130  18.288 -0.4814  0.5944  0.1861
 1922TIP3    H129961   3.390   4.091  18.375 -1.7480  0.3014  0.1750
 1922TIP3    H229962   3.305   4.090  18.250 -1.1304  2.2289 -0.2957
 1923TIP3   OH229963   6.618   2.839  18.616 -0.4723 -0.0405 -0.3603
 1923TIP3    H129964   6.712   2.857  18.625 -0.9029  1.9215  0.6510
 1923TIP3    H229965   6.615   2.750  18.580  1.7652 -0.1131 -0.5443
 1924TIP3   OH229966   6.411   3.011  18.539 -0.3980 -0.2609  0.3173
 1924TIP3    H129967   6.385   2.981  18.452  1.6305  0.2416 -0.5140
 1924TIP3    H229968   6.473   2.945  18.569  3.2254  2.1670 -1.0444
 1925TIP3   OH229969   5.450   1.045  17.910 -0.0360  0.2371  0.2220
 1925TIP3    H129970   5.464   1.067  17.817  2.0477 -0.1151  0.4015
 1925TIP3    H229971   5.412   1.124  17.947 -1.4485  0.1913 -1.0304
 1926TIP3   OH229972   0.512   4.239  17.070  0.3273  0.7958  0.2002
 1926TIP3    H129973   0.426   4.262  17.034  0.0880  0.5651  0.6228
 1926TIP3    H229974   0.546   4.174  17.008  0.6052  1.5631 -0.4818
 1927TIP3   OH229975   2.625   1.902  18.950  0.8994 -0.4911  0.0212
 1927TIP3    H129976   2.610   1.981  19.002  1.2216 -0.3471 -0.1028
 1927TIP3    H229977   2.653   1.934  18.864 -1.0771 -0.6838 -0.7406
 1928TIP3   OH229978   5.834   7.355  16.527  0.0503  0.0070 -0.2203
 1928TIP3    H129979   5.924   7.328  16.546 -0.1469 -0.6985 -0.2590
 1928TIP3    H229980   5.839   7.450  16.512  0.8374 -0.0868 -0.5550
 1929TIP3   OH229981   7.131   2.954  18.546  0.1010 -0.6256 -0.5447
 1929TIP3    H129982   7.187   2.955  18.469 -0.0621  1.8605 -0.7116
 1929TIP3    H229983   7.069   3.026  18.532 -2.4078 -2.5086  0.1878
 1930TIP3   OH229984   4.673   5.160  17.650 -0.0279  0.2113 -0.4144
 1930TIP3    H129985   4.744   5.099  17.668 -0.4042  0.1203  0.8523
 1930TIP3    H229986   4.705   5.215  17.578  0.9339 -0.4461 -0.4941
 1931TIP3   OH229987   4.248   2.660  18.648 -0.1454 -0.3141  0.2790
 1931TIP3    H129988   4.177   2.721  18.670  0.3006  0.2297  0.2437
 1931TIP3    H229989   4.303   2.708  18.586 -0.5024 -1.2481 -0.7850
 1932TIP3   OH229990   1.088   0.830  17.604 -0.3396  0.4878  0.2481
 1932TIP3    H129991   1.103   0.752  17.657  1.0089  1.3618  1.2157
 1932TIP3    H229992   1.063   0.898  17.666  1.3017  1.5400 -0.1489
 1933TIP3   OH229993   7.645   5.319  18.321 -0.4734  0.7185  0.4586
 1933TIP3    H129994   7.605   5.237  18.294  1.0990  0.0805 -0.0589
 1933TIP3    H229995   7.650   5.371  18.240  0.3622  0.5066  0.3668
 1934TIP3   OH229996   0.235   7.370  17.455 -0.2692 -0.5359  0.2469
 1934TIP3    H129997   0.182   7.413  17.522 -1.3419 -1.0405 -0.2612
 1934TIP3    H229998   0.217   7.277  17.467  0.8745 -0.7559  0.3636
 1935TIP3   OH229999   1.712   0.278  16.261 -0.1013 -0.4918  0.4587
 1935TIP3    H130000   1.782   0.243  16.317 -1.2662 -1.2551  1.4832
 1935TIP3    H230001   1.639   0.218  16.273 -1.5452  1.2450  0.7614
 1936TIP3   OH230002   2.738   2.601  17.311 -0.3190  0.8021 -0.4510
 1936TIP3    H130003   2.726   2.553  17.228 -1.0213 -0.4770  0.3488
 1936TIP3    H230004   2.745   2.532  17.377 -0.8756  1.8162  0.7001
 1937TIP3   OH230005   6.167   0.515  18.295 -1.0071  0.6753 -0.1497
 1937TIP3    H130006   6.179   0.514  18.200 -2.4457 -0.5684 -0.3579
 1937TIP3    H230007   6.181   0.425  18.323 -0.0282  1.1306  0.9342
 1938TIP3   OH230008   0.993   3.596  17.753  0.0459 -0.4083 -0.0227
 1938TIP3    H130009   0.942   3.554  17.823  0.1932 -0.6958 -0.0858
 1938TIP3    H230010   0.954   3.683  17.743 -0.1229 -0.4522  0.2605
 1939TIP3   OH230011   3.162   3.852  18.649  0.1171  0.1171  0.0890
 1939TIP3    H130012   3.230   3.815  18.593  0.0719 -0.3255  0.3149
 1939TIP3    H230013   3.083   3.803  18.625  0.1469 -0.2454  0.6952
 1940TIP3   OH230014   3.778   3.044  17.828  0.7284  0.2932  0.0410
 1940TIP3    H130015   3.769   2.967  17.883  1.9100 -1.1405 -1.6762
 1940TIP3    H230016   3.868   3.073  17.841  0.6628  0.6428 -0.2658
 1941TIP3   OH230017   2.887   1.132  17.962  0.2225  0.1529 -0.4015
 1941TIP3    H130018   2.975   1.169  17.950  0.8437 -1.2544 -0.3364
 1941TIP3    H230019   2.830   1.190  17.911  1.3262  0.5511 -1.2277
 1942TIP3   OH230020   2.248   6.906  17.234 -0.1487 -0.1663 -0.2299
 1942TIP3    H130021   2.289   6.841  17.291 -1.1202 -0.9299 -0.3776
 1942TIP3    H230022   2.240   6.984  17.288 -0.0441 -0.5374  0.3286
 1943TIP3   OH230023   0.700   5.581  18.199 -0.1338  0.2897 -0.0444
 1943TIP3    H130024   0.764   5.650  18.178 -0.6651  0.8737  0.2056
 1943TIP3    H230025   0.659   5.560  18.116  1.1787 -0.9361 -0.4294
 1944TIP3   OH230026   4.732   5.768  18.451  0.4936 -0.2570 -0.4293
 1944TIP3    H130027   4.749   5.855  18.488  0.4057 -0.4120 -0.0151
 1944TIP3    H230028   4.797   5.712  18.493 -0.8930 -0.8348  1.0687
 1945TIP3   OH230029   0.803   7.647  17.928  0.0354 -0.2618  0.6460
 1945TIP3    H130030   0.717   7.686  17.947 -1.2187 -2.7240  0.5107
 1945TIP3    H230031   0.817   7.584  17.999  1.1566 -0.7644  0.0094
 1946TIP3   OH230032   6.965   0.122  16.970  0.5124  0.3683  0.0601
 1946TIP3    H130033   6.931   0.206  16.941  0.9547  0.1737 -1.0858
 1946TIP3    H230034   6.974   0.131  17.065  2.4767  2.3452 -0.2275
 1947TIP3   OH230035   1.836   5.557  18.235  0.3510 -0.5632 -0.1270
 1947TIP3    H130036   1.800   5.547  18.147  0.4273 -0.1175 -0.2111
 1947TIP3    H230037   1.809   5.478  18.281  1.1015 -1.2312 -0.8153
 1948TIP3   OH230038   5.264   1.157  16.128 -0.1972 -0.0925 -0.2400
 1948TIP3    H130039   5.170   1.152  16.110 -0.4809 -0.8293  1.2920
 1948TIP3    H230040   5.304   1.169  16.042 -1.5999 -1.1504 -1.0958
 1949TIP3   OH230041   5.872   0.307  17.651  0.4635  0.1357 -0.4349
 1949TIP3    H130042   5.800   0.367  17.634  1.0291  0.5422 -1.4478
 1949TIP3    H230043   5.899   0.276  17.565  1.5289  0.0180 -0.0768
 1950TIP3   OH230044   4.252   3.894  16.617  0.2172 -0.4082  0.1613
 1950TIP3    H130045   4.297   3.818  16.653 -1.3063 -0.9744  0.9809
 1950TIP3    H230046   4.162   3.864  16.605  0.1023  0.5665 -1.7377
 1951TIP3   OH230047   1.280   3.914  18.258  0.0335 -0.8107 -0.2971
 1951TIP3    H130048   1.240   3.877  18.336 -1.6910  0.2846 -0.5988
 1951TIP3    H230049   1.210   3.914  18.193  0.8937  0.0186 -1.2669
 1952TIP3   OH230050   5.225   2.896  18.588  0.0491 -0.2547  0.3821
 1952TIP3    H130051   5.158   2.960  18.564  0.0289 -0.1243  0.7808
 1952TIP3    H230052   5.175   2.822  18.624  0.1295 -0.1024  0.8028
 1953TIP3   OH230053   3.230   6.843  16.025  0.2327 -0.2512  0.2049
 1953TIP3    H130054   3.313   6.823  15.981 -0.0320  0.1597 -0.4750
 1953TIP3    H230055   3.257   6.891  16.104  0.8114 -2.2513  1.3234
 1954TIP3   OH230056   0.764   1.482  18.255  0.4241 -0.1010  0.0534
 1954TIP3    H130057   0.793   1.409  18.310 -0.7270 -1.7301 -1.3862
 1954TIP3    H230058   0.827   1.483  18.183 -1.1610 -1.6170 -1.4377
 1955TIP3   OH230059   0.119   0.902  17.992 -0.1247 -0.1687  0.3012
 1955TIP3    H130060   0.173   0.979  17.974 -0.6337  0.0221 -0.4715
 1955TIP3    H230061   0.066   0.891  17.913 -2.0784  0.3692  1.4656
 1956TIP3   OH230062   1.377   2.846  18.709 -0.0189  0.0897 -0.3711
 1956TIP3    H130063   1.296   2.854  18.759  0.3125  1.8183 -0.0361
 1956TIP3    H230064   1.363   2.771  18.652 -0.7709 -1.3665  1.6186
 1957TIP3   OH230065   7.606   1.098  17.486  0.3173  0.2320 -0.3962
 1957TIP3    H130066   7.578   1.077  17.397  0.2350  1.7826 -0.7734
 1957TIP3    H230067   7.673   1.165  17.475  0.5645  0.1850  0.6974
 1958TIP3   OH230068   2.744   5.821  18.348  0.5935  0.4170  0.3547
 1958TIP3    H130069   2.687   5.744  18.346  2.1174 -0.7536  0.1968
 1958TIP3    H230070   2.812   5.802  18.284  0.6635  2.2064 -0.1583
 1959TIP3   OH230071   5.827   1.885  18.909 -0.0353  0.5716  0.0584
 1959TIP3    H130072   5.737   1.879  18.877 -0.3907  0.9353  0.9670
 1959TIP3    H230073   5.820   1.928  18.994  0.8253 -0.9021  0.9130
 1960TIP3   OH230074   1.580   2.141  17.243 -0.2996 -0.1808  0.2531
 1960TIP3    H130075   1.527   2.063  17.226 -0.5350  0.0482 -0.0852
 1960TIP3    H230076   1.584   2.186  17.159  1.3013 -0.7189  0.0074
 1961TIP3   OH230077   1.905   3.822  18.295  0.5614 -0.2135  0.0621
 1961TIP3    H130078   1.939   3.861  18.215 -2.2098 -0.2320 -1.2424
 1961TIP3    H230079   1.963   3.747  18.311  1.1252 -0.3047 -2.0257
 1962TIP3   OH230080   7.178   2.005  18.683 -0.0775  0.3804 -0.2682
 1962TIP3    H130081   7.269   2.035  18.674 -0.2437  1.0813  0.3412
 1962TIP3    H230082   7.184   1.927  18.738  0.0656  0.9733  0.5681
 1963TIP3   OH230083   2.942   7.489  16.245 -0.2001  0.1035  0.2207
 1963TIP3    H130084   3.013   7.540  16.284 -0.1219 -1.7223  2.6755
 1963TIP3    H230085   2.984   7.437  16.177  0.3563  0.6810  0.1096
 1964TIP3   OH230086   3.880   1.626  16.766 -0.1645  0.3716  0.4994
 1964TIP3    H130087   3.816   1.559  16.740  1.1247 -0.6791 -0.0647
 1964TIP3    H230088   3.884   1.686  16.691 -2.2217  1.8536  1.4766
 1965TIP3   OH230089   5.355   4.699  18.145 -0.0428 -0.3950 -0.6562
 1965TIP3    H130090   5.405   4.758  18.089 -0.1845  0.4300  0.0801
 1965TIP3    H230091   5.402   4.615  18.140  1.1728  0.2479 -0.3279
 1966TIP3   OH230092   4.117   6.697  17.036  0.0130  0.3279  0.1329
 1966TIP3    H130093   4.148   6.607  17.049 -0.6966 -0.2700 -1.8446
 1966TIP3    H230094   4.192   6.744  17.000 -0.1198 -0.0103 -0.6265
 1967TIP3   OH230095   0.528   2.376  15.980 -0.2660  0.0234 -0.4349
 1967TIP3    H130096   0.613   2.385  15.937  0.6244  2.4086  1.6168
 1967TIP3    H230097   0.473   2.443  15.940 -0.2374  0.4970  0.3075
 1968TIP3   OH230098   7.506   3.224  17.822  0.2660  0.4389  0.2219
 1968TIP3    H130099   7.600   3.244  17.822  0.5647 -0.7017 -1.7533
 1968TIP3    H230100   7.466   3.302  17.783  0.2656  1.2434  1.7530
 1969TIP3   OH230101   5.605   6.853  17.124 -0.0319 -0.2563 -0.3488
 1969TIP3    H130102   5.689   6.835  17.082  1.1616  1.0670  1.3123
 1969TIP3    H230103   5.594   6.783  17.189  0.1408 -0.0396 -0.0846
 1970TIP3   OH230104   2.521   6.417  16.609 -0.5430 -0.3530 -0.8568
 1970TIP3    H130105   2.505   6.417  16.703  0.7267  1.9412 -0.5555
 1970TIP3    H230106   2.540   6.509  16.588  1.1731 -1.0971 -2.9851
 1971TIP3   OH230107   5.679   6.691  18.629  0.1124 -0.1420 -0.0336
 1971TIP3    H130108   5.701   6.764  18.687 -0.0745 -0.1430  0.0370
 1971TIP3    H230109   5.595   6.659  18.661 -0.2827  0.2348 -0.6611
 1972TIP3   OH230110   4.263   3.458  16.884 -0.3723  0.1193 -0.2607
 1972TIP3    H130111   4.245   3.548  16.855  0.0335  0.1572 -0.3994
 1972TIP3    H230112   4.177   3.418  16.893 -0.6406  0.9031  1.0090
 1973TIP3   OH230113   5.718   1.568  18.517  0.4144  0.2221  0.2264
 1973TIP3    H130114   5.689   1.545  18.429 -0.9262 -0.3873  0.8068
 1973TIP3    H230115   5.713   1.664  18.520 -2.3253  0.1433  0.5169
 1974TIP3   OH230116   6.188   6.380  15.796  0.3136 -0.2134  0.2654
 1974TIP3    H130117   6.198   6.455  15.856  0.4826 -0.8650  1.0743
 1974TIP3    H230118   6.095   6.379  15.774  0.7027  1.7539 -1.8006
 1975TIP3   OH230119   6.670   3.727  16.760 -0.1608  0.2415 -0.9619
 1975TIP3    H130120   6.736   3.790  16.729 -0.5309  1.4563  0.6121
 1975TIP3    H230121   6.719   3.669  16.819  0.1400 -0.9206 -2.2722
 1976TIP3   OH230122   5.405   5.006  17.940  0.2456 -0.0213 -0.1887
 1976TIP3    H130123   5.482   4.987  17.886 -0.2251  0.9998 -1.2768
 1976TIP3    H230124   5.417   5.097  17.967  1.0767 -0.8462  2.5433
 1977TIP3   OH230125   1.700   6.403  18.423 -0.1303  0.1193 -0.2198
 1977TIP3    H130126   1.717   6.403  18.329 -0.8178  0.2014 -0.3487
 1977TIP3    H230127   1.700   6.496  18.447 -1.2404  0.1768 -0.3890
 1978TIP3   OH230128   4.042   6.964  16.467  0.1093  0.1449  0.0228
 1978TIP3    H130129   4.011   7.023  16.537  0.4474 -0.2056  0.4677
 1978TIP3    H230130   4.065   7.023  16.395 -3.2254  0.3795 -1.0225
 1979TIP3   OH230131   1.290   2.734  17.967  0.6093 -0.1987  0.6337
 1979TIP3    H130132   1.382   2.713  17.951  0.7407  0.1362  0.9390
 1979TIP3    H230133   1.290   2.826  17.992  0.1109 -0.0038 -0.0481
 1980TIP3   OH230134   0.347   3.482  17.543 -0.4011 -0.5211 -0.6626
 1980TIP3    H130135   0.276   3.492  17.606 -0.0548 -1.3830 -0.1097
 1980TIP3    H230136   0.342   3.390  17.517 -0.5124 -0.1840 -1.8671
 1981TIP3   OH230137   4.194   0.966  18.502 -0.5845  0.4428  0.1397
 1981TIP3    H130138   4.243   0.896  18.459 -0.1410  0.1372  1.1134
 1981TIP3    H230139   4.194   1.038  18.439  2.2662  0.9398  0.5774
 1982TIP3   OH230140   0.870   6.027  17.462  0.2832 -0.5549 -0.0023
 1982TIP3    H130141   0.792   6.058  17.508 -0.4794  0.7411 -2.0292
 1982TIP3    H230142   0.931   6.101  17.463  0.9378 -1.0826  0.3633
 1983TIP3   OH230143   1.047   5.845  16.574 -0.1774  0.3112  0.1363
 1983TIP3    H130144   1.010   5.932  16.564  0.0081  0.4545  0.6735
 1983TIP3    H230145   1.126   5.858  16.625  0.7845  0.0363 -1.2432
 1984TIP3   OH230146   4.931   1.573  17.644  0.0139 -0.3711  0.2243
 1984TIP3    H130147   4.997   1.625  17.598  1.1212 -0.2331  1.9065
 1984TIP3    H230148   4.847   1.609  17.615  0.6841  0.3070 -0.9520
 1985TIP3   OH230149   1.807   5.893  17.066 -0.4325 -0.2318  0.2850
 1985TIP3    H130150   1.838   5.933  16.985 -0.4065 -0.3355  0.2442
 1985TIP3    H230151   1.840   5.803  17.063 -1.1787 -0.5012 -0.0079
 1986TIP3   OH230152   6.142   5.024  18.298 -0.2523  0.2121 -0.5848
 1986TIP3    H130153   6.196   4.948  18.320  1.0317  0.7936 -1.5884
 1986TIP3    H230154   6.053   4.998  18.322  0.6769  0.1582  3.6364
 1987TIP3   OH230155   3.173   0.474  16.661 -0.2913 -0.2961 -0.6057
 1987TIP3    H130156   3.131   0.418  16.726  1.3705 -0.6475  0.2321
 1987TIP3    H230157   3.223   0.414  16.605 -0.4613  0.1451 -1.2493
 1988TIP3   OH230158   6.408   4.975  17.427  0.3055 -0.1808  0.8447
 1988TIP3    H130159   6.400   4.903  17.364  0.0058  0.3108  0.3104
 1988TIP3    H230160   6.340   5.037  17.401  1.3143  0.8484  0.5747
 1989TIP3   OH230161   1.715   3.172  17.550  0.2094 -0.1182  0.1826
 1989TIP3    H130162   1.716   3.220  17.633  0.3455 -1.6286  1.0990
 1989TIP3    H230163   1.807   3.165  17.525  0.2522 -0.5515  0.4530
 1990TIP3   OH230164   2.538   1.505  16.709 -0.0000  0.4057 -0.3807
 1990TIP3    H130165   2.543   1.599  16.691  1.9008  1.0173  2.6236
 1990TIP3    H230166   2.620   1.484  16.752 -1.1295 -2.2682  0.6998
 1991TIP3   OH230167   2.788   4.250  16.656 -0.1856  0.0543  0.3952
 1991TIP3    H130168   2.724   4.178  16.659  0.4393 -0.6131 -1.2022
 1991TIP3    H230169   2.734   4.328  16.643 -0.7444 -0.4609 -0.5730
 1992TIP3   OH230170   0.357   3.698  15.878 -0.1836 -0.2031 -0.3046
 1992TIP3    H130171   0.431   3.637  15.880 -2.1111 -2.6737  0.8050
 1992TIP3    H230172   0.390   3.776  15.922  2.3867 -0.3613 -1.7540
 1993TIP3   OH230173   5.466   1.457  18.337 -0.1515 -0.5183 -0.1643
 1993TIP3    H130174   5.387   1.409  18.361 -0.5156  0.3031  0.3199
 1993TIP3    H230175   5.434   1.541  18.303  0.5080  0.3026  1.1328
 1994TIP3   OH230176   0.851   3.003  17.156  0.2984  0.0286 -0.2380
 1994TIP3    H130177   0.814   3.004  17.245 -1.1691  2.4952 -0.7775
 1994TIP3    H230178   0.938   2.965  17.167  0.1310  0.1842  2.2677
 1995TIP3   OH230179   7.024   5.921  16.797  0.1861 -0.2427 -0.0413
 1995TIP3    H130180   7.104   5.873  16.819  0.2861  0.0633  0.2803
 1995TIP3    H230181   7.052   6.013  16.792 -0.0446 -0.1909 -0.4281
 1996TIP3   OH230182   5.357   1.696  18.255  0.1032 -0.3288  0.3920
 1996TIP3    H130183   5.430   1.706  18.194  0.9751 -2.0857  1.0730
 1996TIP3    H230184   5.372   1.764  18.321  0.7883 -0.2613  0.1818
 1997TIP3   OH230185   5.813   0.069  16.287 -0.8724 -0.3739  0.6121
 1997TIP3    H130186   5.729   0.111  16.270 -0.2519  0.5614 -0.2478
 1997TIP3    H230187   5.820   0.001  16.221 -1.5573 -1.3970  1.5586
 1998TIP3   OH230188   2.283   6.173  17.313 -0.1341  0.6203  0.4377
 1998TIP3    H130189   2.268   6.100  17.373 -0.5241 -0.7287 -1.2462
 1998TIP3    H230190   2.335   6.235  17.364  1.7308 -1.5924  1.3902
 1999TIP3   OH230191   4.340   6.861  16.199 -0.3602 -0.2478  0.3724
 1999TIP3    H130192   4.435   6.866  16.189 -0.4644 -0.2884 -0.9179
 1999TIP3    H230193   4.307   6.919  16.130 -1.3170 -3.0277 -1.6648
 2000TIP3   OH230194   2.761   6.073  16.844 -0.0361 -0.0524 -0.0351
 2000TIP3    H130195   2.728   6.011  16.909 -0.1639 -1.8132 -1.7285
 2000TIP3    H230196   2.845   6.038  16.817 -0.0217  0.6068 -0.8868
 2001TIP3   OH230197   4.558   7.163  18.706  0.5145  0.0840  0.0713
 2001TIP3    H130198   4.575   7.073  18.734 -1.2878  0.4482  2.7079
 2001TIP3    H230199   4.522   7.206  18.784 -0.0147  2.7233 -1.5026
 2002TIP3   OH230200   3.811   4.951  17.354 -0.1500 -1.0164 -0.0030
 2002TIP3    H130201   3.866   4.901  17.294  0.5037 -0.4697  0.1301
 2002TIP3    H230202   3.854   4.942  17.439 -1.3345 -2.1914  0.5123
 2003TIP3   OH230203   6.156   5.297  17.044 -0.8846  0.4351  0.2120
 2003TIP3    H130204   6.183   5.255  16.962 -0.3421 -0.7064  0.9370
 2003TIP3    H230205   6.144   5.389  17.022  0.2649  0.3394 -0.9167
 2004TIP3   OH230206   0.465   0.865  16.910 -0.2474 -0.3048  0.1067
 2004TIP3    H130207   0.507   0.878  16.825 -1.7494 -0.5831 -0.7306
 2004TIP3    H230208   0.482   0.945  16.958 -0.7203  0.5574 -1.0906
 2005TIP3   OH230209   5.644   7.050  17.665  0.2602 -0.2584 -0.1173
 2005TIP3    H130210   5.579   7.005  17.611 -0.0705  2.0449 -1.8039
 2005TIP3    H230211   5.593   7.088  17.737 -0.2667  1.1799 -1.2004
 2006TIP3   OH230212   3.889   7.612  18.736 -0.5469  0.0220 -0.1545
 2006TIP3    H130213   3.801   7.582  18.756 -0.4031 -0.3012 -0.0169
 2006TIP3    H230214   3.877   7.702  18.705 -0.9931 -0.2306 -0.7413
 2007TIP3   OH230215   0.930   6.852  17.326 -0.0607 -0.0718 -0.5031
 2007TIP3    H130216   1.009   6.812  17.364  0.1742  1.6368  0.9223
 2007TIP3    H230217   0.883   6.779  17.286  1.0099 -1.5379  0.8072
 2008TIP3   OH230218   3.299   3.729  17.179 -0.0151 -0.0104 -0.2626
 2008TIP3    H130219   3.282   3.820  17.200 -1.7762 -0.1580 -0.9042
 2008TIP3    H230220   3.301   3.726  17.084  2.4881 -0.2784 -0.2876
 2009TIP3   OH230221   3.341   1.763  18.036 -0.0980  0.3044 -0.7424
 2009TIP3    H130222   3.396   1.749  18.113 -1.0154  0.1711 -0.0934
 2009TIP3    H230223   3.403   1.764  17.962  0.9122  1.4442  0.0785
 2010TIP3   OH230224   7.522   2.134  16.380 -0.0825  0.0804  0.1644
 2010TIP3    H130225   7.594   2.072  16.396 -0.3338 -0.4051 -0.5138
 2010TIP3    H230226   7.527   2.152  16.286  0.2555  1.4472  0.4204
 2011TIP3   OH230227   3.909   0.265  16.582 -0.2404 -0.1232 -0.2272
 2011TIP3    H130228   3.868   0.203  16.643 -2.7617  1.0076 -0.6335
 2011TIP3    H230229   3.961   0.210  16.523  0.0909 -1.5044  1.2710
 2012TIP3   OH230230   0.286   0.878  18.763  0.6653 -0.4585 -0.0621
 2012TIP3    H130231   0.253   0.875  18.673 -0.4908  1.3344  0.2451
 2012TIP3    H230232   0.259   0.794  18.801  2.1526 -1.7345 -1.6483
 2013TIP3   OH230233   0.148   4.456  18.266 -0.0453 -0.2367 -0.4903
 2013TIP3    H130234   0.177   4.374  18.227  0.4251 -0.4952  0.3753
 2013TIP3    H230235   0.209   4.471  18.339  1.1974  1.9160 -1.8361
 2014TIP3   OH230236   5.356   3.766  16.269 -0.5722 -0.5441 -0.8496
 2014TIP3    H130237   5.300   3.840  16.291  0.4418  0.3622 -1.2559
 2014TIP3    H230238   5.360   3.765  16.174 -0.2380 -0.8512 -0.8369
 2015TIP3   OH230239   5.248   4.680  16.614 -0.4020 -0.0092  0.1377
 2015TIP3    H130240   5.177   4.634  16.571 -1.0995  1.0861  0.0659
 2015TIP3    H230241   5.295   4.724  16.543  0.7708 -1.2509  0.1094
 2016TIP3   OH230242   0.488   6.222  18.134 -0.4620 -0.1355 -0.2927
 2016TIP3    H130243   0.488   6.165  18.211 -0.5393  0.1357 -0.0892
 2016TIP3    H230244   0.438   6.299  18.162  2.2611  1.4563  0.4903
 2017TIP3   OH230245   0.856   0.927  17.321 -0.6033 -0.1479 -0.0255
 2017TIP3    H130246   0.826   0.986  17.252  0.4625  0.0109 -0.3682
 2017TIP3    H230247   0.939   0.965  17.350 -1.8265  0.7920  2.5697
 2018TIP3   OH230248   0.411   3.086  16.927  0.0842  0.4820  0.1011
 2018TIP3    H130249   0.502   3.061  16.912  0.1244  0.5975  0.1519
 2018TIP3    H230250   0.363   3.003  16.924  0.4383  0.1712  1.9312
 2019TIP3   OH230251   0.679   4.036  17.504  0.5146 -0.2383 -0.0407
 2019TIP3    H130252   0.701   4.018  17.413  0.9883 -0.4536  0.1158
 2019TIP3    H230253   0.625   4.115  17.500  1.5629  0.4849 -0.4119
 2020TIP3   OH230254   0.266   5.324  18.485 -0.2012 -0.0074  0.3954
 2020TIP3    H130255   0.239   5.276  18.564 -1.1383  0.0037  0.0939
 2020TIP3    H230256   0.194   5.385  18.469  0.7351  1.1342  0.4647
 2021TIP3   OH230257   0.011   0.398  17.526 -0.1522 -0.3561  0.2302
 2021TIP3    H130258  -0.051   0.435  17.589 -0.1191 -0.2375  0.1916
 2021TIP3    H230259  -0.002   0.449  17.446  0.4677  0.1145  0.4227
 2022TIP3   OH230260   1.481   5.102  16.657  0.1922  0.3377  0.3260
 2022TIP3    H130261   1.399   5.139  16.625 -1.2148 -2.2486  0.6675
 2022TIP3    H230262   1.544   5.116  16.586 -1.2984 -0.1089 -1.1216
 2023TIP3   OH230263   2.058   0.003  16.932 -0.0107 -0.0980  0.4978
 2023TIP3    H130264   2.121   0.031  16.998 -2.2156  3.2083  1.4701
 2023TIP3    H230265   2.109  -0.050  16.871  2.6311 -1.3801  3.5567
 2024TIP3   OH230266   5.177   2.303  18.196 -0.2501 -0.1392  0.0099
 2024TIP3    H130267   5.121   2.365  18.242  0.0634  0.4884 -0.4345
 2024TIP3    H230268   5.223   2.356  18.131  1.1727 -0.5445  0.6352
 2025TIP3   OH230269   0.985   1.463  18.028 -0.0041  0.4189 -0.1919
 2025TIP3    H130270   1.019   1.374  18.020 -0.1211  0.1595  1.6913
 2025TIP3    H230271   1.053   1.511  18.075 -0.7492  0.7872  0.5412
 2026TIP3   OH230272   2.752   5.126  17.571 -0.4267 -0.0571 -0.3185
 2026TIP3    H130273   2.791   5.060  17.629 -0.8037 -0.7593 -0.8430
 2026TIP3    H230274   2.793   5.208  17.597 -1.7488 -0.0370  2.0700
 2027TIP3   OH230275   0.439   2.263  18.531 -0.0911  0.0964 -0.3863
 2027TIP3    H130276   0.533   2.256  18.514 -0.2501 -0.6077 -1.0218
 2027TIP3    H230277   0.427   2.224  18.618  0.2729  0.6585 -0.0841
 2028TIP3   OH230278   0.183   3.262  16.960  0.3021 -0.6230 -0.3387
 2028TIP3    H130279   0.166   3.215  17.042  1.7502 -0.9498 -0.1951
 2028TIP3    H230280   0.272   3.235  16.935 -0.0763 -0.4735 -1.9797
 2029TIP3   OH230281   7.273   5.766  16.714 -0.0744 -0.4518  0.0433
 2029TIP3    H130282   7.367   5.765  16.733 -0.1486  0.3527  0.4780
 2029TIP3    H230283   7.263   5.827  16.642 -0.1031 -1.6471 -1.0061
 2030TIP3   OH230284   0.110   6.590  16.517  0.4284  0.2724 -0.4061
 2030TIP3    H130285   0.042   6.581  16.451  1.3522  2.1906 -1.7264
 2030TIP3    H230286   0.146   6.502  16.527 -0.6819 -0.3232 -1.3975
 2031TIP3   OH230287   2.863   0.648  17.309  0.2953 -0.2449 -0.5169
 2031TIP3    H130288   2.923   0.623  17.239  0.7619  1.1436 -0.6493
 2031TIP3    H230289   2.901   0.729  17.345 -0.8510 -0.0024  0.1971
 2032TIP3   OH230290   3.181   5.455  17.665  0.0012 -0.2059  0.0896
 2032TIP3    H130291   3.264   5.419  17.634  0.4415  1.7997 -1.2124
 2032TIP3    H230292   3.205   5.520  17.731 -0.5850 -0.1783  0.2815
 2033TIP3   OH230293   5.303   1.404  16.301  0.2088  0.0140 -0.0999
 2033TIP3    H130294   5.289   1.323  16.252  3.0047 -0.5348 -0.1905
 2033TIP3    H230295   5.267   1.386  16.388  1.5224 -1.7008  0.1449
 2034TIP3   OH230296   2.064   6.519  17.641 -0.4893  0.0794 -0.2134
 2034TIP3    H130297   2.064   6.479  17.554  2.0034  0.2728 -0.3696
 2034TIP3    H230298   2.099   6.451  17.699  0.4933  0.8464  0.1233
 2035TIP3   OH230299   7.045   4.396  17.136  0.4740 -0.3987 -0.1433
 2035TIP3    H130300   7.006   4.431  17.216  0.8448  1.2753 -0.6593
 2035TIP3    H230301   7.042   4.469  17.074 -2.3221 -2.3665 -2.6093
 2036TIP3   OH230302   6.689   4.726  18.737 -0.4078 -0.2227  0.2219
 2036TIP3    H130303   6.623   4.743  18.669 -0.6237  0.1294  0.5140
 2036TIP3    H230304   6.764   4.691  18.690 -1.7992 -3.4041  0.1585
 2037TIP3   OH230305   0.279   5.373  16.517  0.1371  0.1600 -0.3283
 2037TIP3    H130306   0.349   5.437  16.509  1.5119 -1.1077  1.0090
 2037TIP3    H230307   0.295   5.311  16.446 -0.3801  0.5207 -0.7709
 2038TIP3   OH230308   4.258   3.517  17.848 -0.5907  0.1296 -0.4517
 2038TIP3    H130309   4.314   3.440  17.859 -0.5160 -0.0342 -1.7979
 2038TIP3    H230310   4.312   3.579  17.799 -1.3363  0.2529 -1.1351
 2039TIP3   OH230311   0.611   0.003  17.345  0.2976  0.2775  0.0343
 2039TIP3    H130312   0.535   0.059  17.357  0.0921  0.6334 -2.5100
 2039TIP3    H230313   0.594  -0.046  17.265  1.9075 -1.0718  0.4448
 2040TIP3   OH230314   1.879   4.839  18.422 -0.7692 -0.0120 -0.3961
 2040TIP3    H130315   1.963   4.793  18.435 -0.6358  0.4161  0.3675
 2040TIP3    H230316   1.820   4.799  18.486 -0.7724  0.5577 -0.0263
 2041TIP3   OH230317   5.684   5.698  17.376 -0.2139  0.6449 -0.0227
 2041TIP3    H130318   5.639   5.777  17.347  0.3338  1.5484  1.5041
 2041TIP3    H230319   5.615   5.644  17.415 -0.6073  0.2858 -1.1694
 2042TIP3   OH230320   3.691   6.563  18.287 -0.4510  0.5391 -0.8767
 2042TIP3    H130321   3.663   6.530  18.202  0.2687  0.3307 -1.0403
 2042TIP3    H230322   3.787   6.567  18.281 -0.3815  0.3660 -0.0231
 2043TIP3   OH230323   6.588   6.803  17.526  0.3051 -0.0363  0.2485
 2043TIP3    H130324   6.683   6.791  17.519  0.3713  0.1166  0.7981
 2043TIP3    H230325   6.569   6.785  17.618 -0.4794 -1.9502 -0.2409
 2044TIP3   OH230326   4.761   5.460  16.818 -0.6999 -0.4897  0.1635
 2044TIP3    H130327   4.675   5.498  16.803 -0.3308  0.2202 -0.2645
 2044TIP3    H230328   4.818   5.504  16.754  0.2689  0.1685  1.4228
 2045TIP3   OH230329   3.640   6.027  17.745 -0.2075 -0.1772 -0.0046
 2045TIP3    H130330   3.632   5.931  17.741 -2.3688 -0.0601  0.2570
 2045TIP3    H230331   3.552   6.059  17.727  0.5012  1.7955 -0.2069
 2046TIP3   OH230332   4.807   6.961  17.971  0.0632  0.6876  1.0828
 2046TIP3    H130333   4.732   6.902  17.977  0.2635  0.1578 -0.9863
 2046TIP3    H230334   4.882   6.907  17.994 -0.0782  1.0727  2.5847
 2047TIP3   OH230335   0.284   6.490  18.068 -0.3213  0.5072  0.0112
 2047TIP3    H130336   0.217   6.425  18.046 -0.2782  1.2423 -2.5179
 2047TIP3    H230337   0.253   6.572  18.029 -0.3010  2.0684  2.9842
 2048TIP3   OH230338   0.715   6.846  17.782 -0.1941  0.0016  0.6965
 2048TIP3    H130339   0.789   6.820  17.837  0.1546  0.1261  0.2859
 2048TIP3    H230340   0.683   6.927  17.821 -0.0284  0.0199  0.7936
 2049TIP3   OH230341   4.026   7.433  16.666  0.5287 -0.6696 -0.4383
 2049TIP3    H130342   4.102   7.424  16.608  1.7667 -2.6259  1.3304
 2049TIP3    H230343   4.064   7.454  16.752 -1.2099  1.7295 -0.1444
 2050TIP3   OH230344   2.790   4.783  16.894 -0.0492  0.6744  0.8482
 2050TIP3    H130345   2.816   4.809  16.806 -1.4604  0.2420  0.2878
 2050TIP3    H230346   2.837   4.844  16.952  1.2909  0.6264 -0.1613
 2051TIP3   OH230347   2.472   7.103  18.499 -0.4078  0.5729  0.2190
 2051TIP3    H130348   2.512   7.120  18.413  0.0594 -1.1628  0.0492
 2051TIP3    H230349   2.546   7.078  18.555 -0.9541 -0.3996  0.5317
 2052TIP3   OH230350   0.161   3.106  18.353 -0.0044 -0.1518  0.3493
 2052TIP3    H130351   0.191   3.113  18.262  1.2660  0.3655  0.7749
 2052TIP3    H230352   0.073   3.070  18.347  1.3049 -3.5781 -0.9435
 2053TIP3   OH230353   4.512   4.878  17.515  0.0957 -0.0806  0.3326
 2053TIP3    H130354   4.514   4.964  17.473  0.4109 -0.8795 -1.4012
 2053TIP3    H230355   4.604   4.853  17.525  0.0025 -0.4255  0.3463
 2054TIP3   OH230356   5.472   6.755  16.442  0.4887  0.3326  0.4082
 2054TIP3    H130357   5.518   6.787  16.364  0.2310  0.5444  0.3402
 2054TIP3    H230358   5.519   6.676  16.468  0.6151  0.2985  0.0746
 2055TIP3   OH230359   0.904   5.789  18.795  0.5025 -0.1382 -0.7099
 2055TIP3    H130360   0.996   5.763  18.794  0.4220 -0.4421 -0.5145
 2055TIP3    H230361   0.903   5.875  18.753  1.1339  0.7249  0.9357
 2056TIP3   OH230362   6.765   0.201  18.653  0.0558  0.8583 -0.0363
 2056TIP3    H130363   6.764   0.200  18.557 -1.5765 -1.0312 -0.0834
 2056TIP3    H230364   6.829   0.134  18.677  0.3074  1.1782  0.1854
 2057TIP3   OH230365   3.804   0.548  18.684  0.1449  0.5789 -0.1313
 2057TIP3    H130366   3.762   0.536  18.599  1.5397  1.9214 -1.0592
 2057TIP3    H230367   3.864   0.473  18.692 -0.2329  0.2713 -0.1691
 2058TIP3   OH230368   5.171   3.758  18.170 -0.0274  0.2082  0.4863
 2058TIP3    H130369   5.110   3.823  18.136  1.2283  1.4617  0.5321
 2058TIP3    H230370   5.253   3.805  18.180  0.1398 -0.5574  3.5642
 2059TIP3   OH230371   2.802   4.718  18.453  0.4160 -0.1962 -0.1503
 2059TIP3    H130372   2.722   4.728  18.402 -0.1162 -0.6202  0.5911
 2059TIP3    H230373   2.854   4.796  18.430  0.2585 -0.4459 -1.4302
 2060TIP3   OH230374   4.089   1.157  18.036  0.5401  0.1793 -0.6816
 2060TIP3    H130375   4.141   1.221  17.987 -1.0575  1.3528 -0.9104
 2060TIP3    H230376   4.125   1.161  18.125  1.4491  0.2511 -1.0336
 2061TIP3   OH230377   2.247   2.378  18.451 -0.2692  0.5360 -0.2563
 2061TIP3    H130378   2.276   2.333  18.371 -1.5086  1.1459 -1.0850
 2061TIP3    H230379   2.151   2.377  18.444 -0.5917 -1.8467  2.5877
 2062TIP3   OH230380   2.144   2.951  16.717 -0.4208  0.1276 -0.0274
 2062TIP3    H130381   2.107   2.863  16.716  0.1133 -0.1060  0.3304
 2062TIP3    H230382   2.139   2.978  16.809 -1.5816  0.9098 -0.2894
 2063TIP3   OH230383   2.969   3.032  18.885  0.2100 -0.1050  0.5567
 2063TIP3    H130384   2.974   3.127  18.895  0.8826  0.0310 -0.8582
 2063TIP3    H230385   3.055   3.001  18.912  0.9547 -0.0210 -1.5631
 2064TIP3   OH230386   4.547   3.367  17.587 -0.3117 -0.1758 -1.0904
 2064TIP3    H130387   4.567   3.371  17.493 -0.2845  0.6694 -1.0493
 2064TIP3    H230388   4.455   3.393  17.593  0.0473  1.0640 -0.7613
 2065TIP3   OH230389   6.079   0.979  16.653  0.6264 -0.2130 -0.2402
 2065TIP3    H130390   6.024   0.988  16.576 -0.4942  0.5959  0.6110
 2065TIP3    H230391   6.084   0.884  16.668  2.3071 -0.4920 -2.2625
 2066TIP3   OH230392   2.029   5.079  18.489  0.0334 -0.1186 -0.1533
 2066TIP3    H130393   1.970   5.008  18.462  0.7310 -0.6345 -0.3432
 2066TIP3    H230394   2.108   5.034  18.518  0.6278  0.6143 -0.6294
 2067TIP3   OH230395   3.654   4.205  18.451 -0.4617 -0.1300  0.8598
 2067TIP3    H130396   3.591   4.135  18.470 -1.3039  0.4802  0.3855
 2067TIP3    H230397   3.600   4.277  18.417  0.3215  0.9248  1.7732
 2068TIP3   OH230398   2.453   6.666  17.388 -0.0521 -0.0230 -0.3256
 2068TIP3    H130399   2.481   6.752  17.418  0.6489 -0.6070  0.7520
 2068TIP3    H230400   2.369   6.651  17.433  0.8938 -0.8073  1.2500
 2069TIP3   OH230401   0.073   0.340  18.109  0.4776  0.3093 -0.2511
 2069TIP3    H130402   0.103   0.429  18.091 -0.1656  0.5137 -0.3597
 2069TIP3    H230403  -0.019   0.340  18.083  0.3039 -0.2131  0.3194
 2070TIP3   OH230404   6.908   0.758  18.262 -0.5664 -0.2124 -0.5776
 2070TIP3    H130405   6.925   0.684  18.321 -1.6571 -0.9356 -1.1292
 2070TIP3    H230406   6.814   0.775  18.272 -0.0833  2.1033  0.6346
 2071TIP3   OH230407   4.853   4.534  17.004 -0.3041  0.3347 -0.8419
 2071TIP3    H130408   4.800   4.457  17.024  1.4167 -0.6545  0.0168
 2071TIP3    H230409   4.941   4.513  17.035  0.3446  2.4339 -1.0762
 2072TIP3   OH230410   2.086   2.551  17.021  0.5193 -0.2040 -0.0411
 2072TIP3    H130411   2.114   2.577  17.108 -0.1125 -0.4121  0.2358
 2072TIP3    H230412   2.126   2.466  17.007  0.8077 -0.0671 -0.0473
 2073TIP3   OH230413   6.483   6.611  16.301  0.4902 -0.7768 -0.4496
 2073TIP3    H130414   6.446   6.617  16.389  1.7267 -2.2166  0.2015
 2073TIP3    H230415   6.413   6.646  16.244  0.3534  1.9602  1.1834
 2074TIP3   OH230416   3.470   2.542  18.325 -0.1610 -0.1947  0.0169
 2074TIP3    H130417   3.488   2.539  18.419  1.0391 -0.4103 -0.2045
 2074TIP3    H230418   3.462   2.451  18.299  0.0858 -0.1593 -0.1887
 2075TIP3   OH230419   6.336   2.883  18.300  0.0219 -0.2057  0.3060
 2075TIP3    H130420   6.286   2.896  18.219  0.0558  0.9481  0.4522
 2075TIP3    H230421   6.428   2.888  18.273  0.0362 -0.0888  0.3775
 2076TIP3   OH230422   1.952   7.013  17.860 -0.0871 -0.8545  0.5457
 2076TIP3    H130423   1.905   7.087  17.899 -2.7319 -2.4187  0.5690
 2076TIP3    H230424   1.937   7.022  17.766  0.4064 -0.8555  0.4643
 2077TIP3   OH230425   7.014   1.566  17.740 -0.6079 -0.2100  0.0395
 2077TIP3    H130426   6.989   1.474  17.753 -0.3049 -0.5373 -1.4973
 2077TIP3    H230427   7.053   1.568  17.653  0.6780  1.1313  0.6109
 2078TIP3   OH230428   5.705   7.084  18.252  0.6213  0.1339  0.0573
 2078TIP3    H130429   5.714   7.072  18.346 -1.1622 -0.5636  0.1732
 2078TIP3    H230430   5.664   7.170  18.243 -1.4897 -0.7964  0.1058
 2079TIP3   OH230431   5.565   6.372  16.554 -0.5792 -0.2193  0.5248
 2079TIP3    H130432   5.643   6.426  16.541  0.1336 -0.8482  2.0165
 2079TIP3    H230433   5.544   6.381  16.647 -2.4001  0.0597  0.1320
 2080TIP3   OH230434   0.349   7.068  16.119 -0.2995 -0.0233 -0.0968
 2080TIP3    H130435   0.262   7.046  16.152 -0.5343 -0.2685 -0.8640
 2080TIP3    H230436   0.408   7.046  16.191 -0.7672 -0.8526  0.0419
 2081TIP3   OH230437   5.619   0.990  17.295 -0.1480  0.1514  0.2469
 2081TIP3    H130438   5.608   1.071  17.345  0.2835 -0.2594  1.0156
 2081TIP3    H230439   5.571   1.006  17.214 -1.4798  0.5499  1.0898
 2082TIP3   OH230440   5.521   5.083  16.293  0.4474 -0.4877  0.0339
 2082TIP3    H130441   5.440   5.033  16.283  0.2131 -0.2925  0.9079
 2082TIP3    H230442   5.589   5.017  16.304  0.2866 -0.6331  0.1502
 2083TIP3   OH230443   1.637   3.891  18.264  0.0157 -0.0984  0.1103
 2083TIP3    H130444   1.613   3.906  18.356  1.7916 -0.2492  0.6413
 2083TIP3    H230445   1.726   3.856  18.269  0.3347  0.3949 -1.7110
 2084TIP3   OH230446   7.061   2.565  18.427 -0.2134  0.2652  0.0383
 2084TIP3    H130447   7.011   2.502  18.375 -2.1305  1.8383 -0.1691
 2084TIP3    H230448   7.054   2.534  18.517  0.2378 -0.6576 -0.2370
 2085TIP3   OH230449   5.518   1.822  17.791  0.1739 -0.1971 -0.2531
 2085TIP3    H130450   5.605   1.853  17.765  0.2528  0.3086  0.5762
 2085TIP3    H230451   5.460   1.895  17.771 -0.4767 -1.3232 -2.9303
 2086TIP3   OH230452   4.055   0.960  16.771  0.1030 -0.2613  0.6412
 2086TIP3    H130453   4.099   1.009  16.839 -0.3807 -1.6432  2.0195
 2086TIP3    H230454   4.067   0.868  16.795 -1.0431 -0.7591 -0.5077
 2087TIP3   OH230455   2.056   0.104  18.367  0.4409 -0.2765 -0.6581
 2087TIP3    H130456   1.973   0.149  18.353  1.3846  0.9624 -2.6394
 2087TIP3    H230457   2.037   0.012  18.349 -0.8120 -0.2332  0.3582
 2088TIP3   OH230458   5.317   5.725  16.851  0.1345  0.9352 -0.2764
 2088TIP3    H130459   5.288   5.815  16.837  0.7413  1.5321  1.8725
 2088TIP3    H230460   5.373   5.730  16.929  1.7027 -1.0088 -1.1898
 2089TIP3   OH230461   7.669   3.827  16.430 -0.1850 -0.3806  0.1469
 2089TIP3    H130462   7.709   3.851  16.347 -1.2700  0.1345 -0.2499
 2089TIP3    H230463   7.686   3.733  16.439  1.3668 -0.1205  0.1602
 2090TIP3   OH230464   5.090   2.500  16.119  0.4055  0.1760  0.2060
 2090TIP3    H130465   5.064   2.408  16.127  0.8647 -0.1071 -1.3265
 2090TIP3    H230466   5.086   2.518  16.026 -0.5304  1.9870  0.5605
 2091TIP3   OH230467   3.458   6.575  17.784 -0.1617 -0.1465  0.1119
 2091TIP3    H130468   3.377   6.591  17.736 -0.6962 -0.4911  0.8725
 2091TIP3    H230469   3.464   6.480  17.790  0.5149 -0.1284 -0.2980
 2092TIP3   OH230470   5.086   5.803  17.493 -0.1224  0.2305 -0.3801
 2092TIP3    H130471   5.098   5.755  17.412  0.2002 -0.1547 -0.1054
 2092TIP3    H230472   4.997   5.780  17.522 -0.1114  0.1028 -0.4488
 2093TIP3   OH230473   3.828   2.275  17.933  0.3367  0.5550  0.1982
 2093TIP3    H130474   3.827   2.321  18.017  1.4650  0.6627  0.1687
 2093TIP3    H230475   3.878   2.332  17.875  0.4973 -0.0258 -0.2429
 2094TIP3   OH230476   1.238   5.419  18.571 -0.1638 -0.2420 -0.2648
 2094TIP3    H130477   1.167   5.465  18.528  0.0800  0.4079  0.0168
 2094TIP3    H230478   1.195   5.360  18.633 -0.6023 -2.3557 -2.4423
 2095TIP3   OH230479   1.128   5.594  17.156  0.1309 -0.0182  0.3154
 2095TIP3    H130480   1.123   5.580  17.250 -0.9085 -0.4780  0.2125
 2095TIP3    H230481   1.041   5.571  17.124  0.7555 -0.8327 -0.8785
 2096TIP3   OH230482   6.942   2.433  17.763 -0.3078 -0.4930 -0.1114
 2096TIP3    H130483   7.014   2.493  17.782 -0.4451 -0.0979 -0.7937
 2096TIP3    H230484   6.913   2.402  17.849  0.9683 -1.0156  0.1603
 2097TIP3   OH230485   4.771   2.529  16.314 -0.0692  0.2239  0.2968
 2097TIP3    H130486   4.778   2.463  16.245 -0.8853  0.8367 -0.3993
 2097TIP3    H230487   4.726   2.602  16.272 -0.5453  0.6322  1.4807
 2098TIP3   OH230488   4.976   6.965  16.482  0.4560 -0.3122  0.1432
 2098TIP3    H130489   5.037   7.022  16.434  0.9946 -0.4682  0.6374
 2098TIP3    H230490   4.905   6.949  16.420 -0.2773  1.8007  0.3680
 2099TIP3   OH230491   5.130   1.730  16.610 -0.1028 -0.3188 -0.1516
 2099TIP3    H130492   5.187   1.752  16.683 -0.0290 -1.0551  0.0184
 2099TIP3    H230493   5.184   1.745  16.532  0.2175 -0.6932 -0.0033
 2100TIP3   OH230494   3.261   2.941  18.957  0.1080  0.2582  0.1560
 2100TIP3    H130495   3.279   2.892  18.876  1.7296  1.3913 -0.2092
 2100TIP3    H230496   3.346   2.972  18.986 -0.7698  2.3858  0.6742
 2101TIP3   OH230497   2.324   6.152  17.888  0.0872 -0.1058 -0.3644
 2101TIP3    H130498   2.284   6.180  17.805 -0.7763 -3.0049 -1.0400
 2101TIP3    H230499   2.419   6.157  17.871 -0.0579  0.6924 -1.0174
 2102TIP3   OH230500   2.348   6.693  18.265  0.1638 -0.0942  0.3208
 2102TIP3    H130501   2.320   6.602  18.274 -1.0579  0.2955  0.6432
 2102TIP3    H230502   2.385   6.698  18.177  0.1370 -0.8695  0.2612
 2103TIP3   OH230503   3.095   0.524  18.711  0.7421 -0.0933 -0.7274
 2103TIP3    H130504   3.188   0.518  18.690  0.2676 -1.3978 -2.7611
 2103TIP3    H230505   3.057   0.442  18.680 -1.1579  0.5691 -0.3341
 2104TIP3   OH230506   5.985   4.507  16.963 -0.0963 -0.2123  0.3712
 2104TIP3    H130507   6.005   4.587  16.914  1.4260 -0.4493  0.5750
 2104TIP3    H230508   5.921   4.461  16.908  0.2466  0.3804 -0.5395
 2105TIP3   OH230509   1.604   3.815  17.463 -0.3320 -0.7943 -0.3973
 2105TIP3    H130510   1.514   3.844  17.449 -0.5496 -2.1230 -2.0685
 2105TIP3    H230511   1.597   3.720  17.478  0.6301 -0.5997  1.6431
 2106TIP3   OH230512   5.338   5.384  16.319 -0.4420  0.0205  0.0807
 2106TIP3    H130513   5.324   5.401  16.412  0.1118 -0.9224  0.3457
 2106TIP3    H230514   5.250   5.371  16.283 -0.5524 -2.7147  1.1025
 2107TIP3   OH230515   5.096   4.512  16.301  0.0763  0.8867  0.3230
 2107TIP3    H130516   5.126   4.436  16.251 -1.1847  1.6820 -1.7899
 2107TIP3    H230517   5.175   4.565  16.314  0.9784 -0.7439  1.8739
 2108TIP3   OH230518   3.421   2.640  16.528  0.3086 -0.1396  0.1376
 2108TIP3    H130519   3.326   2.642  16.531  0.2952  0.7204 -0.3103
 2108TIP3    H230520   3.443   2.682  16.444  1.0548 -1.0945 -0.1621
 2109TIP3   OH230521   0.053   0.792  18.242  0.4919 -0.3570 -0.1182
 2109TIP3    H130522  -0.005   0.859  18.278  0.3969 -0.6971  0.3588
 2109TIP3    H230523   0.088   0.832  18.162 -1.3121 -0.5901 -1.0648
 2110TIP3   OH230524   2.830   6.556  17.229 -0.1683 -0.0173  0.0791
 2110TIP3    H130525   2.874   6.541  17.145  2.2570  2.7362  0.6829
 2110TIP3    H230526   2.876   6.497  17.290  0.7448  0.7450  0.1516
 2111TIP3   OH230527   1.784   5.832  18.290  0.2682 -0.2652  0.1780
 2111TIP3    H130528   1.754   5.868  18.373 -1.8728 -1.2083 -0.1181
 2111TIP3    H230529   1.765   5.738  18.296 -1.1552 -0.1731 -1.8286
 2112TIP3   OH230530   5.521   6.538  17.636 -0.2442 -0.0517 -0.1669
 2112TIP3    H130531   5.427   6.545  17.618 -0.0860  1.1711 -0.6521
 2112TIP3    H230532   5.560   6.518  17.551 -0.0678 -0.5864  0.0388
 2113TIP3   OH230533   0.195   6.339  16.665 -0.0127 -0.4263  0.5319
 2113TIP3    H130534   0.211   6.295  16.582 -2.8912 -2.0652  0.7274
 2113TIP3    H230535   0.231   6.279  16.731 -2.6536 -1.9998  0.7016
 2114TIP3   OH230536   6.694   5.079  17.195 -0.0780 -0.6268 -0.0388
 2114TIP3    H130537   6.758   5.123  17.140  0.7035 -0.7243  0.7606
 2114TIP3    H230538   6.635   5.149  17.224 -0.9696 -0.6937 -1.5794
 2115TIP3   OH230539   4.379   1.335  18.448 -0.0619 -0.1673  0.5527
 2115TIP3    H130540   4.380   1.360  18.540  0.6271 -0.9046  0.7455
 2115TIP3    H230541   4.290   1.302  18.433  0.3021 -1.5900  1.3792
 2116TIP3   OH230542   0.560   7.441  16.359 -0.1780 -0.0151 -0.6823
 2116TIP3    H130543   0.507   7.484  16.425 -0.6028 -0.5495 -0.6668
 2116TIP3    H230544   0.537   7.348  16.366  0.7693 -0.2636 -0.6610
 2117TIP3   OH230545   5.699   3.103  18.048  0.0113  0.0152  0.1358
 2117TIP3    H130546   5.624   3.162  18.054  0.9028  1.1525  0.2604
 2117TIP3    H230547   5.761   3.147  17.990  0.3873 -1.1458 -0.3889
 2118TIP3   OH230548   4.515   1.883  17.935  0.1106 -0.2972  0.0931
 2118TIP3    H130549   4.527   1.974  17.962 -1.2900 -0.4723  1.4613
 2118TIP3    H230550   4.580   1.869  17.867 -0.2422  1.9938 -0.7853
 2119TIP3   OH230551   1.268   3.108  17.057  0.6100 -0.9204  0.0966
 2119TIP3    H130552   1.340   3.046  17.047  1.5250 -0.0350  0.9047
 2119TIP3    H230553   1.310   3.194  17.048 -0.4107 -0.4011  0.2366
 2120TIP3   OH230554   6.786   0.925  17.925  0.3441 -0.2782 -0.4170
 2120TIP3    H130555   6.722   0.936  17.995 -0.3293 -1.4929 -0.8136
 2120TIP3    H230556   6.870   0.945  17.966 -0.1760  0.3104  0.3881
 2121TIP3   OH230557   0.221   6.888  16.985  0.2327  0.2718 -0.0368
 2121TIP3    H130558   0.248   6.819  17.045 -1.1760  0.5914  1.0131
 2121TIP3    H230559   0.167   6.843  16.920 -1.8863  0.5071  1.4485
 2122TIP3   OH230560   4.841   7.468  16.408 -0.0897 -0.1093  0.0652
 2122TIP3    H130561   4.805   7.463  16.496 -0.5151 -0.8027 -0.1366
 2122TIP3    H230562   4.933   7.443  16.419 -0.2448 -0.6221  0.2623
 2123TIP3   OH230563   1.664   0.190  18.101 -0.3652  0.5964 -0.6072
 2123TIP3    H130564   1.609   0.117  18.074 -3.6717  2.2316  1.0906
 2123TIP3    H230565   1.658   0.253  18.029  1.8903 -0.3518 -1.7422
 2124TIP3   OH230566   5.223   7.072  18.410  0.4208  0.2055  0.6907
 2124TIP3    H130567   5.142   7.121  18.423  1.0399  1.1820  1.0069
 2124TIP3    H230568   5.266   7.117  18.337  0.8437 -0.0763  0.7651
 2125TIP3   OH230569   0.082   1.750  16.558 -0.3335 -0.3754 -0.2833
 2125TIP3    H130570   0.028   1.677  16.529 -0.1182 -0.6355 -0.0331
 2125TIP3    H230571   0.081   1.811  16.484  0.6679 -1.2785 -1.0714
 2126TIP3   OH230572   6.729   7.083  16.855  0.5067 -0.1559 -0.3344
 2126TIP3    H130573   6.790   7.037  16.912 -0.3492 -1.5280 -0.5008
 2126TIP3    H230574   6.681   7.142  16.914  0.6967 -0.4272  0.0912
 2127TIP3   OH230575   1.724   4.834  17.351 -0.2436  0.2279 -0.0691
 2127TIP3    H130576   1.775   4.871  17.423 -1.1262  0.9555  0.1971
 2127TIP3    H230577   1.779   4.764  17.316  0.1288 -0.2676  1.4296
 2128TIP3   OH230578   4.828   7.224  16.592 -0.4510  0.0602 -0.0560
 2128TIP3    H130579   4.853   7.165  16.521 -1.3068 -0.7881  0.3122
 2128TIP3    H230580   4.745   7.262  16.564 -0.3826  0.3527  0.1320
 2129TIP3   OH230581   2.307   0.370  17.986  0.1525  1.0537  0.4811
 2129TIP3    H130582   2.253   0.385  17.908 -1.6851  0.4553  1.5829
 2129TIP3    H230583   2.387   0.420  17.969 -1.2106  2.9925 -0.7302
 2130TIP3   OH230584   6.294   4.331  16.952  0.0039 -0.1069 -0.1357
 2130TIP3    H130585   6.288   4.321  17.047 -0.6953  0.4481 -0.1155
 2130TIP3    H230586   6.367   4.274  16.927  0.0744 -0.4043  0.7068
 2131TIP3   OH230587   0.698   1.690  17.083 -0.1126 -0.0729 -0.5231
 2131TIP3    H130588   0.634   1.671  17.015  1.0820 -1.0933 -1.4234
 2131TIP3    H230589   0.754   1.613  17.084  1.1928  0.8526  0.1136
 2132TIP3   OH230590   7.474   2.150  17.433 -0.4151  0.2843  0.2365
 2132TIP3    H130591   7.406   2.085  17.419 -1.0599  0.6508  1.4766
 2132TIP3    H230592   7.429   2.234  17.422  0.1168  0.5251 -0.1231
 2133TIP3   OH230593   2.895   3.216  18.349 -0.3678  0.0651 -0.5709
 2133TIP3    H130594   2.980   3.236  18.389  0.8479 -1.6846 -2.0966
 2133TIP3    H230595   2.902   3.252  18.260 -0.6008 -1.3665 -1.1972
 2134TIP3   OH230596   6.556   1.913  16.937  0.5329 -0.0881  0.2835
 2134TIP3    H130597   6.581   1.990  16.988  0.8923 -1.0833  1.6720
 2134TIP3    H230598   6.466   1.932  16.909  1.1611  1.5232 -0.8308
 2135TIP3   OH230599   2.145   6.459  16.859  0.1686 -0.1430 -0.3025
 2135TIP3    H130600   2.178   6.375  16.826 -0.5780 -1.3778  1.8528
 2135TIP3    H230601   2.051   6.456  16.840  0.2772  0.5893 -0.9621
 2136TIP3   OH230602   4.117   3.456  16.265  0.3486 -1.0242  0.4598
 2136TIP3    H130603   4.031   3.413  16.260 -0.3502  0.3779 -0.2662
 2136TIP3    H230604   4.137   3.479  16.174  0.5085  0.5058  0.8617
 2137TIP3   OH230605   3.141   4.413  16.883  0.1551  0.1611  0.4141
 2137TIP3    H130606   3.128   4.434  16.790  0.8071 -0.4183  0.1777
 2137TIP3    H230607   3.055   4.427  16.923 -0.2237  0.0952 -0.3445
 2138TIP3   OH230608   4.622   3.012  16.381 -0.2927  0.0274 -0.3585
 2138TIP3    H130609   4.545   2.999  16.326 -0.6895  0.2299  0.1330
 2138TIP3    H230610   4.621   3.106  16.401  0.9880  0.3382 -1.6440
 2139TIP3   OH230611   1.469   5.935  18.274 -0.6009 -0.0121  0.2576
 2139TIP3    H130612   1.473   5.864  18.338 -2.6066  0.6764  1.2313
 2139TIP3    H230613   1.483   6.014  18.325  1.8122  0.3643 -0.8506
 2140TIP3   OH230614   2.411   6.753  18.558  0.0642  0.6732  0.0912
 2140TIP3    H130615   2.395   6.756  18.464 -1.2826  0.5879  0.2965
 2140TIP3    H230616   2.506   6.747  18.566  0.2273  1.0970 -1.2475
 2141TIP3   OH230617   5.555   6.775  17.400 -0.5020 -0.1720 -0.1857
 2141TIP3    H130618   5.471   6.773  17.445  0.3370  0.3393  1.4775
 2141TIP3    H230619   5.582   6.683  17.396  0.0913 -0.1189  1.7663
 2142TIP3   OH230620   1.008   7.604  16.985 -0.1442 -0.1310  0.4215
 2142TIP3    H130621   0.944   7.567  17.045 -0.0607 -0.8809  0.0538
 2142TIP3    H230622   0.985   7.568  16.899  1.6908 -1.6654  0.5253
 2143TIP3   OH230623   7.150   3.130  17.798  0.1192 -0.0344  0.6716
 2143TIP3    H130624   7.163   3.221  17.825  0.5684 -0.3501  1.5817
 2143TIP3    H230625   7.189   3.079  17.869 -1.3040 -0.9645  0.8279
 2144TIP3   OH230626   2.994   2.242  17.868 -0.0604  0.4122 -0.3811
 2144TIP3    H130627   2.965   2.244  17.777  0.3639 -2.7761 -0.7240
 2144TIP3    H230628   2.979   2.151  17.896  0.0766  1.1959  2.6769
 2145TIP3   OH230629   0.107   3.796  17.449  0.6004  0.1162 -0.3164
 2145TIP3    H130630   0.199   3.819  17.442  0.8020 -0.9598 -1.4676
 2145TIP3    H230631   0.066   3.839  17.373 -0.3380  2.6670  1.5074
 2146TIP3   OH230632   1.286   3.357  18.720  0.0274  0.2719 -0.6164
 2146TIP3    H130633   1.248   3.277  18.756  0.6824 -1.0756 -2.7547
 2146TIP3    H230634   1.212   3.419  18.717 -0.5132 -0.2592  0.9577
 2147TIP3   OH230635   3.168   7.238  17.313  0.7359 -0.0707  1.0162
 2147TIP3    H130636   3.125   7.226  17.398  0.0515 -0.1933  0.6541
 2147TIP3    H230637   3.254   7.276  17.335  0.5652 -0.1023  1.7597
 2148TIP3   OH230638   6.139   2.204  16.587  0.0899  0.8037 -0.5264
 2148TIP3    H130639   6.214   2.248  16.628 -1.1482  2.0549  0.5057
 2148TIP3    H230640   6.082   2.180  16.660  0.9322 -3.2200 -0.9535
 2149TIP3   OH230641   6.853   6.708  17.457  0.4638 -0.1200  0.1286
 2149TIP3    H130642   6.886   6.646  17.392  1.8860 -0.0659  0.7670
 2149TIP3    H230643   6.867   6.664  17.541 -0.4446  0.2179  0.4635
 2150TIP3   OH230644   6.171   0.230  18.348 -0.0586  0.1435  0.2770
 2150TIP3    H130645   6.075   0.228  18.356 -0.2268 -2.5301 -1.0899
 2150TIP3    H230646   6.202   0.230  18.439 -1.3124  1.3882  0.7462
 2151TIP3   OH230647   7.611   7.529  16.823 -0.1296  0.1300 -0.1640
 2151TIP3    H130648   7.570   7.517  16.737  0.1643  0.6825 -0.3848
 2151TIP3    H230649   7.683   7.466  16.824  0.2968  0.6086 -0.6018
 2152TIP3   OH230650   6.329   1.435  18.912 -0.7007 -0.2709 -0.4108
 2152TIP3    H130651   6.242   1.468  18.933 -0.6618  0.4784 -1.3670
 2152TIP3    H230652   6.375   1.432  18.996 -1.8727 -1.4034  0.2192
 2153TIP3   OH230653   2.996   7.391  17.162 -0.5609  0.1160 -0.0310
 2153TIP3    H130654   3.059   7.338  17.211 -1.5613 -0.1540  0.9826
 2153TIP3    H230655   2.912   7.347  17.174 -0.9130  0.2448 -1.6950
 2154TIP3   OH230656   1.355   5.855  18.593  0.1656 -0.8336  0.6034
 2154TIP3    H130657   1.428   5.800  18.565  0.9280  1.5314 -2.6940
 2154TIP3    H230658   1.395   5.921  18.649  0.4197 -0.1083 -0.4142
 2155TIP3   OH230659   2.974   6.141  17.193  0.3746 -0.0127 -0.4897
 2155TIP3    H130660   3.039   6.199  17.152  2.0020 -1.5639 -0.2008
 2155TIP3    H230661   2.964   6.069  17.131 -0.5224 -0.1603 -0.1804
 2156TIP3   OH230662   1.340   4.531  17.651 -0.1198  0.0371  0.4081
 2156TIP3    H130663   1.386   4.581  17.719  0.2027  2.4313 -1.4480
 2156TIP3    H230664   1.390   4.548  17.571 -0.7718 -2.3094 -0.5715
 2157TIP3   OH230665   5.997   1.713  17.891  0.6012 -0.1963 -0.0675
 2157TIP3    H130666   5.942   1.791  17.901  0.6003 -0.5265  3.7211
 2157TIP3    H230667   6.086   1.748  17.880  0.6596  0.4072  2.0163
 2158TIP3   OH230668   5.479   5.512  18.251 -0.4360 -0.2243 -0.2117
 2158TIP3    H130669   5.453   5.523  18.343 -0.7909  0.8990 -0.4322
 2158TIP3    H230670   5.573   5.497  18.254 -0.1825  1.3126  0.2650
 2159TIP3   OH230671   4.309   1.794  18.124 -0.1973  0.4349  0.3482
 2159TIP3    H130672   4.267   1.864  18.174  0.8572  0.2982  1.4736
 2159TIP3    H230673   4.386   1.836  18.084 -0.3209  0.2323 -0.1106
 2160TIP3   OH230674   3.933   5.357  16.584 -0.2966 -0.1269  1.0583
 2160TIP3    H130675   3.964   5.279  16.630 -0.3274  0.1442  1.5506
 2160TIP3    H230676   3.918   5.421  16.654  1.8312  1.0627  0.5176
 2161TIP3   OH230677   3.443   4.012  17.233  0.5492  0.0666 -0.4216
 2161TIP3    H130678   3.375   4.037  17.297 -0.5259 -0.5708 -1.2702
 2161TIP3    H230679   3.400   4.023  17.148  1.4062 -0.7206 -0.9658
 2162TIP3   OH230680   1.590   3.886  17.746  0.0390 -0.4125 -0.7346
 2162TIP3    H130681   1.615   3.916  17.659 -1.1221  0.2748 -0.8632
 2162TIP3    H230682   1.584   3.966  17.798  0.7170 -0.8170 -0.0148
 2163TIP3   OH230683   5.373   6.763  18.230 -0.6201 -0.7445 -0.1082
 2163TIP3    H130684   5.422   6.701  18.177  1.3538  1.1289 -0.6553
 2163TIP3    H230685   5.322   6.814  18.166  0.1736  0.1763 -0.0302
 2164TIP3   OH230686   7.338   2.939  16.728  0.3148  0.1437  0.6482
 2164TIP3    H130687   7.367   2.850  16.745  1.2604  0.4508  0.6672
 2164TIP3    H230688   7.418   2.991  16.721 -0.0399  0.4371 -2.7676
 2165TIP3   OH230689   2.749   3.486  15.978  0.5726 -0.0274 -0.0117
 2165TIP3    H130690   2.705   3.549  16.035  0.1941 -0.6304  0.3759
 2165TIP3    H230691   2.706   3.496  15.893 -0.0466 -0.3204  0.2563
 2166TIP3   OH230692   5.436   6.894  18.448  0.1387 -0.1299 -0.1188
 2166TIP3    H130693   5.355   6.944  18.455 -0.0738 -0.4343 -0.3422
 2166TIP3    H230694   5.431   6.853  18.361  0.9451  0.5630 -0.5055
 2167TIP3   OH230695   4.827   4.771  16.824 -0.4222  0.1040 -0.5652
 2167TIP3    H130696   4.897   4.771  16.890 -1.1772 -1.1426  0.2712
 2167TIP3    H230697   4.770   4.699  16.849 -1.5064  0.4940 -1.7879
 2168TIP3   OH230698   6.450   3.788  16.984 -0.0657 -0.0458 -0.1248
 2168TIP3    H130699   6.454   3.762  16.892 -1.8082  1.9483 -0.8474
 2168TIP3    H230700   6.356   3.795  17.004  0.2772  0.3120  1.5689
 2169TIP3   OH230701   5.930   2.968  18.185 -0.2006  0.1755  0.2379
 2169TIP3    H130702   5.866   3.030  18.148  0.0311  1.1103  1.3385
 2169TIP3    H230703   5.878   2.913  18.244 -0.5268 -1.1583 -1.2360
 2170TIP3   OH230704   4.775   0.092  16.574  0.1219  0.8920  0.2426
 2170TIP3    H130705   4.772   0.066  16.482 -2.2823 -1.3709  0.8376
 2170TIP3    H230706   4.868   0.086  16.597  0.4131 -2.0996 -1.1608
 2171TIP3   OH230707   6.773   0.563  17.345  0.2727 -0.4544  0.1627
 2171TIP3    H130708   6.802   0.509  17.272  0.8528  0.6414 -0.4439
 2171TIP3    H230709   6.854   0.598  17.383 -0.0753 -0.1317  0.6354
 2172TIP3   OH230710   6.138   5.979  17.980  0.2446 -0.4207  0.0703
 2172TIP3    H130711   6.071   5.977  17.911  0.0677 -0.9784  0.2467
 2172TIP3    H230712   6.121   6.060  18.028  1.4293  0.8655 -1.5555
 2173TIP3   OH230713   4.120   2.466  18.512  0.3119  0.5968 -0.0768
 2173TIP3    H130714   4.064   2.503  18.443 -0.5147 -0.4196  0.0238
 2173TIP3    H230715   4.151   2.542  18.561 -0.5509  1.2225 -0.4658
 2174TIP3   OH230716   0.655   2.269  17.988  0.0679  0.0501  0.5808
 2174TIP3    H130717   0.562   2.283  17.972 -0.0665 -1.4196 -0.0502
 2174TIP3    H230718   0.657   2.217  18.068  0.4484  1.3429  1.4592
 2175TIP3   OH230719   0.111   6.727  16.768 -0.0262  0.0280 -0.1668
 2175TIP3    H130720   0.062   6.664  16.715  0.4703 -0.6448  0.1674
 2175TIP3    H230721   0.201   6.693  16.770  0.1205  0.4324  0.5058
 2176TIP3   OH230722   3.573   4.248  16.685 -0.6357 -0.5063  0.1536
 2176TIP3    H130723   3.533   4.208  16.607 -1.5925  0.1632  0.2882
 2176TIP3    H230724   3.568   4.342  16.668  1.9246 -0.3706 -0.3344
 2177TIP3   OH230725   3.867   5.988  17.604  0.2908 -0.3082 -0.4005
 2177TIP3    H130726   3.891   5.914  17.660  0.9933 -1.1713 -1.7857
 2177TIP3    H230727   3.783   6.018  17.638  0.3077 -1.3214  0.5929
 2178TIP3   OH230728   7.224   4.977  16.372  0.3358  0.4226 -0.2892
 2178TIP3    H130729   7.291   5.033  16.333 -0.5193  1.4117 -0.3833
 2178TIP3    H230730   7.255   4.888  16.355  2.0466  0.8423  0.4437
 2179TIP3   OH230731   7.635   5.207  17.800 -0.1682 -0.0006  0.3971
 2179TIP3    H130732   7.621   5.258  17.721 -2.3419  0.4273  0.9819
 2179TIP3    H230733   7.694   5.260  17.853  1.5171 -0.4126 -0.9970
 2180TIP3   OH230734   0.003   2.377  18.247  0.0675 -0.3252 -0.1960
 2180TIP3    H130735  -0.043   2.356  18.165  0.3348 -1.0443 -0.1667
 2180TIP3    H230736   0.089   2.408  18.218 -0.0537 -0.0048 -0.2113
 2181TIP3   OH230737   4.692   3.220  15.550 -0.0452 -0.1701  0.0242
 2181TIP3    H130738   4.695   3.191  15.459  1.4609 -0.9595  0.2943
 2181TIP3    H230739   4.704   3.140  15.601 -1.5828  0.1484  0.9681
 2182TIP3   OH230740   2.733   2.111  17.599 -0.1490  0.1654 -0.3794
 2182TIP3    H130741   2.765   2.022  17.590 -0.5131  0.0677 -0.6837
 2182TIP3    H230742   2.812   2.165  17.594 -0.0153 -0.0854 -0.9806
 2183TIP3   OH230743   1.439   1.390  18.803 -0.6735  0.1725 -0.7937
 2183TIP3    H130744   1.514   1.360  18.751  0.4232  0.8284  0.3309
 2183TIP3    H230745   1.366   1.335  18.775  1.2324 -3.9251  1.3857
 2184TIP3   OH230746   0.506   7.661  16.765 -0.2731  0.0637 -0.3675
 2184TIP3    H130747   0.564   7.599  16.809  0.9805  1.5010  0.1109
 2184TIP3    H230748   0.446   7.690  16.834 -0.6789 -0.4257 -0.5197
 2185TIP3   OH230749   1.998   6.207  17.476 -0.6362  0.3569  0.4989
 2185TIP3    H130750   1.988   6.120  17.438 -1.2279 -0.6327  2.7853
 2185TIP3    H230751   1.909   6.242  17.480 -0.3560  1.3358 -0.8697
 2186TIP3   OH230752   0.260   6.116  16.842 -0.4835 -0.2358 -0.2575
 2186TIP3    H130753   0.172   6.082  16.859 -0.7563  0.0847 -0.9437
 2186TIP3    H230754   0.302   6.049  16.789 -0.3845 -0.2999 -0.0972
 2187TIP3   OH230755   7.547   5.760  17.405 -0.4885 -0.1351 -0.1781
 2187TIP3    H130756   7.579   5.819  17.337  2.1903 -1.3845 -0.1493
 2187TIP3    H230757   7.621   5.751  17.466 -0.8072 -3.2583 -0.0631
 2188TIP3   OH230758   3.680   3.443  17.484  0.3499 -0.2454  0.5440
 2188TIP3    H130759   3.720   3.512  17.537 -2.2893  1.3613  0.6215
 2188TIP3    H230760   3.677   3.478  17.395  2.0071 -1.6932 -0.1319
 2189TIP3   OH230761   6.111   4.771  17.848 -0.1404  0.5084  0.3779
 2189TIP3    H130762   6.037   4.827  17.874  0.0297  0.9726 -0.1018
 2189TIP3    H230763   6.089   4.685  17.882 -0.1960  0.9583  1.5396
 2190TIP3   OH230764   4.436   2.593  15.865 -0.3920  0.2720  0.1732
 2190TIP3    H130765   4.525   2.626  15.858  0.1603 -0.9739  1.0328
 2190TIP3    H230766   4.445   2.498  15.861 -1.4849  0.0418  2.0104
 2191TIP3   OH230767   2.103   1.352  18.617  0.8780 -0.1129  0.1142
 2191TIP3    H130768   2.166   1.350  18.545  0.4263 -4.1415 -0.4033
 2191TIP3    H230769   2.149   1.310  18.690  0.7498  2.4162  1.7765
 2192TIP3   OH230770   1.681   5.502  17.605  0.1471 -0.2516  0.0439
 2192TIP3    H130771   1.627   5.581  17.615 -1.4038 -0.8305 -2.8903
 2192TIP3    H230772   1.748   5.527  17.542  0.5294 -0.8765  0.1956
 2193TIP3   OH230773   6.071   0.086  17.617  0.3685 -0.5318  1.0065
 2193TIP3    H130774   6.134   0.030  17.570  0.4710 -0.3285  0.8996
 2193TIP3    H230775   5.986   0.049  17.596  0.3766 -0.1291  0.2300
 2194TIP3   OH230776   4.831   0.536  17.585 -0.3504  0.2588 -0.3858
 2194TIP3    H130777   4.856   0.552  17.676 -1.2017 -3.7557  0.7305
 2194TIP3    H230778   4.740   0.565  17.580 -0.4995 -0.0927  0.2312
 2195TIP3   OH230779   2.090   6.749  18.202  0.1231  0.5163 -0.5902
 2195TIP3    H130780   2.090   6.775  18.110  0.5827 -0.5650 -0.9160
 2195TIP3    H230781   2.181   6.728  18.221 -0.2761 -1.4219 -0.5531
 2196TIP3   OH230782   7.313   7.159  17.112  0.0721  0.1803  0.0020
 2196TIP3    H130783   7.336   7.156  17.019  0.8106  0.0352  0.1810
 2196TIP3    H230784   7.372   7.225  17.149 -1.0679  1.1536  0.1429
 2197TIP3   OH230785   4.155   7.494  16.906  0.0577 -0.3993  0.4828
 2197TIP3    H130786   4.237   7.494  16.857 -0.7092  0.0048 -0.8556
 2197TIP3    H230787   4.180   7.472  16.996  1.5614 -0.7240  0.0048
 2198TIP3   OH230788   1.962   5.543  17.537  0.6763  0.4187 -0.1751
 2198TIP3    H130789   2.047   5.526  17.495  0.5914 -0.0887 -0.1482
 2198TIP3    H230790   1.979   5.529  17.630  0.6227  0.5636 -0.1440
 2199TIP3   OH230791   3.642   0.846  16.287  0.2488  0.1476  0.0951
 2199TIP3    H130792   3.598   0.918  16.243  2.3329  2.2915  1.2899
 2199TIP3    H230793   3.572   0.784  16.309 -1.3737  0.9351 -2.4889
 2200TIP3   OH230794   4.168   2.660  17.987 -0.1071  0.3027 -0.2168
 2200TIP3    H130795   4.208   2.644  17.901 -2.6806 -1.4534 -1.2194
 2200TIP3    H230796   4.143   2.573  18.018 -2.1607  1.2012  0.7949
 2201TIP3   OH230797   0.852   4.689  16.992 -0.1014  0.3317  0.4399
 2201TIP3    H130798   0.797   4.616  17.019 -1.4494  1.3187  0.5023
 2201TIP3    H230799   0.940   4.653  16.986 -0.9616 -1.6390 -1.0117
 2202TIP3   OH230800   5.423   5.201  17.007 -0.4675 -0.3786 -1.0186
 2202TIP3    H130801   5.409   5.286  16.966 -1.9431 -0.4915 -0.8367
 2202TIP3    H230802   5.420   5.138  16.934  2.1277 -0.1990 -1.3496
 2203TIP3   OH230803   7.152   7.622  17.487 -0.8185  0.2062  0.0976
 2203TIP3    H130804   7.133   7.621  17.393 -2.1753  0.5453  0.3524
 2203TIP3    H230805   7.212   7.548  17.500  1.0200  1.3497 -1.3368
 2204TIP3   OH230806   5.316   6.156  17.427 -0.2131 -0.3883  0.8208
 2204TIP3    H130807   5.249   6.158  17.496 -0.4483 -0.9872  0.6176
 2204TIP3    H230808   5.266   6.158  17.346  0.0517 -0.0205  0.6644
 2205TIP3   OH230809   4.383   6.752  17.611  0.2861  0.1748 -0.9411
 2205TIP3    H130810   4.396   6.816  17.680  0.4544 -0.1276 -0.6925
 2205TIP3    H230811   4.292   6.766  17.582 -0.6054 -1.2443  0.9367
 2206TIP3   OH230812   4.271   6.680  18.013 -0.2992 -0.6438 -0.7289
 2206TIP3    H130813   4.176   6.670  18.008 -0.5239 -0.5391  1.8357
 2206TIP3    H230814   4.306   6.597  17.979 -1.3513 -1.0976 -0.7418
 2207TIP3   OH230815   7.397   1.208  18.257  0.3343  0.5748 -0.0819
 2207TIP3    H130816   7.419   1.292  18.298  1.4261  0.6992 -0.8865
 2207TIP3    H230817   7.410   1.222  18.163 -1.1697  0.0053 -0.4164
 2208TIP3   OH230818   0.131   6.575  17.342 -0.4267  0.5333 -0.0097
 2208TIP3    H130819   0.062   6.515  17.314 -1.0501  0.5764  1.3714
 2208TIP3    H230820   0.151   6.549  17.432 -0.1473  1.8815  0.3428
 2209TIP3   OH230821   4.585   2.730  16.955 -0.6424  0.2488 -0.1713
 2209TIP3    H130822   4.547   2.732  16.867 -0.2678 -2.3195 -0.4692
 2209TIP3    H230823   4.678   2.716  16.941 -0.3674  1.1484  0.6409
 2210TIP3   OH230824   0.531   1.572  16.542  0.2416 -0.1000  0.6182
 2210TIP3    H130825   0.449   1.600  16.583 -0.2993  1.3261 -1.3274
 2210TIP3    H230826   0.584   1.651  16.536  0.9122 -0.5783 -0.0423
 2211TIP3   OH230827   6.752   3.220  17.798 -0.0985  0.4836  0.3576
 2211TIP3    H130828   6.779   3.161  17.728 -1.0285 -1.2692  1.3752
 2211TIP3    H230829   6.804   3.192  17.874 -0.3228  1.1814  0.7768
 2212TIP3   OH230830   6.846   2.305  17.184  0.4017  0.2814  0.1217
 2212TIP3    H130831   6.878   2.256  17.108  1.1978 -0.8621  1.1592
 2212TIP3    H230832   6.815   2.238  17.245 -0.4782  1.1950  0.7009
 2213TIP3   OH230833   1.133   0.455  17.254 -0.1866  0.7812  0.3382
 2213TIP3    H130834   1.063   0.425  17.195 -0.0491 -1.3569  1.1601
 2213TIP3    H230835   1.136   0.550  17.242  1.5369  0.3246 -4.9288
 2214TIP3   OH230836   5.258   1.680  16.876  0.3252  0.0829  0.4129
 2214TIP3    H130837   5.183   1.638  16.918  0.2893  0.6899  0.9732
 2214TIP3    H230838   5.317   1.607  16.855 -1.0156 -0.5647 -1.3320
 2215TIP3   OH230839   6.719   1.975  18.050  0.0711 -0.6480  0.5122
 2215TIP3    H130840   6.702   2.069  18.056  0.9154 -0.4540  0.0668
 2215TIP3    H230841   6.805   1.964  18.092  0.7296 -0.9702 -0.8789
 2216TIP3   OH230842   3.718   2.373  16.951 -0.1769  0.0037  0.4520
 2216TIP3    H130843   3.780   2.421  16.896 -0.4771  0.6083  0.6327
 2216TIP3    H230844   3.690   2.299  16.897 -0.4485  0.5767 -0.2054
 2217TIP3   OH230845   3.897   7.208  17.798  0.2510 -0.3106  0.2255
 2217TIP3    H130846   3.825   7.268  17.777 -0.0974 -0.4007  1.1259
 2217TIP3    H230847   3.936   7.188  17.713  0.4236  1.2437 -0.1030
 2218TIP3   OH230848   1.860   6.463  18.980 -0.4969 -0.2166  0.5407
 2218TIP3    H130849   1.932   6.464  18.917  0.4603 -2.0708  1.5274
 2218TIP3    H230850   1.854   6.553  19.011  0.9675  0.1206 -0.0582
 2219TIP3   OH230851   0.208   7.422  16.442  0.1649  0.1760 -0.1557
 2219TIP3    H130852   0.234   7.510  16.469  0.0404 -0.0382  0.6848
 2219TIP3    H230853   0.260   7.364  16.498 -0.0521 -0.2836 -0.4293
 2220TIP3   OH230854   2.628   5.223  17.291 -0.2992 -0.4694 -0.0169
 2220TIP3    H130855   2.659   5.251  17.377 -0.0804 -0.1804 -0.1906
 2220TIP3    H230856   2.705   5.183  17.249 -0.3670 -0.4797 -0.1327
 2221TIP3   OH230857   4.777   6.285  17.219  0.0765 -0.0409 -0.2971
 2221TIP3    H130858   4.824   6.286  17.135 -1.2207  0.8492 -1.0557
 2221TIP3    H230859   4.771   6.377  17.244  0.2130 -0.2798  0.6443
 2222TIP3   OH230860   4.069   1.683  18.076 -0.4820 -0.7994  0.5291
 2222TIP3    H130861   4.051   1.748  18.007 -0.6651  0.0552  1.3605
 2222TIP3    H230862   4.164   1.683  18.085 -0.5253 -0.1037  1.0288
 2223TIP3   OH230863   1.297   0.127  16.557 -0.5028 -0.4862  0.0190
 2223TIP3    H130864   1.308   0.104  16.465  2.2563 -1.4615  0.5029
 2223TIP3    H230865   1.270   0.219  16.556 -0.5339 -0.4885 -1.7312
 2224TIP3   OH230866   6.535   1.597  17.568  0.5564  0.1274 -0.1244
 2224TIP3    H130867   6.515   1.505  17.548  1.7378 -0.0613 -0.5248
 2224TIP3    H230868   6.563   1.634  17.484 -0.2594  0.9610 -0.0422
 2225TIP3   OH230869   2.665   7.463  17.054 -0.1410 -0.0823  0.1077
 2225TIP3    H130870   2.710   7.535  17.010  0.9162 -0.7583  0.0364
 2225TIP3    H230871   2.725   7.437  17.124 -1.4575  0.4668  1.4895
 2226TIP3   OH230872   7.614   0.074  16.427  0.3014  0.3169  0.3488
 2226TIP3    H130873   7.582   0.075  16.337 -3.8273 -0.2803  1.5982
 2226TIP3    H230874   7.636   0.166  16.446  0.8952  0.5020 -1.0749
 2227TIP3   OH230875   2.876   2.048  19.066 -0.4247 -0.2538  0.1795
 2227TIP3    H130876   2.782   2.049  19.085 -0.8383 -3.1693 -1.1686
 2227TIP3    H230877   2.884   2.094  18.983 -0.8817 -1.1646 -0.3821
 2228TIP3   OH230878   0.210   2.172  16.512  0.2247  0.2265  0.6980
 2228TIP3    H130879   0.176   2.164  16.601  2.2390 -0.9604  1.4087
 2228TIP3    H230880   0.230   2.266  16.503  0.2715  0.3127  1.6031
 2229TIP3   OH230881   1.590   5.498  18.572  0.0481 -0.1035 -0.5466
 2229TIP3    H130882   1.585   5.427  18.636  0.2244  1.2230  1.0384
 2229TIP3    H230883   1.683   5.520  18.568 -0.2925  2.2880  1.7288
 2230TIP3   OH230884   0.000   3.662  17.888  0.0615  0.0826 -0.6265
 2230TIP3    H130885  -0.002   3.667  17.984  0.0368 -2.2491 -0.4254
 2230TIP3    H230886  -0.054   3.734  17.858  0.5102  1.1869  1.0898
 2231TIP3   OH230887   4.646   0.805  18.037  0.0153  0.4989 -0.1888
 2231TIP3    H130888   4.629   0.730  18.094  1.2203  1.5846  1.7080
 2231TIP3    H230889   4.563   0.853  18.035  0.2023  0.9484  1.4959
 2232TIP3   OH230890   6.850   3.527  16.028  0.0733  0.0200 -0.0582
 2232TIP3    H130891   6.820   3.597  16.085 -0.8061  0.3987 -0.9561
 2232TIP3    H230892   6.829   3.447  16.075 -2.6551  0.2408 -0.7079
 2233TIP3   OH230893   2.772   5.743  17.688  0.1854 -0.1296 -0.1734
 2233TIP3    H130894   2.850   5.798  17.689  0.0230  0.1042  0.8720
 2233TIP3    H230895   2.751   5.730  17.780 -1.7965  0.9192 -0.4374
 2234TIP3   OH230896   5.824   6.214  18.159  0.3473 -0.3535  0.4768
 2234TIP3    H130897   5.803   6.120  18.162 -2.4505  0.1925  0.9181
 2234TIP3    H230898   5.792   6.243  18.073  0.3195  0.3480  0.7179
 2235TIP3   OH230899   2.466   5.892  17.940  0.6146  0.9594  0.0139
 2235TIP3    H130900   2.533   5.957  17.962  0.0076  1.1832  1.2892
 2235TIP3    H230901   2.387   5.925  17.981  0.3648 -0.7603  0.9912
 2236TIP3   OH230902   3.532   6.308  17.846 -0.1916 -0.2390  0.4297
 2236TIP3    H130903   3.513   6.231  17.793 -0.1841 -1.5236  2.1874
 2236TIP3    H230904   3.478   6.297  17.925  0.7583  0.8952  1.2847
 2237TIP3   OH230905   7.103   3.984  16.318 -0.1292 -0.1969  0.6506
 2237TIP3    H130906   7.058   3.923  16.259 -0.2074  0.9494 -0.5189
 2237TIP3    H230907   7.104   4.067  16.270  1.3670  0.3340  1.5424
 2238TIP3   OH230908   3.668   5.165  16.723  0.4697 -0.5004  0.3805
 2238TIP3    H130909   3.717   5.182  16.642  0.9892 -0.6757  0.6571
 2238TIP3    H230910   3.683   5.073  16.742  0.1836 -0.5095  0.5741
 2239TIP3   OH230911   2.621   5.017  18.467  0.0198  0.1922  0.2487
 2239TIP3    H130912   2.611   4.927  18.435  0.6645  0.8963 -2.1427
 2239TIP3    H230913   2.602   5.011  18.561 -1.0369 -2.2305 -0.0354
 2240TIP3   OH230914   2.330   3.220  17.672  0.4561  0.0793 -0.0408
 2240TIP3    H130915   2.381   3.224  17.753 -0.3491 -0.2608  0.4893
 2240TIP3    H230916   2.242   3.246  17.697 -0.0614 -1.0576 -0.5720
 2241TIP3   OH230917   3.024   5.993  16.946  0.3308  0.0600  0.1193
 2241TIP3    H130918   3.109   5.994  16.901  0.0207  0.2289 -0.4810
 2241TIP3    H230919   3.013   5.902  16.974 -0.4743 -0.6275 -2.1704
 2242TIP3   OH230920   5.113   5.997  15.997 -0.2550 -0.3324 -0.2409
 2242TIP3    H130921   5.169   6.072  16.014  1.3709 -0.6747 -3.3151
 2242TIP3    H230922   5.169   5.921  16.011 -0.9696 -0.8454 -0.1019
 2243TIP3   OH230923   0.282   2.705  18.410  0.1789 -0.2226  0.2262
 2243TIP3    H130924   0.195   2.735  18.386  0.0299 -0.2965  0.6633
 2243TIP3    H230925   0.273   2.611  18.424  1.1093 -0.9812 -3.3229
 2244TIP3   OH230926   1.189   3.561  17.379 -0.1180 -0.0935 -0.0420
 2244TIP3    H130927   1.216   3.550  17.470  2.1407 -1.7621 -0.8045
 2244TIP3    H230928   1.188   3.655  17.365  4.2921  0.2564  0.5430
 2245TIP3   OH230929   7.666   6.974  18.430 -0.8468  0.6293  0.3480
 2245TIP3    H130930   7.619   6.905  18.477 -0.7899 -0.2874 -0.8882
 2245TIP3    H230931   7.613   7.052  18.442 -1.5875  0.0807  0.7114
 2246TIP3   OH230932   7.312   4.831  17.312  0.4398 -0.7235 -0.4468
 2246TIP3    H130933   7.405   4.830  17.334  0.4561  1.4163 -0.1426
 2246TIP3    H230934   7.268   4.815  17.396  0.5595  1.0349 -0.0002
 2247TIP3   OH230935   1.282   0.391  16.934 -0.3068 -0.1882 -0.1649
 2247TIP3    H130936   1.327   0.419  16.854 -1.4214 -1.8984 -1.4510
 2247TIP3    H230937   1.242   0.471  16.968  1.2895  0.8285 -0.5319
 2248TIP3   OH230938   2.358   2.422  16.176  0.0330  0.1653 -0.4947
 2248TIP3    H130939   2.402   2.340  16.155 -1.1698 -0.7228  0.3145
 2248TIP3    H230940   2.408   2.489  16.129  0.2977 -1.1673 -2.1893
 2249TIP3   OH230941   1.216   1.906  18.423 -0.1576 -0.2725  0.6129
 2249TIP3    H130942   1.228   1.823  18.469 -0.2827 -0.5020  0.2435
 2249TIP3    H230943   1.264   1.894  18.340 -1.4388 -0.5527 -0.1191
 2250TIP3   OH230944   6.841   7.117  17.610  0.5062  0.0600  0.1653
 2250TIP3    H130945   6.826   7.073  17.694  0.4009 -0.7326 -0.2572
 2250TIP3    H230946   6.917   7.071  17.573  0.3927  0.2316 -0.2843
 2251TIP3   OH230947   3.155   2.790  17.003  0.5306  0.2622 -0.0494
 2251TIP3    H130948   3.251   2.790  16.998  0.4926 -1.1153 -1.6881
 2251TIP3    H230949   3.135   2.730  17.075  0.8711  1.0284  0.7099
 2252TIP3   OH230950   2.987   1.267  16.736 -0.2399  0.0348  0.1351
 2252TIP3    H130951   3.079   1.292  16.750 -0.0194 -1.2215  1.0946
 2252TIP3    H230952   2.969   1.292  16.645  1.2983 -0.3989 -0.3200
 2253TIP3   OH230953   6.199   6.298  16.563 -0.1134 -0.5201 -0.5821
 2253TIP3    H130954   6.281   6.332  16.598 -0.7250 -0.7366  1.1315
 2253TIP3    H230955   6.149   6.376  16.540  0.3372 -0.3770 -1.1036
 2254TIP3   OH230956   1.300   7.011  18.092  0.2194 -0.7068 -0.0532
 2254TIP3    H130957   1.204   7.014  18.097  0.2427 -0.2098  0.2508
 2254TIP3    H230958   1.319   6.989  18.001 -0.1765  0.4593 -0.4430
 2255TIP3   OH230959   5.006   4.969  17.514 -0.2979 -0.8141 -0.3716
 2255TIP3    H130960   4.966   4.989  17.599 -0.7760 -1.4788 -0.4231
 2255TIP3    H230961   5.095   4.940  17.535  0.4280  1.3085 -0.3046
 2256TIP3   OH230962   2.630   0.691  17.185 -0.3122 -0.3283 -0.2125
 2256TIP3    H130963   2.707   0.666  17.235  0.7543  0.2489 -1.4930
 2256TIP3    H230964   2.633   0.787  17.183 -0.2587 -0.3362 -1.4479
 2257TIP3   OH230965   7.473   1.657  15.947  0.2676 -0.0162  0.0164
 2257TIP3    H130966   7.420   1.726  15.906  1.1640  0.7108  0.0613
 2257TIP3    H230967   7.530   1.625  15.878 -1.1086 -1.7351 -0.3872
 2258TIP3   OH230968   3.287   2.072  17.390 -0.2968 -0.0071 -0.1924
 2258TIP3    H130969   3.230   2.143  17.360  1.1435  1.3926  0.3098
 2258TIP3    H230970   3.340   2.110  17.459 -1.4421 -2.3486  2.1554
 2259TIP3   OH230971   3.827   4.924  16.652 -0.0136 -0.3932  0.3028
 2259TIP3    H130972   3.856   4.901  16.564 -1.5756  1.3819 -0.7450
 2259TIP3    H230973   3.820   4.840  16.697  2.2060 -1.2333 -0.7634
 2260TIP3   OH230974   0.130   0.265  16.638  0.0079 -0.1368 -0.0683
 2260TIP3    H130975   0.060   0.289  16.577 -0.0703 -1.0294 -0.3478
 2260TIP3    H230976   0.211   0.283  16.590 -0.0573 -1.5612 -0.7478
 2261TIP3   OH230977   7.412   4.713  17.555 -0.0925 -0.0393  0.0164
 2261TIP3    H130978   7.482   4.648  17.559  1.0538  1.1205 -0.4024
 2261TIP3    H230979   7.453   4.794  17.584 -1.2173  0.7146 -0.4318
 2262TIP3   OH230980   1.110   7.626  18.707  0.0513  0.3512  0.6609
 2262TIP3    H130981   1.125   7.672  18.789 -1.8783  0.6515  0.8866
 2262TIP3    H230982   1.087   7.695  18.645 -0.4700 -0.0661  0.3840
 2263TIP3   OH230983   4.317   6.067  15.837  0.4917  0.3307  0.4980
 2263TIP3    H130984   4.402   6.048  15.799  1.1591  1.2390  1.4925
 2263TIP3    H230985   4.257   6.069  15.763  1.4780  0.4795 -0.3037
 2264TIP3   OH230986   2.107   6.478  17.152 -0.1665 -0.3729 -0.5494
 2264TIP3    H130987   2.014   6.475  17.129  0.2890 -2.0615 -2.5108
 2264TIP3    H230988   2.149   6.520  17.077  0.7038 -0.0973  0.0771
 2265TIP3   OH230989   7.526   5.868  18.303 -0.2454  0.0529 -0.0750
 2265TIP3    H130990   7.551   5.838  18.390 -0.6426  0.3746  0.1543
 2265TIP3    H230991   7.551   5.960  18.301  0.0389 -0.0291 -0.4111
 2266TIP3   OH230992   3.438   0.026  16.240  0.0277 -0.4015  0.2083
 2266TIP3    H130993   3.464   0.099  16.183 -0.7847 -0.5715 -0.4006
 2266TIP3    H230994   3.387  -0.031  16.183 -1.5724 -0.1452  1.3151
 2267TIP3   OH230995   3.347   0.498  17.423  0.2410 -0.2051 -0.0420
 2267TIP3    H130996   3.262   0.455  17.418  0.0132  0.3288 -1.8707
 2267TIP3    H230997   3.330   0.587  17.390  1.0486  0.7304  1.8779
 2268TIP3   OH230998   4.038   2.921  18.488  0.3628  0.1358 -0.1811
 2268TIP3    H130999   4.053   2.912  18.582  0.9068 -0.3748 -0.3112
 2268TIP3    H231000   4.006   2.835  18.460 -1.1428  0.6807 -0.2335
 2269TIP3   OH231001   4.154   1.030  17.474  0.6724  0.7340  0.1661
 2269TIP3    H131002   4.124   1.106  17.523 -1.5444  0.2848 -0.3769
 2269TIP3    H231003   4.098   0.958  17.505  0.3125  0.0945 -1.7926
 2270TIP3   OH231004   3.091   3.601  18.136 -0.2039  0.2830  0.1566
 2270TIP3    H131005   3.125   3.620  18.049  0.0366 -1.4355 -0.1694
 2270TIP3    H231006   3.040   3.678  18.160 -1.2237  0.3587 -1.9877
 2271TIP3   OH231007   6.385   3.699  17.551  0.1993 -0.3812 -1.0850
 2271TIP3    H131008   6.336   3.618  17.563  0.6779 -0.5558 -0.2693
 2271TIP3    H231009   6.379   3.716  17.457 -0.2674 -1.1268 -1.2029
 2272TIP3   OH231010   2.487   3.792  18.206  0.2276 -0.0314 -0.0749
 2272TIP3    H131011   2.452   3.709  18.237  0.3204 -0.2429 -0.5379
 2272TIP3    H231012   2.463   3.855  18.274 -0.0936 -0.3799  0.1344
 2273TIP3   OH231013   0.566   1.367  17.101  0.1303  0.0116  0.4833
 2273TIP3    H131014   0.583   1.365  17.196 -2.5911 -0.3464  1.0438
 2273TIP3    H231015   0.472   1.350  17.093  0.6063 -1.9678 -2.4188
 2274TIP3   OH231016   0.794   6.253  18.758 -0.1839 -0.0314 -0.3668
 2274TIP3    H131017   0.733   6.320  18.728 -1.3372 -0.7888  0.2185
 2274TIP3    H231018   0.829   6.287  18.840  1.4863  1.1514 -1.5018
 2275TIP3   OH231019   4.307   4.543  16.031 -0.3756  0.0472  0.4361
 2275TIP3    H131020   4.228   4.538  15.977 -1.8324  0.8682  2.4050
 2275TIP3    H231021   4.296   4.475  16.097  0.8500 -0.1930  0.4206
 2276TIP3   OH231022   5.897   6.339  16.648 -0.0624 -0.5120  0.2718
 2276TIP3    H131023   5.825   6.381  16.695 -0.4913 -1.5269  0.5437
 2276TIP3    H231024   5.946   6.411  16.610 -0.6785  0.2420  0.8792
 2277TIP3   OH231025   5.516   7.021  18.024 -0.3205 -0.8036  0.0162
 2277TIP3    H131026   5.581   7.027  18.094  0.2828  0.0070 -0.5936
 2277TIP3    H231027   5.511   6.928  18.003  1.5089 -0.7757 -0.7063
 2278TIP3   OH231028   6.983   3.426  17.276 -0.3712  0.4288  0.2887
 2278TIP3    H131029   7.014   3.363  17.211  0.8642  1.3632 -0.0714
 2278TIP3    H231030   6.938   3.493  17.225  0.4067  1.0483  0.3907
 2279TIP3   OH231031   4.534   3.589  17.090 -0.3863 -1.4210 -0.5874
 2279TIP3    H131032   4.588   3.575  17.012 -0.6690 -0.5050 -0.9616
 2279TIP3    H231033   4.486   3.670  17.072  0.8052 -0.2329  1.2457
 2280TIP3   OH231034   2.750   6.228  17.797 -0.3501 -0.1582 -0.3568
 2280TIP3    H131035   2.684   6.212  17.864  0.8259 -3.1621  0.2503
 2280TIP3    H231036   2.806   6.296  17.835 -0.2102 -1.1840  1.3665
 2281TIP3   OH231037   6.931   5.675  17.122 -1.0690 -0.5077 -0.3100
 2281TIP3    H131038   6.844   5.709  17.142 -1.8665 -2.1610 -0.7361
 2281TIP3    H231039   6.921   5.634  17.036  0.3551 -0.0397 -0.7249
 2282TIP3   OH231040   3.737   2.392  17.234 -0.0708  0.4985 -0.2344
 2282TIP3    H131041   3.706   2.372  17.146 -2.6459  0.6579  0.5499
 2282TIP3    H231042   3.729   2.310  17.282 -0.0882  0.7608  0.2169
 2283TIP3   OH231043   1.903   1.393  18.371  0.0224  0.4552  0.5783
 2283TIP3    H131044   1.924   1.466  18.429 -0.4901  0.9593  0.1406
 2283TIP3    H231045   1.915   1.427  18.283 -2.2655  0.7002  0.2978
 2284TIP3   OH231046   3.634   1.941  18.616  0.0034 -0.0020 -0.0711
 2284TIP3    H131047   3.689   1.864  18.603  0.7386  0.4108  0.4800
 2284TIP3    H231048   3.618   1.943  18.711  0.9252  1.1258  0.0860
 2285TIP3   OH231049   1.745   5.764  16.498 -0.4668 -0.8030  0.5608
 2285TIP3    H131050   1.688   5.840  16.511  0.1410 -0.4684  1.3486
 2285TIP3    H231051   1.699   5.711  16.432 -0.3623  0.7493 -0.8134
 2286TIP3   OH231052   0.931   4.895  18.300 -0.3489 -0.3380  0.0642
 2286TIP3    H131053   0.945   4.809  18.340 -1.5002 -0.5124  0.1335
 2286TIP3    H231054   0.836   4.906  18.301 -0.1340  1.9882  2.2190
 2287TIP3   OH231055   0.734   0.286  17.809 -0.1497  0.2942  0.3082
 2287TIP3    H131056   0.800   0.320  17.869  0.4616 -1.8900  0.9875
 2287TIP3    H231057   0.743   0.338  17.730  1.4653  0.9305  0.8830
 2288TIP3   OH231058   6.767   6.901  17.787  0.5483  0.4396 -0.4300
 2288TIP3    H131059   6.689   6.846  17.786 -0.6383  1.9890 -2.0210
 2288TIP3    H231060   6.839   6.842  17.807 -0.9441 -1.1860  0.3499
 2289TIP3   OH231061   5.230   3.170  18.273  0.2558 -0.3308  0.3421
 2289TIP3    H131062   5.274   3.085  18.277  0.7623 -0.0447  0.8770
 2289TIP3    H231063   5.268   3.221  18.344 -0.8905 -0.0467  0.7817
 2290TIP3   OH231064   2.491   4.331  17.005 -0.2556  0.4458  0.5977
 2290TIP3    H131065   2.585   4.325  16.984 -0.2926  0.3486  0.4546
 2290TIP3    H231066   2.451   4.261  16.953 -0.2718 -0.2223  1.4712
 2291TIP3   OH231067   5.141   6.562  17.933 -0.3210  0.2779  0.0325
 2291TIP3    H131068   5.203   6.514  17.988 -0.3273  0.0243 -0.1780
 2291TIP3    H231069   5.055   6.540  17.968 -0.2454  2.3545  1.7356
 2292TIP3   OH231070   4.031   6.733  16.617 -0.0884 -0.0040 -0.2754
 2292TIP3    H131071   4.124   6.719  16.600 -0.2037  0.7736 -1.7391
 2292TIP3    H231072   4.011   6.817  16.574 -1.7055 -0.7281 -1.0308
 2293TIP3   OH231073   3.705   5.648  16.571 -0.0247 -0.0682 -0.3684
 2293TIP3    H131074   3.716   5.573  16.628 -3.8271 -0.3643  0.2355
 2293TIP3    H231075   3.713   5.724  16.629 -1.9254 -0.3072  0.2855
 2294TIP3   OH231076   6.646   2.426  16.999  0.3858  0.0526 -0.5358
 2294TIP3    H131077   6.694   2.344  16.992  2.6330  1.1363  0.8942
 2294TIP3    H231078   6.640   2.459  16.909 -1.0241 -1.8581 -1.1986
 2295TIP3   OH231079   7.168   5.814  18.658  0.6529 -0.1135 -0.2045
 2295TIP3    H131080   7.082   5.844  18.688  0.6181 -0.4641  0.0479
 2295TIP3    H231081   7.149   5.749  18.591  0.7270  0.1786 -0.5111
 2296TIP3   OH231082   3.658   7.562  15.962  0.3440  0.0762 -0.0956
 2296TIP3    H131083   3.565   7.553  15.938  0.7965 -0.9651 -1.5889
 2296TIP3    H231084   3.677   7.655  15.950 -0.2195  0.0942 -0.9076
 2297TIP3   OH231085   2.263   2.866  17.735 -0.0336  0.0742  0.1020
 2297TIP3    H131086   2.229   2.939  17.787  1.2929  0.5626  0.3150
 2297TIP3    H231087   2.358   2.868  17.748  0.3482  0.0857 -2.1383
 2298TIP3   OH231088   0.760   0.992  17.844 -0.4027 -0.1565 -0.4362
 2298TIP3    H131089   0.711   0.963  17.767 -1.5459  1.1220 -0.2311
 2298TIP3    H231090   0.708   1.064  17.880  0.7304  0.0689  0.8392
 2299TIP3   OH231091   5.594   5.786  18.542  0.7433  0.1885  0.2947
 2299TIP3    H131092   5.688   5.777  18.529  0.4758 -0.2087 -1.6793
 2299TIP3    H231093   5.582   5.875  18.574  1.7165  0.6002 -0.4481
 2300TIP3   OH231094   5.343   6.901  17.071  0.1258 -0.2184  0.0194
 2300TIP3    H131095   5.438   6.894  17.060  0.0282 -1.6865 -0.0535
 2300TIP3    H231096   5.332   6.927  17.163  0.6055  0.5804 -0.1390
 2301TIP3   OH231097   3.653   6.398  16.137 -0.2296 -0.0767  0.7933
 2301TIP3    H131098   3.666   6.490  16.159  0.0054  0.0118  0.3017
 2301TIP3    H231099   3.597   6.400  16.059  1.6832 -0.2456 -0.6649
 2302TIP3   OH231100   1.281   4.992  18.333 -0.0434  0.5761 -0.3973
 2302TIP3    H131101   1.220   5.013  18.262 -0.2715  1.3296  0.0068
 2302TIP3    H231102   1.327   5.075  18.351 -0.7526  0.7016  1.0450
 2303TIP3   OH231103   0.334   1.818  18.574 -0.1383 -0.3426 -0.2451
 2303TIP3    H131104   0.383   1.782  18.648  1.9419  0.9451 -0.8992
 2303TIP3    H231105   0.254   1.855  18.613  0.6466 -0.1995  1.2808
 2304TIP3   OH231106   3.605   0.376  18.804 -0.1831 -0.4216 -0.5286
 2304TIP3    H131107   3.689   0.414  18.780  0.8401  0.8773  4.0949
 2304TIP3    H231108   3.560   0.446  18.852 -3.5130 -1.4606 -1.8045
 2305TIP3   OH231109   2.732   3.017  18.706  0.3706 -0.0928 -0.2309
 2305TIP3    H131110   2.672   2.942  18.712  0.1606 -0.0823 -1.8824
 2305TIP3    H231111   2.796   3.001  18.775 -1.4859 -0.1238  1.5768
 2306TIP3   OH231112   6.371   2.460  16.997 -0.5052  0.0472  0.0701
 2306TIP3    H131113   6.342   2.375  17.032  0.0773 -0.4552 -0.6352
 2306TIP3    H231114   6.450   2.480  17.047  0.2492 -0.6041 -0.8214
 2307TIP3   OH231115   0.003   7.006  17.285  0.3312  0.1025 -0.9069
 2307TIP3    H131116   0.027   7.089  17.244  0.3218 -0.7731 -2.8150
 2307TIP3    H231117  -0.033   6.954  17.213 -0.0318 -1.4148  0.3180
 2308TIP3   OH231118   7.041   2.288  16.935  0.0466 -0.0670 -0.0870
 2308TIP3    H131119   6.975   2.320  16.873  1.0096  0.4806 -0.8562
 2308TIP3    H231120   7.106   2.243  16.881  0.9023  0.4170  0.5120
 2309TIP3   OH231121   2.655   7.314  17.881 -0.5707  0.9466 -0.0083
 2309TIP3    H131122   2.569   7.285  17.911 -0.9493  1.4013 -0.6429
 2309TIP3    H231123   2.644   7.407  17.863 -0.0270  0.9416 -0.3905
 2310TIP3   OH231124   7.596   5.204  16.529 -0.3778 -0.5828 -0.0566
 2310TIP3    H131125   7.572   5.112  16.530 -2.4533 -0.0960 -0.9781
 2310TIP3    H231126   7.667   5.210  16.464  1.5347 -1.8422  1.7782
 2311TIP3   OH231127   0.928   5.368  17.510  0.1617  0.4078 -0.6338
 2311TIP3    H131128   0.880   5.450  17.523 -0.5676 -0.1517  0.3340
 2311TIP3    H231129   0.893   5.332  17.428  0.6537  1.1638 -1.1871
 2312TIP3   OH231130   0.946   1.270  16.872  0.2485 -0.2941 -0.5307
 2312TIP3    H131131   1.036   1.299  16.887  1.3551 -2.5363 -2.2933
 2312TIP3    H231132   0.954   1.194  16.815 -2.8863  0.4324 -2.1574
 2313TIP3   OH231133   3.325   1.563  18.547  0.3658 -0.4470  0.1257
 2313TIP3    H131134   3.395   1.525  18.493  0.2330  0.3669 -0.6375
 2313TIP3    H231135   3.372   1.610  18.616  0.5574 -0.4668  0.0111
 2314TIP3   OH231136   3.787   1.040  16.919  0.2059  0.0714  0.1558
 2314TIP3    H131137   3.811   1.123  16.962 -1.7761  0.2888  0.9509
 2314TIP3    H231138   3.863   1.019  16.864  0.4757  2.8142 -0.6899
 2315TIP3   OH231139   6.587   7.306  18.573  0.1403 -0.0226 -0.2391
 2315TIP3    H131140   6.525   7.269  18.636 -0.2605  0.4925 -0.3194
 2315TIP3    H231141   6.583   7.248  18.497 -0.2706  0.0282 -0.2561
 2316TIP3   OH231142   4.136   4.133  17.784 -0.1383 -0.2902 -0.2197
 2316TIP3    H131143   4.174   4.146  17.697 -0.1674 -1.5589 -0.4403
 2316TIP3    H231144   4.181   4.056  17.818 -1.9437 -1.3752 -0.1714
 2317TIP3   OH231145   7.245   0.267  16.041  0.2070 -0.3716  0.3649
 2317TIP3    H131146   7.177   0.291  16.104 -1.5202 -1.7402 -0.8975
 2317TIP3    H231147   7.313   0.225  16.093 -0.3849  0.0604  1.5147
 2318TIP3   OH231148   4.451   7.259  17.783 -0.1093  0.3939 -0.0364
 2318TIP3    H131149   4.381   7.213  17.830 -1.2538  0.8838 -1.1873
 2318TIP3    H231150   4.426   7.351  17.789 -0.1640  0.4802 -1.3997
 2319TIP3   OH231151   3.564   6.056  16.815 -0.7798  0.6794 -0.2769
 2319TIP3    H131152   3.564   6.133  16.758 -0.0768  1.8847  1.2872
 2319TIP3    H231153   3.598   6.088  16.899 -0.8542 -1.2523  0.5368
 2320TIP3   OH231154   1.665   0.905  16.234  0.3745  0.0184 -0.4254
 2320TIP3    H131155   1.752   0.873  16.258  0.9175 -0.1016 -2.3833
 2320TIP3    H231156   1.626   0.833  16.185  0.3259  1.0811 -2.0456
 2321TIP3   OH231157   7.324   5.058  16.921 -0.0553  0.1683 -0.0775
 2321TIP3    H131158   7.312   5.068  17.015  0.9870  2.7264 -0.1519
 2321TIP3    H231159   7.239   5.078  16.883 -0.1039  0.5708  0.2476
 2322TIP3   OH231160   3.205   1.263  16.413  0.7331  0.4059 -0.1379
 2322TIP3    H131161   3.266   1.259  16.339  2.8458  0.6757  1.5014
 2322TIP3    H231162   3.242   1.203  16.478 -1.3295 -0.1971  0.5533
 2323TIP3   OH231163   1.808   4.457  16.377  0.3550 -0.2993 -0.1097
 2323TIP3    H131164   1.728   4.509  16.382  1.3563  1.4146 -0.9425
 2323TIP3    H231165   1.787   4.386  16.318 -0.7269 -0.2065  0.1480
 2324TIP3   OH231166   6.497   4.569  17.769  0.5228 -0.0052  0.0708
 2324TIP3    H131167   6.418   4.527  17.803  1.1341 -0.5018  0.9352
 2324TIP3    H231168   6.468   4.655  17.740 -0.4565 -0.4233 -0.2446
 2325TIP3   OH231169   3.908   5.697  16.367 -0.1243  0.1927  0.1252
 2325TIP3    H131170   3.993   5.702  16.410  0.8132 -1.2858 -1.4078
 2325TIP3    H231171   3.852   5.651  16.429  0.6226 -0.1046  0.5984
 2326TIP3   OH231172   3.987   7.504  17.840 -0.0834 -0.5450 -0.0134
 2326TIP3    H131173   3.905   7.519  17.887  0.7596 -0.0059  1.3425
 2326TIP3    H231174   3.996   7.580  17.783 -0.5355 -0.6188 -0.1866
 2327TIP3   OH231175   3.388   6.165  17.389  0.0165 -0.0011 -0.3099
 2327TIP3    H131176   3.389   6.117  17.306  0.9970 -0.6260  0.0383
 2327TIP3    H231177   3.297   6.190  17.401 -0.3066 -0.7149 -1.1205
 2328TIP3   OH231178   0.500   6.742  16.878  0.1510 -0.1942  0.1504
 2328TIP3    H131179   0.489   6.828  16.918  0.0975 -0.5657  0.9404
 2328TIP3    H231180   0.549   6.760  16.798 -0.9230  0.7242 -0.3367
 2329TIP3   OH231181   1.883   3.264  17.194  0.7435  0.0471 -0.2558
 2329TIP3    H131182   1.868   3.201  17.124  1.6122 -0.1640 -0.2655
 2329TIP3    H231183   1.867   3.349  17.154  2.7068  0.0459 -1.1778
 2330TIP3   OH231184   6.547   5.431  18.600 -0.5240 -0.4855  0.2652
 2330TIP3    H131185   6.580   5.384  18.523 -0.8298 -1.9404  0.9860
 2330TIP3    H231186   6.567   5.373  18.674 -2.3087 -0.2144  1.0236
 2331TIP3   OH231187   6.807   1.577  17.352  0.0905  0.2727  0.2512
 2331TIP3    H131188   6.841   1.584  17.441  0.0995 -1.3558  0.4229
 2331TIP3    H231189   6.811   1.483  17.333 -1.9934  0.3055 -0.6369
 2332TIP3   OH231190   6.180   3.035  16.727  0.4566 -0.0937 -0.6122
 2332TIP3    H131191   6.187   2.966  16.792  1.9439  0.9651  0.4070
 2332TIP3    H231192   6.239   3.008  16.657  2.1569  0.7522  0.4204
 2333TIP3   OH231193   0.639   3.215  17.340  0.2866 -0.1122 -0.3704
 2333TIP3    H131194   0.648   3.279  17.409  1.6596  0.3940 -0.9960
 2333TIP3    H231195   0.689   3.139  17.370 -2.6519 -1.6473  1.1281
 2334TIP3   OH231196   5.096   6.483  17.011  0.0762 -0.4680  0.6550
 2334TIP3    H131197   5.169   6.529  16.970 -0.0804 -0.4341  0.4071
 2334TIP3    H231198   5.038   6.552  17.043  0.9849 -0.4703  2.4271
 2335TIP3   OH231199   1.224   5.638  18.185  0.0499  0.3113 -0.3348
 2335TIP3    H131200   1.154   5.635  18.120 -0.9563 -0.2204  0.7321
 2335TIP3    H231201   1.290   5.576  18.153 -1.2296 -1.2952 -0.0017
 2336TIP3   OH231202   5.594   5.182  17.217 -0.3407 -0.3175 -0.1758
 2336TIP3    H131203   5.651   5.259  17.224 -0.0973 -0.4720 -0.4385
 2336TIP3    H231204   5.550   5.192  17.133 -0.5147 -0.3267 -0.0857
 2337TIP3   OH231205   2.247   0.120  17.632  0.3958  0.3400  0.5783
 2337TIP3    H131206   2.208   0.162  17.709  0.6016  0.0828  0.8280
 2337TIP3    H231207   2.236   0.026  17.649  1.2265  0.2594  0.7039
 2338TIP3   OH231208   3.065   0.275  18.096  0.4685 -0.0942  0.4044
 2338TIP3    H131209   3.070   0.255  18.190 -0.1839  1.2130  0.7480
 2338TIP3    H231210   2.981   0.238  18.069 -0.2351  1.1783  0.7901
 2339TIP3   OH231211   1.844   2.921  17.805  0.0841 -0.0170  0.4089
 2339TIP3    H131212   1.840   2.967  17.889 -1.5673 -0.3607  0.5527
 2339TIP3    H231213   1.904   2.849  17.820 -0.0071  0.0659  1.2386
 2340TIP3   OH231214   0.875   1.312  17.294  0.8403  0.1046 -0.0323
 2340TIP3    H131215   0.909   1.350  17.213  1.0253 -0.3938 -0.1909
 2340TIP3    H231216   0.951   1.310  17.353  0.9642 -0.5303 -0.2106
 2341TIP3   OH231217   6.228   5.773  17.713  0.0612  0.6620  0.1345
 2341TIP3    H131218   6.155   5.824  17.677 -1.0241 -2.1973 -2.1427
 2341TIP3    H231219   6.257   5.717  17.641  1.2934 -1.7600  2.2981
 2342TIP3   OH231220   2.782   5.310  18.587  0.6030 -0.3231 -0.3360
 2342TIP3    H131221   2.688   5.308  18.568  0.7366 -0.9280 -0.9978
 2342TIP3    H231222   2.797   5.233  18.642  0.5561  0.3130  0.5816
 2343TIP3   OH231223   6.704   4.809  17.570 -0.3906  0.8378  0.1615
 2343TIP3    H131224   6.664   4.891  17.599 -1.2585  1.0395 -1.4877
 2343TIP3    H231225   6.639   4.742  17.593  0.3872  0.5680  1.6521
 2344TIP3   OH231226   5.194   3.969  17.522  0.2530  0.2095 -0.1056
 2344TIP3    H131227   5.265   4.024  17.555  0.0573 -0.7972  2.1480
 2344TIP3    H231228   5.114   4.018  17.542  0.2074  0.8834 -1.7479
 2345TIP3   OH231229   6.989   7.518  16.252 -0.0777 -0.1200  0.6253
 2345TIP3    H131230   6.986   7.613  16.254 -0.9105 -0.1535  2.6474
 2345TIP3    H231231   6.907   7.492  16.209  0.3799  0.0553 -0.3834
 2346TIP3   OH231232   0.570   1.186  17.705  0.0696 -0.4280  0.1088
 2346TIP3    H131233   0.547   1.171  17.797  0.5146 -0.7560  0.1687
 2346TIP3    H231234   0.643   1.248  17.708 -1.4643  1.4905 -0.1200
 2347TIP3   OH231235   3.258   5.630  17.122  0.6093 -0.0888 -0.0912
 2347TIP3    H131236   3.235   5.651  17.032 -0.2646 -1.7779 -0.3046
 2347TIP3    H231237   3.303   5.546  17.117  1.3350  0.2079  0.9798
 2348TIP3   OH231238   4.686   4.277  16.986  0.4119  0.6451 -0.4304
 2348TIP3    H131239   4.747   4.261  16.914 -0.2245  0.6256 -0.9701
 2348TIP3    H231240   4.600   4.260  16.949  0.0825  0.5680  0.3591
 2349TIP3   OH231241   3.493   7.527  16.449  0.1860 -0.2338  0.0064
 2349TIP3    H131242   3.511   7.584  16.524  1.5924 -0.0988 -0.4195
 2349TIP3    H231243   3.477   7.587  16.377  0.2810 -0.3703 -0.1281
 2350TIP3   OH231244   4.581   5.332  16.090  0.0313  0.5575  0.1359
 2350TIP3    H131245   4.573   5.422  16.058 -1.1069  0.5129  0.2528
 2350TIP3    H231246   4.551   5.278  16.016 -0.9684  0.3749  0.6538
 2351TIP3   OH231247   1.782   3.614  18.030 -0.2978  0.0800 -0.4509
 2351TIP3    H131248   1.819   3.702  18.019  1.0053 -0.3549  0.3228
 2351TIP3    H231249   1.728   3.601  17.952 -1.3847  1.9736 -0.0867
 2352TIP3   OH231250   4.230   3.396  17.554  0.3596  0.2711  0.5330
 2352TIP3    H131251   4.154   3.400  17.613 -0.0197 -2.1891  0.3251
 2352TIP3    H231252   4.248   3.488  17.532 -0.3605  1.1839  3.3320
 2353TIP3   OH231253   5.693   7.353  18.192  0.3107 -0.3332  0.1573
 2353TIP3    H131254   5.748   7.410  18.137  0.4577 -1.5714 -1.0352
 2353TIP3    H231255   5.620   7.410  18.219 -0.2304  0.1454 -2.0443
 2354TIP3   OH231256   1.843   6.154  17.746  0.1643 -0.3636 -0.5493
 2354TIP3    H131257   1.810   6.209  17.675  1.4989 -0.7024 -1.4804
 2354TIP3    H231258   1.860   6.069  17.704  1.3416 -0.4513  0.0666
 2355TIP3   OH231259   3.005   1.520  18.654 -0.0770 -0.5229 -0.0323
 2355TIP3    H131260   3.080   1.466  18.630  1.2713  1.2837 -0.0454
 2355TIP3    H231261   3.016   1.600  18.603 -2.1197 -0.2745 -0.1524
 2356TIP3   OH231262   0.279   3.475  16.673 -0.3751 -0.2318 -0.3303
 2356TIP3    H131263   0.359   3.438  16.636  0.3961  1.7647 -0.8222
 2356TIP3    H231264   0.283   3.454  16.766  1.0853  0.3642 -0.2289
 2357TIP3   OH231265   1.551   3.302  17.905 -0.5310  0.0004 -0.0500
 2357TIP3    H131266   1.466   3.330  17.939 -0.4519 -0.5137  0.5839
 2357TIP3    H231267   1.537   3.213  17.874 -0.3861  0.1588 -0.5818
 2358TIP3   OH231268   7.290   7.495  16.409  0.1957 -0.2749  0.0901
 2358TIP3    H131269   7.307   7.462  16.321  1.3648  0.9963 -0.2035
 2358TIP3    H231270   7.298   7.590  16.401  1.9521 -0.2010  1.8502
 2359TIP3   OH231271   5.009   5.664  18.083 -0.8493 -0.0108  0.1587
 2359TIP3    H131272   5.036   5.651  17.992  0.4985 -2.3167  0.8044
 2359TIP3    H231273   4.927   5.712  18.078 -0.4560  0.4967 -2.2364
 2360TIP3   OH231274   5.694   3.844  17.140 -0.3874  0.3680 -0.2620
 2360TIP3    H131275   5.631   3.813  17.076 -1.0973  0.8731  0.1743
 2360TIP3    H231276   5.767   3.877  17.089  0.1573 -1.4989 -0.7498
 2361TIP3   OH231277   0.272   1.128  18.007 -0.2130 -0.4187 -0.4256
 2361TIP3    H131278   0.356   1.172  17.992 -0.0626  0.2185  1.8890
 2361TIP3    H231279   0.206   1.194  17.989 -0.1846 -0.5910 -1.1861
 2362TIP3   OH231280   2.731   1.679  18.740 -0.1901  0.1929 -0.5230
 2362TIP3    H131281   2.818   1.713  18.763 -0.9352  1.4124  0.5966
 2362TIP3    H231282   2.730   1.591  18.777 -0.2651  1.0342  1.6163
 2363TIP3   OH231283   5.344   7.212  18.214  0.1531  0.4687  0.4600
 2363TIP3    H131284   5.402   7.162  18.157  0.6746 -0.9022  2.1085
 2363TIP3    H231285   5.304   7.277  18.157  1.7447  0.1066 -1.1467
 2364TIP3   OH231286   5.733   5.354  17.880  0.1542  0.6062  0.1608
 2364TIP3    H131287   5.802   5.418  17.895  0.5297  0.3092 -0.2985
 2364TIP3    H231288   5.652   5.404  17.889  0.4322  1.0308  0.3394
 2365TIP3   OH231289   0.692   3.748  15.992  0.3471 -0.2412 -0.2810
 2365TIP3    H131290   0.663   3.659  15.975  0.3031  0.0012 -1.6282
 2365TIP3    H231291   0.611   3.799  15.998  0.3837 -0.2083 -0.0736
 2366TIP3   OH231292   4.480   4.449  17.273 -0.0129  0.3594  0.3283
 2366TIP3    H131293   4.498   4.519  17.210  0.9940  0.3138  0.5419
 2366TIP3    H231294   4.466   4.495  17.356 -1.6319  0.4392  0.0391
 2367TIP3   OH231295   1.551   2.119  16.154 -0.4065 -0.6677  0.0369
 2367TIP3    H131296   1.633   2.092  16.113 -0.1645 -0.8524  0.6203
 2367TIP3    H231297   1.573   2.200  16.200 -0.9571  0.1701 -1.1265
 2368TIP3   OH231298   2.379   7.637  18.701 -0.6229 -0.4539 -0.2231
 2368TIP3    H131299   2.351   7.689  18.626  1.9354  0.7065 -0.4454
 2368TIP3    H231300   2.337   7.678  18.777  0.5159  1.3482 -0.5213
 2369TIP3   OH231301   3.164   4.427  18.379  0.5506  0.0510 -0.4222
 2369TIP3    H131302   3.203   4.513  18.395  1.3660 -0.1358 -1.3039
 2369TIP3    H231303   3.070   4.445  18.372  0.6828  0.8362 -0.3555
 2370TIP3   OH231304   0.987   1.833  16.999  0.3842  0.3076  0.0366
 2370TIP3    H131305   1.013   1.843  17.090  1.9472 -1.2075 -0.1873
 2370TIP3    H231306   0.899   1.794  17.003  0.1255  0.9618  0.8713
 2371TIP3   OH231307   0.340   1.971  16.773 -0.4966  0.3776 -0.6966
 2371TIP3    H131308   0.420   1.998  16.727 -0.9015  1.5887 -0.7019
 2371TIP3    H231309   0.270   1.989  16.710 -0.8240 -0.2629 -0.5204
 2372TIP3   OH231310   2.416   4.723  17.756 -0.1078 -0.4750 -0.6446
 2372TIP3    H131311   2.457   4.715  17.842 -2.9120  0.7213  0.9437
 2372TIP3    H231312   2.390   4.815  17.749 -3.1904 -1.2470 -1.0755
 2373TIP3   OH231313   5.920   7.444  16.779 -0.4060  0.1693  0.0258
 2373TIP3    H131314   5.898   7.432  16.871  0.9342  0.8488  0.4618
 2373TIP3    H231315   5.863   7.515  16.749 -0.3693  0.4070  0.5152
 2374TIP3   OH231316   0.117   7.635  18.439  0.1808 -0.1423 -0.3553
 2374TIP3    H131317   0.160   7.701  18.385  0.4690  1.5854  1.8281
 2374TIP3    H231318   0.024   7.658  18.435  0.3484  0.8736  0.9212
 2375TIP3   OH231319   3.544   1.772  16.017  0.4564 -0.0928  1.0229
 2375TIP3    H131320   3.631   1.770  15.978  1.3656 -1.1632  2.9996
 2375TIP3    H231321   3.493   1.827  15.958  1.9543 -0.9569 -1.2077
 2376TIP3   OH231322   0.279   6.801  17.622  0.4455  0.4249  0.5610
 2376TIP3    H131323   0.193   6.810  17.581  0.8983 -0.0912 -0.5228
 2376TIP3    H231324   0.329   6.746  17.562  1.6103  0.8966  1.0761
 2377TIP3   OH231325   7.048   4.254  16.237  0.4810  0.1028  0.3560
 2377TIP3    H131326   7.045   4.349  16.227  0.2148  0.2020  1.2703
 2377TIP3    H231327   6.963   4.231  16.274  0.1236 -0.6286 -0.8839
 2378TIP3   OH231328   5.359   4.680  17.423  0.0973 -0.2477 -0.1522
 2378TIP3    H131329   5.446   4.713  17.444  0.2608 -0.9615  0.3568
 2378TIP3    H231330   5.373   4.586  17.406 -0.5784 -0.3746 -0.0208
 2379TIP3   OH231331   4.448   6.488  17.662 -0.1667  0.0037 -0.1874
 2379TIP3    H131332   4.415   6.573  17.636  0.3929  0.3535  0.2130
 2379TIP3    H231333   4.402   6.468  17.744  0.9284  0.7089  0.6249
 2380TIP3   OH231334   7.166   6.661  18.718 -0.5992  0.0259 -0.1591
 2380TIP3    H131335   7.254   6.624  18.714 -0.0905  1.2978 -1.3639
 2380TIP3    H231336   7.110   6.596  18.676  0.1499  0.2392 -1.5302
 2381TIP3   OH231337   4.483   4.822  18.466 -0.9615 -0.0320  0.3614
 2381TIP3    H131338   4.485   4.808  18.371 -0.1137 -3.3289  0.7390
 2381TIP3    H231339   4.390   4.829  18.487 -1.1374  1.2408 -0.7446
 2382TIP3   OH231340   2.690   4.903  16.213  0.5285  0.7487  0.3704
 2382TIP3    H131341   2.616   4.905  16.274 -0.4857  1.3673 -0.8502
 2382TIP3    H231342   2.698   4.811  16.187  0.3853  0.6349  0.7245
 2383TIP3   OH231343   6.594   3.969  17.115  0.1529  0.0550  0.2613
 2383TIP3    H131344   6.579   4.057  17.079  2.5381 -0.1291 -1.3947
 2383TIP3    H231345   6.551   3.910  17.053  1.6943 -0.0964 -0.7132
 2384TIP3   OH231346   5.198   4.679  16.901  0.1188 -0.6237  0.2206
 2384TIP3    H131347   5.189   4.661  16.807 -1.0442 -0.3745  0.2651
 2384TIP3    H231348   5.193   4.594  16.943  0.1596 -0.6932  0.0849
 2385TIP3   OH231349   4.854   1.041  17.336  0.0374  0.2313  0.7159
 2385TIP3    H131350   4.836   1.115  17.395 -1.5500 -0.0298  0.6145
 2385TIP3    H231351   4.887   1.081  17.256  0.5415  0.7229  1.1623
 2386TIP3   OH231352   6.697   6.328  16.810 -0.0546  0.5368  0.0031
 2386TIP3    H131353   6.719   6.416  16.778 -0.3591  0.4941 -0.3322
 2386TIP3    H231354   6.755   6.270  16.760  0.3596  0.5711  0.4443
 2387TIP3   OH231355   3.912   3.654  17.535  0.0986  0.0310 -0.4126
 2387TIP3    H131356   3.981   3.719  17.550 -1.4973  2.0794 -1.4681
 2387TIP3    H231357   3.944   3.603  17.460  0.8320  0.3696 -0.3450
 2388TIP3   OH231358   5.210   6.580  16.252  0.2725  0.1923  0.6718
 2388TIP3    H131359   5.207   6.668  16.289  0.7114  0.7811 -0.5977
 2388TIP3    H231360   5.285   6.583  16.192  0.3465 -1.0759  0.6840
 2389TIP3   OH231361   2.170   2.298  16.994 -0.4716 -0.1185 -0.3703
 2389TIP3    H131362   2.241   2.275  17.055 -1.1146 -1.0126  0.0679
 2389TIP3    H231363   2.181   2.238  16.921  2.0326  2.7687 -2.6302
 2390TIP3   OH231364   1.948   2.831  18.810 -0.4067 -0.8417 -0.1651
 2390TIP3    H131365   1.941   2.905  18.750  2.1681  0.4506  0.9819
 2390TIP3    H231366   1.868   2.835  18.863 -0.5693  0.7570 -0.4923
 2391TIP3   OH231367   0.881   7.534  18.163  0.3152 -0.0833 -0.4515
 2391TIP3    H131368   0.930   7.461  18.199 -0.4487 -0.7105 -0.6600
 2391TIP3    H231369   0.789   7.511  18.178  0.0718  1.1343  0.0714
 2392TIP3   OH231370   4.458   3.291  16.799  0.1688  0.0093 -0.0486
 2392TIP3    H131371   4.524   3.321  16.862 -1.1754 -1.1284  2.0026
 2392TIP3    H231372   4.388   3.355  16.805  0.2708  0.2081 -0.8528
 2393TIP3   OH231373   0.404   5.682  17.717  0.0126 -0.5774 -0.4928
 2393TIP3    H131374   0.443   5.655  17.633  2.6706 -1.5306  0.9054
 2393TIP3    H231375   0.391   5.600  17.764 -1.7846 -0.0798 -0.0642
 2394TIP3   OH231376   1.729   2.806  18.569  0.3656 -0.3197 -0.5588
 2394TIP3    H131377   1.696   2.724  18.533  2.4485 -1.4260 -0.0940
 2394TIP3    H231378   1.704   2.803  18.661  1.3604 -0.9868 -0.2906
 2395TIP3   OH231379   5.512   0.430  18.357  0.0176  0.1430  0.1296
 2395TIP3    H131380   5.586   0.468  18.405 -0.4707 -0.2541  1.2251
 2395TIP3    H231381   5.443   0.497  18.363 -0.3694 -0.3075  0.8414
 2396TIP3   OH231382   4.056   5.600  15.902 -0.5210 -0.3411  0.0509
 2396TIP3    H131383   4.062   5.577  15.809 -2.8213  1.0571 -0.5405
 2396TIP3    H231384   3.986   5.544  15.936 -1.4137  0.8437  0.2643
 2397TIP3   OH231385   0.733   4.681  17.743  1.3069  0.2282  0.4962
 2397TIP3    H131386   0.766   4.671  17.832  0.7761 -0.7877  0.5897
 2397TIP3    H231387   0.705   4.772  17.738  1.8625  0.4476  1.1772
 2398TIP3   OH231388   4.649   3.882  16.499  0.1287 -0.4302  0.7482
 2398TIP3    H131389   4.731   3.910  16.540 -0.8874  0.4425  2.2784
 2398TIP3    H231390   4.653   3.917  16.410  1.6831 -0.9794  0.5717
 2399TIP3   OH231391   3.200   3.715  17.925 -0.4605  0.4354 -0.7494
 2399TIP3    H131392   3.195   3.809  17.912  1.1075  0.5577 -0.7000
 2399TIP3    H231393   3.224   3.680  17.839  0.6331  0.2701 -0.3899
 2400TIP3   OH231394   6.542   0.497  18.625  0.6507 -0.0192 -0.1697
 2400TIP3    H131395   6.486   0.432  18.668  3.4224 -0.7299  2.8160
 2400TIP3    H231396   6.546   0.469  18.534  0.5389 -3.2609  0.6912
 2401TIP3   OH231397   7.404   6.571  16.819 -0.1928  0.0339  0.0307
 2401TIP3    H131398   7.477   6.601  16.873  1.4796  0.7351 -2.4455
 2401TIP3    H231399   7.338   6.640  16.827 -0.6681 -0.5765  2.2485
 2402TIP3   OH231400   3.246   6.840  17.941 -0.1436 -0.0207  0.3507
 2402TIP3    H131401   3.314   6.845  17.874 -1.1000 -0.1821 -0.6723
 2402TIP3    H231402   3.237   6.930  17.973 -0.8071  0.3996 -0.9320
 2403TIP3   OH231403   2.535   1.120  17.547  0.0811  0.0475  0.3392
 2403TIP3    H131404   2.571   1.144  17.461  1.8299 -0.2849  0.9372
 2403TIP3    H231405   2.497   1.034  17.533  1.1640 -0.4080  0.0814
 2404TIP3   OH231406   0.011   6.604  17.831  0.1218  0.5631 -0.3210
 2404TIP3    H131407  -0.074   6.591  17.873  0.3714  0.1180  0.0675
 2404TIP3    H231408  -0.002   6.576  17.741  0.3055 -1.2623  0.1742
 2405TIP3   OH231409   3.960   5.364  17.628 -0.0299  0.3087  0.3143
 2405TIP3    H131410   3.900   5.319  17.688 -1.8162  1.4434 -0.5394
 2405TIP3    H231411   3.991   5.440  17.677 -0.1259  0.3049  0.3807
 2406TIP3   OH231412   0.330   3.231  17.433 -0.2208 -0.2416  0.1008
 2406TIP3    H131413   0.358   3.191  17.350 -1.3381 -1.0420  0.0959
 2406TIP3    H231414   0.317   3.157  17.492  0.4067  0.3164  0.9618
 2407TIP3   OH231415   4.778   7.327  16.169 -0.2604  0.0224  0.4336
 2407TIP3    H131416   4.851   7.266  16.175 -0.3238 -0.1015 -0.0167
 2407TIP3    H231417   4.796   7.392  16.237  0.9670  0.7241 -0.5057
 2408TIP3   OH231418   4.456   2.927  18.128  0.1134 -0.3516 -0.6375
 2408TIP3    H131419   4.539   2.898  18.165 -0.3141  0.2743  0.8755
 2408TIP3    H231420   4.437   3.010  18.172 -1.2356 -0.4042 -1.0710
 2409TIP3   OH231421   0.022   3.094  15.843  0.3853  0.5576  0.3544
 2409TIP3    H131422   0.099   3.049  15.807 -0.1406 -0.6991  0.7607
 2409TIP3    H231423   0.009   3.168  15.784 -0.9483 -1.8629 -2.6865
 2410TIP3   OH231424   0.426   3.083  17.196 -0.0418  0.5500 -0.0617
 2410TIP3    H131425   0.433   3.090  17.101 -0.1789 -3.5286 -0.5356
 2410TIP3    H231426   0.514   3.103  17.228  0.0381  1.8424 -1.0129
 2411TIP3   OH231427   5.597   1.342  15.862  0.1238  0.4061  0.3546
 2411TIP3    H131428   5.572   1.359  15.953  0.7638  1.9352  0.2739
 2411TIP3    H231429   5.659   1.412  15.841  0.2878 -0.1591 -1.1394
 2412TIP3   OH231430   6.320   0.215  18.060 -0.3760 -0.1660 -0.3311
 2412TIP3    H131431   6.378   0.267  18.116  0.1277  0.1208 -1.1058
 2412TIP3    H231432   6.346   0.124  18.078  0.0682 -0.0557 -0.4067
 2413TIP3   OH231433   3.106   4.279  17.294 -0.0600 -0.1931  0.1790
 2413TIP3    H131434   3.031   4.332  17.266 -1.3541 -0.7298  2.3492
 2413TIP3    H231435   3.183   4.333  17.275 -1.2593  2.1077  1.4766
 2414TIP3   OH231436   1.703   2.410  16.729  0.1027  0.2976  0.2702
 2414TIP3    H131437   1.766   2.338  16.737  0.4917  0.5982 -0.0586
 2414TIP3    H231438   1.710   2.437  16.637  0.0160  0.8074  0.4140
 2415TIP3   OH231439   6.738   6.535  18.584 -0.2271  0.3192 -0.3585
 2415TIP3    H131440   6.665   6.479  18.611 -0.5188 -0.0708 -1.8335
 2415TIP3    H231441   6.740   6.527  18.488  0.8188  1.4962 -0.4638
 2416TIP3   OH231442   2.353   4.191  18.746  0.4305  0.1580  0.3947
 2416TIP3    H131443   2.333   4.281  18.773  1.4016  0.4174  0.2817
 2416TIP3    H231444   2.439   4.197  18.705  0.4140 -0.7971  0.2055
 2417TIP3   OH231445   4.748   4.742  17.172  0.4033  0.3274 -0.0510
 2417TIP3    H131446   4.794   4.677  17.120  1.9227 -0.4748  2.1560
 2417TIP3    H231447   4.761   4.824  17.125  2.1978 -0.2579 -0.6532
 2418TIP3   OH231448   4.835   2.947  15.550 -0.2897 -0.1223 -0.0759
 2418TIP3    H131449   4.812   2.854  15.538 -1.5047  0.0393  0.8325
 2418TIP3    H231450   4.931   2.947  15.558 -0.2048 -1.2082 -0.8163
 2419TIP3   OH231451   4.097   0.148  17.014 -0.0240  0.3390  0.0809
 2419TIP3    H131452   4.114   0.131  17.106 -2.4343 -0.9755  0.3554
 2419TIP3    H231453   4.070   0.240  17.010  1.1040  0.7069  0.4788
 2420TIP3   OH231454   3.034   7.146  17.537 -0.0664 -0.0212 -0.1575
 2420TIP3    H131455   2.977   7.221  17.521  1.8626  1.8285  1.0909
 2420TIP3    H231456   2.976   7.078  17.571 -1.7535  1.1781 -0.5364
 2421TIP3   OH231457   2.539   2.787  18.646 -0.5913 -0.3951 -0.1273
 2421TIP3    H131458   2.474   2.845  18.607 -0.1328  0.0742 -0.1988
 2421TIP3    H231459   2.489   2.709  18.672 -1.1899 -0.0122 -0.1172
 2422TIP3   OH231460   7.073   2.738  17.489  0.4629 -0.5163  0.1446
 2422TIP3    H131461   7.162   2.757  17.519  0.5996 -3.0109  1.6418
 2422TIP3    H231462   7.017   2.779  17.554  0.6357 -1.1857  0.7382
 2423TIP3   OH231463   4.813   1.215  16.258  0.2755 -0.0749  0.2635
 2423TIP3    H131464   4.875   1.271  16.304  0.4288 -0.1298  0.1229
 2423TIP3    H231465   4.815   1.132  16.304 -0.8967  0.4192  1.2641
 2424TIP3   OH231466   2.123   2.484  18.842  0.3442 -0.4709  0.8123
 2424TIP3    H131467   2.107   2.474  18.936 -0.3236  0.0580  0.7624
 2424TIP3    H231468   2.051   2.539  18.811  0.4919 -0.7392 -0.0344
 2425TIP3   OH231469   0.135   0.823  17.522  0.4557 -0.0096  0.7233
 2425TIP3    H131470   0.123   0.918  17.514 -0.1514 -0.1755 -0.6169
 2425TIP3    H231471   0.143   0.808  17.616  0.0190  1.3037  0.9968
 2426TIP3   OH231472   5.666   2.700  17.083  0.4497 -0.5943  0.5600
 2426TIP3    H131473   5.684   2.649  17.162  0.3024 -1.0687  0.2926
 2426TIP3    H231474   5.584   2.663  17.049  0.5594 -0.4551  0.1408
 2427TIP3   OH231475   2.121   7.358  17.911 -0.2998 -0.5931  0.2532
 2427TIP3    H131476   2.038   7.324  17.945  0.4407 -2.7595  0.0124
 2427TIP3    H231477   2.186   7.331  17.975  0.3377  0.4197  0.0487
 2428TIP3   OH231478   4.763   7.476  17.808  0.0554  0.7525  0.1991
 2428TIP3    H131479   4.739   7.384  17.817 -0.0478  0.8899  1.5190
 2428TIP3    H231480   4.691   7.515  17.759 -0.3126  0.2985  0.3717
 2429TIP3   OH231481   4.410   5.647  16.663 -0.2013  1.0199  0.3262
 2429TIP3    H131482   4.324   5.673  16.696 -1.1143 -1.9886  0.6989
 2429TIP3    H231483   4.459   5.622  16.741  0.6816  1.7579  0.0257
 2430TIP3   OH231484   4.509   4.658  16.138 -0.5676  0.2747 -0.6566
 2430TIP3    H131485   4.541   4.715  16.067 -1.0404  2.1448  0.5570
 2430TIP3    H231486   4.426   4.624  16.106  0.6398 -1.4071 -2.2046
 2431TIP3   OH231487   1.982   2.429  18.466 -0.1910 -0.0278 -0.8493
 2431TIP3    H131488   1.938   2.356  18.509  0.4666 -1.2412 -2.1254
 2431TIP3    H231489   1.960   2.505  18.519 -0.7559 -1.1716  0.6415
 2432TIP3   OH231490   1.009   0.126  17.839  0.0855 -0.6220  0.4019
 2432TIP3    H131491   0.924   0.084  17.851 -1.0627  1.3545 -0.2093
 2432TIP3    H231492   1.071   0.054  17.834 -1.5101 -2.1358  1.0953
 2433TIP3   OH231493   1.262   2.347  16.745 -0.0020 -0.5118  0.4639
 2433TIP3    H131494   1.183   2.395  16.719  0.6338  0.6049  0.5182
 2433TIP3    H231495   1.274   2.283  16.675 -0.9780 -0.7323  0.4801
 2434TIP3   OH231496   1.122   1.571  17.362 -0.6557 -0.1625 -0.2148
 2434TIP3    H131497   1.146   1.512  17.290 -0.0861  0.9478 -0.9501
 2434TIP3    H231498   1.205   1.605  17.394 -0.9454 -0.1948  0.6011
 2435TIP3   OH231499   5.131   5.369  15.976 -0.3712 -0.0557  0.0950
 2435TIP3    H131500   5.045   5.342  15.943 -0.8118  0.3764  0.8591
 2435TIP3    H231501   5.164   5.292  16.022 -0.4754 -0.1308  0.0445
 2436TIP3   OH231502   1.049   0.525  17.595  0.0948  0.1279 -0.5247
 2436TIP3    H131503   1.069   0.591  17.528 -1.1352 -0.1279 -1.1629
 2436TIP3    H231504   1.043   0.443  17.547 -1.1424 -0.0042 -0.1650
 2437TIP3   OH231505   6.909   5.145  18.284  0.1157 -0.1547  0.6739
 2437TIP3    H131506   6.841   5.173  18.223 -0.3127  1.3540  1.7981
 2437TIP3    H231507   6.936   5.059  18.252 -1.0565  0.0045 -0.8260
 2438TIP3   OH231508   5.693   5.892  16.437  0.5599 -0.3556  0.6188
 2438TIP3    H131509   5.691   5.858  16.526  2.9010  1.1052  1.3023
 2438TIP3    H231510   5.755   5.965  16.440 -0.5419  0.8125 -1.8481
 2439TIP3   OH231511   4.583   3.701  17.732  0.4452  0.0390  0.0990
 2439TIP3    H131512   4.565   3.791  17.760  1.3080  0.3447 -0.3104
 2439TIP3    H231513   4.650   3.709  17.665 -0.5390 -0.8059 -1.0185
 2440TIP3   OH231514   7.636   4.160  17.432 -0.2969  1.1460 -0.3722
 2440TIP3    H131515   7.560   4.114  17.469 -1.7349  2.7000 -1.2578
 2440TIP3    H231516   7.613   4.173  17.340  0.9885  1.8027 -0.6149
 2441TIP3   OH231517   2.136   4.554  17.218 -0.1493  0.0712 -0.3705
 2441TIP3    H131518   2.139   4.546  17.313 -0.7719 -2.2113 -0.4854
 2441TIP3    H231519   2.224   4.530  17.189 -0.3819 -0.7175 -0.4342
 2442TIP3   OH231520   6.989   1.822  17.788  0.2439  0.1044  0.4884
 2442TIP3    H131521   6.973   1.730  17.770 -1.7621  0.4999  0.1057
 2442TIP3    H231522   7.013   1.824  17.881 -1.7024 -0.6108  1.0425
 2443TIP3   OH231523   1.059   3.357  18.239 -0.0282 -0.0843 -0.1003
 2443TIP3    H131524   1.089   3.443  18.209  1.4352 -0.5912 -0.1689
 2443TIP3    H231525   1.111   3.340  18.318  0.1725 -1.1730 -0.4559
 2444TIP3   OH231526   2.113   6.059  18.050 -0.3025  0.0365  0.5976
 2444TIP3    H131527   2.177   6.105  17.996  0.0715  0.6905  1.5727
 2444TIP3    H231528   2.077   5.991  17.992 -1.2061  1.8204 -1.0280
 2445TIP3   OH231529   6.930   0.934  18.739  0.7155 -0.0976 -0.3451
 2445TIP3    H131530   6.992   0.861  18.733 -0.5491 -1.2501  0.1170
 2445TIP3    H231531   6.867   0.916  18.669 -0.0300  0.1335  0.2652
 2446TIP3   OH231532   5.347   3.111  17.924 -0.4815  0.2326  0.2577
 2446TIP3    H131533   5.362   3.184  17.864 -0.5049  0.9387  1.0902
 2446TIP3    H231534   5.253   3.112  17.941 -0.3021  0.9382  1.3788
 2447TIP3   OH231535   1.540   6.191  18.391  0.0479  0.7111 -0.1739
 2447TIP3    H131536   1.475   6.246  18.348  1.3987  2.3765 -0.2059
 2447TIP3    H231537   1.616   6.248  18.402  1.7687 -1.3384 -0.7577
 2448TIP3   OH231538   3.866   2.011  17.088 -0.1055 -0.7727  0.1327
 2448TIP3    H131539   3.846   2.041  17.177  2.4469  2.1712 -0.1382
 2448TIP3    H231540   3.783   2.014  17.042 -0.9078  0.8377  1.5967
 2449TIP3   OH231541   2.339   1.248  15.748  0.1566 -0.0837 -0.1781
 2449TIP3    H131542   2.387   1.300  15.812 -1.4235  0.0143  0.9544
 2449TIP3    H231543   2.250   1.283  15.749 -1.0502 -2.9052  0.8155
 2450TIP3   OH231544   0.998   6.310  17.104  0.6967  0.0760 -0.5720
 2450TIP3    H131545   0.996   6.320  17.009 -1.4302  1.9275 -0.4057
 2450TIP3    H231546   0.907   6.320  17.131  1.4927  1.5215  1.8392
 2451TIP3   OH231547   5.457   7.324  18.613  0.3666  0.1951  0.4590
 2451TIP3    H131548   5.399   7.339  18.539  0.4443 -1.2985  0.0635
 2451TIP3    H231549   5.404   7.275  18.676  1.4996 -2.4160 -0.4802
 2452TIP3   OH231550   7.424   2.173  15.923  0.1082  0.2537 -0.2327
 2452TIP3    H131551   7.425   2.257  15.876  1.4338 -0.2597 -1.1645
 2452TIP3    H231552   7.515   2.159  15.949 -0.3389 -0.2395  1.1682
 2453TIP3   OH231553   6.223   5.725  15.969  0.0628 -0.8091  0.4995
 2453TIP3    H131554   6.209   5.818  15.983 -1.5526 -0.9142 -0.1113
 2453TIP3    H231555   6.316   5.717  15.948  0.2389  0.6466  0.6374
 2454TIP3   OH231556   3.041   3.062  17.060  0.0044  0.2907  0.1342
 2454TIP3    H131557   2.972   3.106  17.111 -2.7682 -1.4758 -1.8135
 2454TIP3    H231558   3.065   2.986  17.113  2.4269  2.1746  1.9699
 2455TIP3   OH231559   6.753   2.601  18.473 -0.3613  0.2564 -0.4445
 2455TIP3    H131560   6.732   2.599  18.379  0.0966 -2.4546 -0.5733
 2455TIP3    H231561   6.822   2.666  18.480 -0.4742  0.5922 -1.9749
 2456TIP3   OH231562   2.213   6.159  18.501 -0.4692  0.3010 -0.0008
 2456TIP3    H131563   2.146   6.226  18.515 -1.3723 -0.6882  0.5632
 2456TIP3    H231564   2.167   6.090  18.454 -0.3564 -1.1597  1.9297
 2457TIP3   OH231565   0.707   3.355  16.359  0.2351 -0.3264 -0.2761
 2457TIP3    H131566   0.721   3.337  16.266 -0.7335  0.0348 -0.5010
 2457TIP3    H231567   0.796   3.362  16.395  0.6295 -1.2684 -1.0029
 2458TIP3   OH231568   0.509   5.836  18.664 -0.7794  0.2361 -0.1296
 2458TIP3    H131569   0.547   5.843  18.751 -0.0152  0.8965 -0.5086
 2458TIP3    H231570   0.561   5.770  18.619 -1.2986 -0.2508 -0.0303
 2459TIP3   OH231571   1.478   6.512  17.088  0.3155  0.2024 -0.5773
 2459TIP3    H131572   1.486   6.594  17.138  2.2645  0.3772 -1.0779
 2459TIP3    H231573   1.542   6.453  17.129 -1.0783 -1.1077 -0.2122
 2460TIP3   OH231574   2.579   2.788  17.493  0.3444 -0.0202 -0.1041
 2460TIP3    H131575   2.599   2.696  17.481 -0.9229 -0.7888  2.7232
 2460TIP3    H231576   2.663   2.830  17.509  0.7396 -1.1270  0.8210
 2461TIP3   OH231577   3.027   0.657  16.521 -0.0177 -0.4596  0.2130
 2461TIP3    H131578   3.087   0.612  16.580 -0.0992 -2.2920 -1.0426
 2461TIP3    H231579   3.081   0.679  16.444 -0.9987 -2.6415 -1.1781
 2462TIP3   OH231580   6.930   3.182  18.005 -0.4245 -0.5360  0.0349
 2462TIP3    H131581   6.957   3.178  18.096 -0.5811 -1.1846  0.0615
 2462TIP3    H231582   6.893   3.095  17.987  0.4152 -0.7250 -0.8949
 2463TIP3   OH231583   2.598   4.714  17.121 -0.2446  0.1226  0.4326
 2463TIP3    H131584   2.607   4.794  17.172  2.5911 -0.4149  0.9017
 2463TIP3    H231585   2.648   4.730  17.041 -1.6638 -0.3516 -0.5966
 2464TIP3   OH231586   7.552   6.058  17.507  0.1132 -0.3717 -0.2344
 2464TIP3    H131587   7.621   6.049  17.573 -1.1859 -0.5420  1.1436
 2464TIP3    H231588   7.508   6.140  17.530  0.5695  0.3404 -1.8104
 2465TIP3   OH231589   6.751   3.054  17.571 -0.0560  0.5102 -0.1208
 2465TIP3    H131590   6.690   2.981  17.564 -1.4333  1.7253 -1.7001
 2465TIP3    H231591   6.771   3.078  17.480  3.1251 -0.0529  0.3095
 2466TIP3   OH231592   5.170   5.249  17.818  0.4997 -0.3620 -0.2860
 2466TIP3    H131593   5.235   5.234  17.886 -0.7783  0.2803  1.1089
 2466TIP3    H231594   5.169   5.344  17.805 -0.6995 -0.2729  0.2923
 2467TIP3   OH231595   2.839   4.996  16.666  0.0112  0.4128  0.7255
 2467TIP3    H131596   2.854   5.016  16.573 -2.5747 -1.1014 -0.1218
 2467TIP3    H231597   2.857   5.078  16.711  0.2513  1.5264 -1.2636
 2468TIP3   OH231598   4.511   2.340  18.561 -0.0525 -0.3883 -0.2742
 2468TIP3    H131599   4.431   2.301  18.525 -0.9209  1.0822 -0.0353
 2468TIP3    H231600   4.512   2.312  18.652 -0.0965 -0.6986 -0.3677
 2469TIP3   OH231601   3.591   4.520  16.698 -0.4660  0.4191 -0.1786
 2469TIP3    H131602   3.565   4.606  16.730 -0.0069  0.8258 -0.8767
 2469TIP3    H231603   3.633   4.537  16.614 -0.7314 -0.5264 -0.5197
 2470TIP3   OH231604   0.097   4.161  16.287 -0.0062  0.5146 -0.2261
 2470TIP3    H131605   0.143   4.122  16.212  1.8147 -0.1576  1.1444
 2470TIP3    H231606   0.147   4.240  16.307 -1.7482  1.8561 -0.9818
 2471TIP3   OH231607   2.657   4.407  18.359  0.3073  0.2560 -0.3278
 2471TIP3    H131608   2.610   4.376  18.437 -0.3523 -0.7419 -1.0990
 2471TIP3    H231609   2.601   4.477  18.324  0.2280  0.1937 -0.3259
 2472TIP3   OH231610   4.408   1.431  17.201 -0.0910 -0.4201  0.3010
 2472TIP3    H131611   4.394   1.525  17.197  0.1128 -0.4303 -0.6766
 2472TIP3    H231612   4.494   1.417  17.163 -1.0439 -1.2111 -1.6833
 2473TIP3   OH231613   6.090   0.095  16.893 -0.5433 -0.1381  0.0832
 2473TIP3    H131614   5.995   0.083  16.898 -0.5247 -0.5543 -0.4725
 2473TIP3    H231615   6.114   0.136  16.977 -1.2597  0.3179  0.0751
 2474TIP3   OH231616   6.413   2.166  17.647  0.5054 -0.0251 -0.7632
 2474TIP3    H131617   6.409   2.117  17.565  0.9310 -0.0308 -0.7821
 2474TIP3    H231618   6.376   2.106  17.712 -0.9623  0.4340 -1.1560
 2475TIP3   OH231619   2.191   0.232  16.293  0.1257 -0.1535 -0.4953
 2475TIP3    H131620   2.150   0.169  16.233  0.3634 -2.1309  1.3241
 2475TIP3    H231621   2.150   0.216  16.378  0.7362  1.6771  0.2084
 2476TIP3   OH231622   6.877   1.836  17.537 -0.1126 -0.1815  0.1760
 2476TIP3    H131623   6.894   1.838  17.631 -0.9771 -1.4569  0.3912
 2476TIP3    H231624   6.950   1.785  17.501  0.3863  0.5746  0.1065
 2477TIP3   OH231625   0.912   1.324  16.139 -0.2380  0.2025 -0.2434
 2477TIP3    H131626   0.998   1.282  16.145 -1.0910 -1.8095 -1.1934
 2477TIP3    H231627   0.888   1.342  16.229  1.5914  1.8245  0.0077
 2478TIP3   OH231628   7.518   2.039  18.230  0.4696 -0.5602  0.1783
 2478TIP3    H131629   7.611   2.025  18.248  1.2212  2.7450 -0.3583
 2478TIP3    H231630   7.478   2.047  18.316  0.7041 -1.7749  0.4114
 2479TIP3   OH231631   3.351   4.817  17.749 -0.0306 -0.3433 -0.1609
 2479TIP3    H131632   3.364   4.887  17.685  0.1626 -0.4670 -0.2562
 2479TIP3    H231633   3.279   4.765  17.713  1.3373 -1.5525 -1.2689
 2480TIP3   OH231634   1.358   0.650  18.192 -0.0557 -0.0754 -0.1947
 2480TIP3    H131635   1.405   0.577  18.231  0.9713  1.0595  0.8030
 2480TIP3    H231636   1.348   0.627  18.100  0.9289 -1.1173 -0.0516
 2481TIP3   OH231637   2.335   3.528  18.552 -0.5462  0.9256  0.8713
 2481TIP3    H131638   2.296   3.447  18.517 -1.2618  1.5586  0.1692
 2481TIP3    H231639   2.275   3.554  18.622 -1.0744  1.5758  0.1891
 2482TIP3   OH231640   4.833   3.770  18.334  0.2065 -0.0192 -0.0452
 2482TIP3    H131641   4.890   3.698  18.363  1.0446  0.8360  0.4690
 2482TIP3    H231642   4.764   3.773  18.400  0.4851  0.0135  0.2457
 2483TIP3   OH231643   4.911   6.306  16.997  0.0272  0.3334 -0.5942
 2483TIP3    H131644   4.945   6.236  16.940  1.0007 -0.9742  1.4687
 2483TIP3    H231645   4.982   6.370  17.001  0.7049 -0.4522  0.5218
 2484TIP3   OH231646   1.708   6.726  18.763  0.8782 -0.2202  0.0184
 2484TIP3    H131647   1.693   6.820  18.764  0.9474 -0.1491 -1.9302
 2484TIP3    H231648   1.789   6.714  18.714  0.8880 -1.2890  0.2522
 2485TIP3   OH231649   6.667   5.700  17.262 -0.1592 -0.3377  0.3769
 2485TIP3    H131650   6.704   5.780  17.300 -0.9279 -0.0308  0.5014
 2485TIP3    H231651   6.714   5.629  17.304  1.3872  0.0468 -0.5919
 2486TIP3   OH231652   3.045   0.253  17.099  0.1716 -0.6403  0.2557
 2486TIP3    H131653   3.002   0.168  17.086 -0.9570  0.0803 -0.9565
 2486TIP3    H231654   3.125   0.232  17.148 -0.9597 -2.1813  1.5699
 2487TIP3   OH231655   6.525   6.769  18.049 -0.2599  0.1732 -0.2579
 2487TIP3    H131656   6.456   6.736  18.106  1.2697 -0.7341  1.1552
 2487TIP3    H231657   6.552   6.851  18.089 -0.6942  0.6746 -0.9723
 2488TIP3   OH231658   0.374   5.028  17.207 -0.0839  0.2914  0.1131
 2488TIP3    H131659   0.376   4.932  17.211 -1.4394  0.2070 -0.6258
 2488TIP3    H231660   0.391   5.048  17.115 -1.8437  0.6269 -0.1885
 2489TIP3   OH231661   7.650   5.501  18.116 -0.2764 -0.8174  0.8748
 2489TIP3    H131662   7.677   5.586  18.082  0.2807 -0.7001  1.6001
 2489TIP3    H231663   7.560   5.490  18.083 -1.1626  1.0044  2.4543
 2490TIP3   OH231664   1.806   0.062  17.482 -0.7423 -0.1215  0.3922
 2490TIP3    H131665   1.751  -0.006  17.522 -1.0377 -0.9832 -1.4188
 2490TIP3    H231666   1.811   0.038  17.390  1.1058  1.0258  0.1545
 2491TIP3   OH231667   6.510   0.577  17.375  0.3924 -0.5208 -0.4610
 2491TIP3    H131668   6.604   0.558  17.375  0.3289 -0.8418 -0.4714
 2491TIP3    H231669   6.475   0.530  17.450  0.8613  2.9202  2.1348
 2492TIP3   OH231670   1.963   0.725  16.777 -0.2378 -0.0927  0.8216
 2492TIP3    H131671   1.932   0.734  16.687  2.8983 -1.6610 -0.5737
 2492TIP3    H231672   1.903   0.663  16.818 -0.4830 -1.0651 -0.9161
 2493TIP3   OH231673   2.887   4.470  17.245  0.2510 -0.3804 -0.0018
 2493TIP3    H131674   2.912   4.539  17.306  0.2180 -0.6407  0.3083
 2493TIP3    H231675   2.799   4.444  17.273  0.1761 -0.3956 -0.2520
 2494TIP3   OH231676   6.173   2.924  18.091  0.2261 -0.0640  0.2888
 2494TIP3    H131677   6.100   2.942  18.150  0.0160  0.7928 -0.2208
 2494TIP3    H231678   6.153   2.973  18.011  0.9566 -0.4708 -0.1606
 2495TIP3   OH231679   1.299   4.443  18.747  0.1438 -0.2555 -0.0732
 2495TIP3    H131680   1.360   4.510  18.778 -0.7115  1.8252 -2.5518
 2495TIP3    H231681   1.305   4.446  18.651 -1.1572 -2.6124 -0.3294
 2496TIP3   OH231682   3.373   4.973  17.102  0.0423  0.6271 -0.0441
 2496TIP3    H131683   3.365   5.025  17.182  0.3376  1.2499 -0.4054
 2496TIP3    H231684   3.446   4.913  17.119 -1.3021 -0.7986  0.9598
 2497TIP3   OH231685   2.899   4.527  16.955 -0.0955 -0.4740  0.1035
 2497TIP3    H131686   2.906   4.503  17.047 -2.1531  0.3642  0.5402
 2497TIP3    H231687   2.863   4.616  16.955  0.9046 -0.0132 -1.5205
 2498TIP3   OH231688   7.176   7.002  18.462 -0.0212  0.4111  0.4323
 2498TIP3    H131689   7.131   6.920  18.440  1.5299  0.4174 -3.7985
 2498TIP3    H231690   7.235   6.978  18.534 -0.6277 -1.8110  0.2790
 2499TIP3   OH231691   5.813   5.086  17.751 -0.2215  0.0828 -0.5483
 2499TIP3    H131692   5.881   5.066  17.687 -0.8257 -1.8064 -0.6632
 2499TIP3    H231693   5.813   5.182  17.757  1.7045  0.1821 -1.3165
 2500TIP3   OH231694   0.659   5.214  16.217  0.3310  0.0591  0.2303
 2500TIP3    H131695   0.699   5.135  16.180  0.1428 -0.0286  0.2148
 2500TIP3    H231696   0.589   5.236  16.156  0.9224  0.7288 -0.2273
 2501TIP3   OH231697   5.012   0.952  16.012  0.1483 -0.1497  0.8251
 2501TIP3    H131698   4.925   0.919  16.033  0.9503 -2.0719  1.3331
 2501TIP3    H231699   5.072   0.900  16.066  1.7415 -0.2529 -0.9194
 2502TIP3   OH231700   2.150   4.538  17.510 -0.1979 -0.3561  0.1779
 2502TIP3    H131701   2.241   4.553  17.534 -0.2281 -0.8007  0.5880
 2502TIP3    H231702   2.099   4.592  17.571 -0.2321 -0.6135  0.3790
 2503TIP3   OH231703   1.442   3.356  18.228  0.6658  0.1802  0.4195
 2503TIP3    H131704   1.533   3.386  18.235  1.1024 -0.9778  0.0316
 2503TIP3    H231705   1.402   3.415  18.165  1.1255  0.7670  0.6702
 2504TIP3   OH231706   2.266   7.360  18.144 -0.3448 -0.1553  0.3696
 2504TIP3    H131707   2.216   7.288  18.182  1.7715 -1.0981  1.4949
 2504TIP3    H231708   2.290   7.416  18.218  0.5309  0.0998 -0.0843
 2505TIP3   OH231709   4.008   5.441  16.201 -0.1053 -0.2656  0.2597
 2505TIP3    H131710   4.091   5.408  16.167  0.0040  1.1070 -0.8753
 2505TIP3    H231711   4.032   5.492  16.279  0.0110 -0.5654  0.4219
 2506TIP3   OH231712   2.003   2.724  17.825 -0.2824  0.0291 -0.2067
 2506TIP3    H131713   2.091   2.745  17.855 -0.5210  1.7545 -0.5699
 2506TIP3    H231714   2.014   2.648  17.769  0.8793 -0.1716  0.2606
 2507TIP3   OH231715   6.095   5.512  16.854  0.2073  0.3247 -0.4396
 2507TIP3    H131716   6.083   5.523  16.760  1.5497  0.1756 -0.6384
 2507TIP3    H231717   6.145   5.590  16.881  3.4222 -1.5113 -0.5995
 2508TIP3   OH231718   0.154   6.962  18.199  0.2584 -0.1288 -0.1300
 2508TIP3    H131719   0.104   6.934  18.276  1.0207 -0.0347  0.4146
 2508TIP3    H231720   0.087   6.992  18.137 -0.3966 -0.6226  0.3152
 2509TIP3   OH231721   7.292   4.452  17.235  0.0588  1.0044  0.0716
 2509TIP3    H131722   7.235   4.476  17.309  0.1552 -0.6014  0.7214
 2509TIP3    H231723   7.234   4.407  17.174  0.2202  1.2543 -0.2684
 2510TIP3   OH231724   5.663   2.268  16.814 -0.2248  0.9020  0.1121
 2510TIP3    H131725   5.724   2.280  16.887 -0.7018 -1.2176  0.9358
 2510TIP3    H231726   5.718   2.244  16.740  0.0261 -0.6416  0.7580
 2511TIP3   OH231727   4.096   1.175  17.242 -0.2500  0.5674  0.3163
 2511TIP3    H131728   4.127   1.130  17.320  1.4163  0.3435 -0.4362
 2511TIP3    H231729   4.106   1.268  17.263  0.5271  0.5030  0.2500
 2512TIP3   OH231730   4.115   7.158  18.423 -0.2635 -1.2200  0.2721
 2512TIP3    H131731   4.126   7.131  18.332  0.2704  0.1548 -0.1006
 2512TIP3    H231732   4.027   7.197  18.426  0.6651  1.0677 -0.3199
 2513TIP3   OH231733   3.735   2.157  18.884 -0.0328  0.4253 -0.3197
 2513TIP3    H131734   3.736   2.152  18.789 -0.9935 -0.4259 -0.2937
 2513TIP3    H231735   3.814   2.110  18.911  0.0084  0.2916 -0.6698
 2514TIP3   OH231736   2.817   3.774  16.897  0.2337 -0.4080 -0.3593
 2514TIP3    H131737   2.857   3.713  16.959 -0.8575 -1.8719 -1.0226
 2514TIP3    H231738   2.723   3.763  16.910 -0.0131  1.6809 -0.0243
 2515TIP3   OH231739   6.200   3.416  17.338  0.0181  0.0057 -0.0790
 2515TIP3    H131740   6.252   3.458  17.269  1.6364 -0.3630  0.8655
 2515TIP3    H231741   6.174   3.332  17.301 -1.6410  1.0039 -1.2904
 2516TIP3   OH231742   1.530   7.018  18.401 -0.7627  0.3394 -0.6268
 2516TIP3    H131743   1.623   7.000  18.383 -0.8143  0.2562 -0.8092
 2516TIP3    H231744   1.505   7.081  18.334 -0.3724  1.7186  0.4789
 2517TIP3   OH231745   1.717   1.544  17.465  0.2459 -0.2643 -0.8377
 2517TIP3    H131746   1.699   1.604  17.393 -1.4031  0.3379  0.0282
 2517TIP3    H231747   1.647   1.560  17.528  1.4629 -0.9846  0.7811
 2518TIP3   OH231748   1.902   2.320  17.090 -0.5386 -0.0957 -0.1428
 2518TIP3    H131749   1.988   2.335  17.052  0.5851 -0.5355  2.0719
 2518TIP3    H231750   1.878   2.232  17.061  0.1620 -0.3065 -0.1024
 2519TIP3   OH231751   5.444   1.467  16.823  0.5785  0.2249  0.0288
 2519TIP3    H131752   5.492   1.387  16.846  1.1759  0.3608 -0.7318
 2519TIP3    H231753   5.436   1.463  16.728  0.0663  0.7699  0.0472
 2520TIP3   OH231754   3.306   3.973  17.009  0.1047  0.5070  0.5327
 2520TIP3    H131755   3.290   4.057  16.966 -1.7496  0.1386  0.4108
 2520TIP3    H231756   3.342   3.917  16.940 -1.7030  0.2846 -0.3103
 2521TIP3   OH231757   7.059   0.288  17.208  0.3657 -0.2499  0.1808
 2521TIP3    H131758   7.110   0.367  17.226 -0.0388  0.9286 -3.0775
 2521TIP3    H231759   7.115   0.235  17.151 -1.2802  0.3078 -2.1141
 2522TIP3   OH231760   3.968   3.352  18.532 -0.2968  0.5688  0.4744
 2522TIP3    H131761   4.029   3.315  18.468 -0.3694  0.3853  0.5094
 2522TIP3    H231762   3.961   3.444  18.508 -0.0514  0.5770  0.4333
 2523TIP3   OH231763   3.092   6.202  17.906 -0.5687  0.4480 -0.4874
 2523TIP3    H131764   3.056   6.147  17.976  1.0443  2.1104  1.7827
 2523TIP3    H231765   3.142   6.141  17.851 -0.9222 -0.7444  0.4616
 2524TIP3   OH231766   1.923   3.652  17.469  0.3913 -0.4855 -0.4471
 2524TIP3    H131767   1.848   3.677  17.415  0.2177 -0.9699 -0.4363
 2524TIP3    H231768   1.993   3.712  17.443 -0.2392  0.5427  0.1433
 2525TIP3   OH231769   4.852   5.553  16.582 -0.6566  0.0140  0.4496
 2525TIP3    H131770   4.918   5.524  16.518 -1.3932  0.5863 -0.5868
 2525TIP3    H231771   4.802   5.620  16.536 -1.2932  0.3441  1.5977
 2526TIP3   OH231772   0.463   4.147  16.452  0.4315  0.3622 -0.1782
 2526TIP3    H131773   0.436   4.143  16.360 -0.8381  1.4015  0.1199
 2526TIP3    H231774   0.559   4.156  16.448  0.5411 -0.9941 -1.3309
 2527TIP3   OH231775   2.866   1.173  18.655  0.2473 -0.1876  0.1722
 2527TIP3    H131776   2.902   1.087  18.631 -0.0877  0.0761 -1.4295
 2527TIP3    H231777   2.775   1.155  18.678  0.5116 -0.4200  1.0592
 2528TIP3   OH231778   0.788   3.022  17.446  0.1303 -0.3463 -0.2254
 2528TIP3    H131779   0.838   3.004  17.526 -1.7776 -0.2194  1.0669
 2528TIP3    H231780   0.712   2.964  17.452 -1.2589  1.3219 -0.7313
 2529TIP3   OH231781   6.450   0.700  16.019 -0.5890  0.0796  0.2088
 2529TIP3    H131782   6.426   0.610  16.043 -0.0929  0.0412  0.5791
 2529TIP3    H231783   6.366   0.747  16.017 -0.7989 -0.2688  0.5451
 2530TIP3   OH231784   5.801   0.719  18.304  0.3659 -0.4798 -0.9844
 2530TIP3    H131785   5.761   0.652  18.359  0.2078  1.0202  0.7995
 2530TIP3    H231786   5.728   0.772  18.273  0.6634  0.1400 -0.6381
 2531TIP3   OH231787   4.351   0.750  18.421  0.0775 -0.6845 -0.2562
 2531TIP3    H131788   4.363   0.676  18.481  0.5679 -1.3329 -1.1414
 2531TIP3    H231789   4.439   0.768  18.387  0.2272  1.2111  0.9647
 2532TIP3   OH231790   5.706   1.840  18.491  0.3097 -0.1171  0.2633
 2532TIP3    H131791   5.721   1.850  18.397 -0.4694 -0.6133  0.0736
 2532TIP3    H231792   5.658   1.919  18.516 -0.6250 -0.5755 -0.0315
 2533TIP3   OH231793   1.112   4.892  18.573  0.6377  0.3171 -0.1973
 2533TIP3    H131794   1.032   4.846  18.545  0.3793  1.0390 -0.6865
 2533TIP3    H231795   1.157   4.912  18.491  0.9661  0.5462  0.0409
 2534TIP3   OH231796   4.057   5.340  17.081 -0.4825  0.2384 -0.6892
 2534TIP3    H131797   3.964   5.358  17.067 -0.6717  0.6915  0.9347
 2534TIP3    H231798   4.101   5.382  17.007 -1.7455 -3.1095 -3.5879
 2535TIP3   OH231799   3.390   6.118  17.711 -0.8648 -0.1565 -0.1734
 2535TIP3    H131800   3.331   6.156  17.645 -2.2508 -0.0678  1.0585
 2535TIP3    H231801   3.366   6.026  17.715 -0.4374 -0.2681 -0.1450
 2536TIP3   OH231802   3.380   0.890  18.983 -0.3735  0.3559  0.4104
 2536TIP3    H131803   3.471   0.921  18.984  0.4763 -1.9560  2.1698
 2536TIP3    H231804   3.343   0.922  19.065 -1.4292  1.8635 -0.6027
 2537TIP3   OH231805   6.420   4.189  16.135 -0.1022 -0.1323 -0.3197
 2537TIP3    H131806   6.463   4.259  16.086  0.1047  2.3636  3.0638
 2537TIP3    H231807   6.488   4.123  16.148  1.2761  1.3887  0.5725
 2538TIP3   OH231808   6.877   4.016  18.267  0.3688 -0.3487 -0.6759
 2538TIP3    H131809   6.842   3.935  18.229 -0.5006 -0.4547  0.2985
 2538TIP3    H231810   6.800   4.067  18.291  0.8503 -0.3728  1.0758
 2539TIP3   OH231811   6.411   3.780  17.291 -0.3603  0.0749 -0.0292
 2539TIP3    H131812   6.479   3.841  17.263 -0.8458  0.1157 -1.1441
 2539TIP3    H231813   6.417   3.707  17.230 -0.4505 -0.5417  0.6794
 2540TIP3   OH231814   5.658   5.070  16.821  0.1333 -0.5923 -0.0903
 2540TIP3    H131815   5.569   5.063  16.787  0.3085 -2.3873 -0.2821
 2540TIP3    H231816   5.670   5.163  16.838 -0.9621  0.0156 -2.2580
 2541TIP3   OH231817   5.839   7.546  18.022  0.2478 -0.3018 -0.2452
 2541TIP3    H131818   5.900   7.503  17.962 -0.3141  0.9272 -1.7655
 2541TIP3    H231819   5.895   7.597  18.081  0.7607  0.6143 -1.4661
 2542TIP3   OH231820   0.888   0.839  18.077 -0.3506  0.0333  0.0047
 2542TIP3    H131821   0.812   0.847  18.019  0.0109 -0.9029 -0.6230
 2542TIP3    H231822   0.962   0.871  18.024 -0.0332 -0.7411 -0.0282
 2543TIP3   OH231823   2.921   3.875  18.165 -0.3843  0.0285 -0.1904
 2543TIP3    H131824   2.901   3.883  18.072 -0.9161 -1.0689 -0.1800
 2543TIP3    H231825   2.845   3.831  18.203 -0.2412  0.6044  0.7939
 2544TIP3   OH231826   2.581   2.466  18.653 -0.0509 -0.1390  0.2174
 2544TIP3    H131827   2.600   2.373  18.666  0.7612 -0.1653 -0.9608
 2544TIP3    H231828   2.488   2.469  18.633  0.4964 -1.1723 -3.1282
 2545TIP3   OH231829   6.755   2.150  16.948 -0.4504 -0.1830 -0.0912
 2545TIP3    H131830   6.816   2.076  16.957 -1.0645 -0.7816 -0.7419
 2545TIP3    H231831   6.732   2.151  16.855 -0.2477  1.0101 -0.1462
 2546TIP3   OH231832   5.240   3.089  17.550 -0.0890  0.3408 -0.2318
 2546TIP3    H131833   5.195   3.044  17.622  0.5100 -0.4842 -0.3624
 2546TIP3    H231834   5.277   3.167  17.591  2.5196 -1.4196  1.0465
 2547TIP3   OH231835   4.226   2.617  17.705  0.3508 -0.1514 -0.1755
 2547TIP3    H131836   4.205   2.545  17.645 -0.5144 -1.7449  1.9012
 2547TIP3    H231837   4.322   2.618  17.709  0.3828 -1.8522  0.4344
 2548TIP3   OH231838   1.102   0.888  17.890  0.4323 -0.4759 -0.1367
 2548TIP3    H131839   1.193   0.864  17.876  0.5311  0.4647 -1.2518
 2548TIP3    H231840   1.105   0.979  17.920 -0.0794 -0.9084  1.3110
 2549TIP3   OH231841   0.248   1.943  17.796 -0.1540 -0.0156 -0.1220
 2549TIP3    H131842   0.204   1.895  17.726 -0.0787  0.0112 -0.1875
 2549TIP3    H231843   0.328   1.893  17.813 -0.5880 -0.4923  0.5276
 2550TIP3   OH231844   1.674   2.427  17.943 -0.0300  0.3731  0.2275
 2550TIP3    H131845   1.760   2.427  17.985  0.2445 -2.0598 -0.1957
 2550TIP3    H231846   1.688   2.382  17.859 -1.5703  0.5855 -0.1703
 2551TIP3   OH231847   5.011   5.328  16.263 -0.1451 -0.4336  0.5097
 2551TIP3    H131848   4.980   5.364  16.180  0.6689  0.7401  0.6827
 2551TIP3    H231849   5.026   5.235  16.245 -1.7736 -0.6044 -0.1136
 2552TIP3   OH231850   5.904   4.929  17.958  0.0116 -0.0860 -0.4379
 2552TIP3    H131851   5.942   4.983  18.028  1.4899  0.0126 -1.2625
 2552TIP3    H231852   5.865   4.993  17.898 -3.7608 -0.2585  1.5310
 2553TIP3   OH231853   3.948   2.705  18.346 -0.3159  0.6356 -0.1319
 2553TIP3    H131854   4.029   2.724  18.297  0.2053  0.8926  0.8083
 2553TIP3    H231855   3.904   2.637  18.295 -1.4871  3.1978 -2.8240
 2554TIP3   OH231856   1.472   6.333  18.711 -0.5658  0.6752  0.4491
 2554TIP3    H131857   1.543   6.335  18.646 -2.0554 -1.1627 -1.3395
 2554TIP3    H231858   1.494   6.258  18.767 -0.3431  1.0112  0.8137
 2555TIP3   OH231859   6.893   4.585  17.660  0.2095 -0.2536 -0.2844
 2555TIP3    H131860   6.881   4.680  17.666 -2.2620 -0.5861  1.1732
 2555TIP3    H231861   6.966   4.566  17.719 -0.2388  0.6047  0.5715
 2556TIP3   OH231862   3.713   2.641  15.872 -0.8519  0.0080 -0.1372
 2556TIP3    H131863   3.784   2.602  15.922 -0.7272 -0.5125 -0.6976
 2556TIP3    H231864   3.741   2.731  15.856 -1.3128  0.4740  1.5011
 2557TIP3   OH231865   7.044   1.600  18.759  0.4871  0.4866 -0.6633
 2557TIP3    H131866   7.074   1.528  18.814  0.1243  0.7365 -0.1325
 2557TIP3    H231867   6.990   1.558  18.692 -0.4315  0.3399  0.1525
 2558TIP3   OH231868   5.688   2.557  17.298 -0.2888  0.1628 -0.2353
 2558TIP3    H131869   5.603   2.519  17.322 -0.4303 -0.1488 -1.1743
 2558TIP3    H231870   5.752   2.499  17.338 -0.5058 -1.0610 -1.5648
 2559TIP3   OH231871   5.228   4.299  17.949 -0.1578 -0.2463 -0.4352
 2559TIP3    H131872   5.166   4.371  17.938  1.0499  0.8804 -0.1018
 2559TIP3    H231873   5.209   4.240  17.877 -1.7086 -0.0110 -0.2534
 2560TIP3   OH231874   4.983   2.409  18.369  0.1039 -0.5600  0.0764
 2560TIP3    H131875   4.926   2.333  18.379 -1.9085  0.6861 -1.2955
 2560TIP3    H231876   4.935   2.481  18.411  0.1316  0.7419 -1.9765
 2561TIP3   OH231877   6.738   6.387  17.564 -0.2686 -0.2539  0.2705
 2561TIP3    H131878   6.802   6.422  17.626  0.4970  1.3302 -1.2936
 2561TIP3    H231879   6.669   6.453  17.562 -1.0691 -1.0773  0.6204
 2562TIP3   OH231880   5.799   7.600  16.072  0.6901 -0.1441 -0.2101
 2562TIP3    H131881   5.818   7.673  16.014  1.7959  1.1388  1.6657
 2562TIP3    H231882   5.873   7.541  16.063 -0.2554 -1.1539 -1.8080
 2563TIP3   OH231883   4.998   7.267  16.809 -0.4621  0.1726  0.0154
 2563TIP3    H131884   5.073   7.254  16.751 -0.1353  2.0832 -0.0381
 2563TIP3    H231885   4.922   7.266  16.750 -0.3049  0.1890 -0.1891
 2564TIP3   OH231886   3.427   6.426  18.725 -0.1011 -0.1443 -0.1978
 2564TIP3    H131887   3.447   6.416  18.818 -1.9256 -1.4695  0.0961
 2564TIP3    H231888   3.427   6.521  18.711  0.9303  0.0552  0.9546
 2565TIP3   OH231889   4.203   6.017  16.541 -0.3772  0.8204 -1.2312
 2565TIP3    H131890   4.297   5.997  16.532 -0.0178  1.6171  0.3155
 2565TIP3    H231891   4.171   5.953  16.604 -0.2026  2.2093  0.3572
 2566TIP3   OH231892   4.967   2.953  16.658 -0.0246  0.4747  0.7130
 2566TIP3    H131893   4.878   2.974  16.629  0.5750  0.0104 -1.7202
 2566TIP3    H231894   4.996   3.032  16.704 -0.9698  1.4789 -0.3256
 2567TIP3   OH231895   3.148   5.071  17.900  0.3579 -0.2115  0.4014
 2567TIP3    H131896   3.183   4.991  17.940 -0.1925 -0.0068  1.3097
 2567TIP3    H231897   3.212   5.138  17.922  0.8940 -0.4242 -0.4848
 2568TIP3   OH231898   1.851   4.943  17.575  0.0788 -0.4526  0.1675
 2568TIP3    H131899   1.781   4.990  17.620 -0.6182 -2.1137  0.9361
 2568TIP3    H231900   1.870   4.869  17.633 -1.1737 -2.9820 -2.4126
 2569TIP3   OH231901   5.580   1.265  18.489 -0.3773  0.0081 -0.6938
 2569TIP3    H131902   5.550   1.338  18.435 -2.9400 -0.0883  0.4106
 2569TIP3    H231903   5.539   1.280  18.575  0.0503 -2.0381 -0.0593
 2570TIP3   OH231904   5.615   4.349  17.715  0.3443  0.3390  0.1790
 2570TIP3    H131905   5.552   4.417  17.739 -1.9695 -1.3785 -0.6666
 2570TIP3    H231906   5.593   4.275  17.770  1.6407 -0.3319 -0.1566
 2571TIP3   OH231907   5.336   7.535  17.341 -0.1174  0.3334  0.3119
 2571TIP3    H131908   5.326   7.620  17.298  0.6301  0.5699  0.5780
 2571TIP3    H231909   5.410   7.547  17.400  0.7573 -0.8345 -0.4851
 2572TIP3   OH231910   1.899   0.451  17.984  0.0978  0.1014  0.0379
 2572TIP3    H131911   1.948   0.528  17.955 -0.1685  0.1758 -0.2168
 2572TIP3    H231912   1.927   0.381  17.925  0.1169  0.0725  0.0803
 2573TIP3   OH231913   4.180   2.405  17.538 -0.3185 -0.2951 -0.3823
 2573TIP3    H131914   4.128   2.377  17.463  0.3997 -0.2427 -0.9134
 2573TIP3    H231915   4.270   2.405  17.506 -0.1773  1.5165 -0.0745
 2574TIP3   OH231916   3.347   0.306  16.386  0.0785 -0.5344  0.6078
 2574TIP3    H131917   3.307   0.391  16.368 -1.0095 -0.4207  3.0574
 2574TIP3    H231918   3.338   0.256  16.305 -2.4535  0.5265  0.1552
 2575TIP3   OH231919   0.985   2.773  18.401  0.9671 -0.1334 -0.4644
 2575TIP3    H131920   0.993   2.868  18.400 -2.1996  0.2592 -1.6310
 2575TIP3    H231921   1.010   2.746  18.313 -2.5108  0.3054 -1.7581
 2576TIP3   OH231922   4.193   4.144  17.517  0.2641  0.0848  0.2542
 2576TIP3    H131923   4.287   4.137  17.500  0.3493  1.3807  0.1243
 2576TIP3    H231924   4.156   4.169  17.432 -0.3772 -1.6071 -0.0074
 2577TIP3   OH231925   2.035   3.500  18.135 -0.2311  0.1475  0.0266
 2577TIP3    H131926   2.085   3.517  18.215 -0.2106 -3.1145  0.8518
 2577TIP3    H231927   1.950   3.541  18.151  0.2825  0.8795  1.0155
 2578TIP3   OH231928   5.455   7.441  17.726 -0.6027  0.3418 -0.4720
 2578TIP3    H131929   5.463   7.350  17.756 -1.3576 -0.7847 -3.4180
 2578TIP3    H231930   5.365   7.448  17.693  0.1338  1.4540 -2.3741
 2579TIP3   OH231931   6.261   0.115  15.960  0.4879  0.0728 -0.0800
 2579TIP3    H131932   6.168   0.116  15.938  0.6517  0.3290 -0.7755
 2579TIP3    H231933   6.283   0.207  15.978  1.4480  0.6749 -3.6413
 2580TIP3   OH231934   1.580   7.578  17.602  0.4774 -0.2179 -0.1647
 2580TIP3    H131935   1.518   7.599  17.533  1.6259 -0.8824 -1.4566
 2580TIP3    H231936   1.614   7.491  17.578  1.1197 -0.3372  1.0755
 2581TIP3   OH231937   1.019   0.541  17.876  0.4273 -0.0517 -0.2989
 2581TIP3    H131938   1.046   0.518  17.787  0.3233 -1.0934 -0.0784
 2581TIP3    H231939   0.938   0.591  17.865  0.9812  0.7486 -0.8329
 2582TIP3   OH231940   4.506   3.047  18.520  0.1438  0.0084 -0.3197
 2582TIP3    H131941   4.446   3.077  18.588  1.4199  0.4495  0.6501
 2582TIP3    H231942   4.578   3.110  18.522  0.9174 -0.8180 -1.0705
 2583TIP3   OH231943   1.804   6.657  17.727  0.0127  0.8210 -0.1752
 2583TIP3    H131944   1.766   6.655  17.639 -1.5268  0.6113  0.4588
 2583TIP3    H231945   1.889   6.613  17.718 -0.4516  0.1262 -1.4084
 2584TIP3   OH231946   2.401   3.510  17.947  0.0477  0.0858  0.0463
 2584TIP3    H131947   2.337   3.562  17.899 -0.8442  1.2153  2.2758
 2584TIP3    H231948   2.484   3.529  17.904 -0.7344  0.7596 -1.2288
 2585TIP3   OH231949   3.903   7.360  15.936  0.1585 -0.1668  0.3434
 2585TIP3    H131950   3.929   7.293  15.999 -2.5951 -1.9348 -0.2294
 2585TIP3    H231951   3.840   7.414  15.983  0.9684  0.9163  0.2214
 2586TIP3   OH231952   1.595   7.503  17.912  0.2956 -0.1721  0.4635
 2586TIP3    H131953   1.513   7.455  17.902 -0.9557  2.0755 -1.1750
 2586TIP3    H231954   1.620   7.525  17.822  0.9810  1.8467  1.1044
 2587TIP3   OH231955   3.600   2.371  17.586 -0.0926 -0.3317 -0.1179
 2587TIP3    H131956   3.515   2.414  17.589 -0.5490 -1.1891  3.0662
 2587TIP3    H231957   3.662   2.439  17.612 -0.2432 -0.4830  0.6570
 2588TIP3   OH231958   3.439   4.141  16.484 -0.3589 -0.0075  0.0890
 2588TIP3    H131959   3.378   4.189  16.540  1.2328  1.2086  0.8599
 2588TIP3    H231960   3.422   4.049  16.502 -1.1514  0.3411  1.1696
 2589TIP3   OH231961   6.895   6.738  18.855  0.1477  0.4340  0.1746
 2589TIP3    H131962   6.892   6.647  18.826  0.8010  0.7992 -1.0893
 2589TIP3    H231963   6.988   6.760  18.856 -0.0541  1.3974 -0.5531
 2590TIP3   OH231964   0.296   5.890  18.509  0.1472  0.1194  0.0418
 2590TIP3    H131965   0.316   5.841  18.430 -0.1194  0.6604 -0.3650
 2590TIP3    H231966   0.351   5.850  18.576 -0.8218 -1.4356 -0.0269
 2591TIP3   OH231967   2.460   1.334  16.252 -0.1869  0.0548  0.5244
 2591TIP3    H131968   2.444   1.417  16.207  1.1221 -0.7767 -1.6243
 2591TIP3    H231969   2.553   1.335  16.272  0.6217 -2.0853 -2.3693
 2592TIP3   OH231970   5.343   0.988  17.648  0.3324  0.3155  0.0952
 2592TIP3    H131971   5.411   0.956  17.590  0.0762  0.5035 -0.3097
 2592TIP3    H231972   5.263   0.944  17.619  0.0923  0.8541 -0.0726
 2593TIP3   OH231973   3.388   2.135  17.098 -0.5616  0.1652 -0.2214
 2593TIP3    H131974   3.375   2.069  17.166 -0.0404  1.4553  1.1918
 2593TIP3    H231975   3.413   2.214  17.146 -0.2786  1.1556 -1.9202
 2594TIP3   OH231976   4.252   5.489  16.354 -0.0249 -0.0686 -0.2939
 2594TIP3    H131977   4.288   5.578  16.346  0.1128 -0.1686 -0.8241
 2594TIP3    H231978   4.328   5.432  16.343  0.1450 -0.2340  1.5472
 2595TIP3   OH231979   6.511   4.291  18.600  0.6559 -0.9190 -0.2706
 2595TIP3    H131980   6.522   4.306  18.506 -1.6040 -0.9577 -0.6066
 2595TIP3    H231981   6.526   4.197  18.611  3.4805 -0.5246 -0.0930
 2596TIP3   OH231982   6.436   2.961  17.237 -0.7817  0.0729  0.1197
 2596TIP3    H131983   6.346   2.934  17.252 -1.2113  0.4154 -1.5996
 2596TIP3    H231984   6.444   3.046  17.280 -1.9122  0.9804 -1.3627
 2597TIP3   OH231985   4.663   2.074  16.382 -0.6571 -0.0355 -0.1083
 2597TIP3    H131986   4.673   1.992  16.430 -1.6365  0.5329  1.0957
 2597TIP3    H231987   4.739   2.075  16.323 -0.6013 -1.7757 -0.1337
 2598TIP3   OH231988   0.155   5.344  17.972 -0.4934 -0.4410 -0.1492
 2598TIP3    H131989   0.100   5.406  18.021 -0.5183  0.5546 -1.4022
 2598TIP3    H231990   0.244   5.363  18.002 -0.5535 -0.1506 -0.1507
 2599TIP3   OH231991   7.483   5.287  17.524  0.0611  0.8586 -0.4543
 2599TIP3    H131992   7.502   5.331  17.442 -1.0220  0.7398 -0.7848
 2599TIP3    H231993   7.503   5.352  17.592  0.4641  1.1282 -0.8267
 2600TIP3   OH231994   6.497   1.112  17.271 -0.2004  0.5596  0.5375
 2600TIP3    H131995   6.587   1.085  17.290 -0.1965 -0.7297 -1.0730
 2600TIP3    H231996   6.495   1.121  17.175 -1.7624  0.6751  0.5666
 2601TIP3   OH231997   3.774   4.229  17.700 -0.1704 -0.0376  0.1840
 2601TIP3    H131998   3.745   4.222  17.609 -0.6381  2.0751  0.1296
 2601TIP3    H231999   3.869   4.212  17.695 -0.3630 -1.0402 -0.5071
 2602TIP3   OH232000   3.722   3.233  18.479 -0.3730 -0.0827  0.2232
 2602TIP3    H132001   3.713   3.286  18.400 -0.5876 -0.3942  0.0371
 2602TIP3    H232002   3.800   3.268  18.522  0.6279 -0.8684 -0.8777
 2603TIP3   OH232003   5.139   2.955  17.789 -0.0726 -0.1525  0.5062
 2603TIP3    H132004   5.095   3.020  17.845  0.4179  0.9214 -0.3213
 2603TIP3    H232005   5.081   2.879  17.792 -2.8787  1.6724 -1.7155
 2604TIP3   OH232006   2.093   1.797  18.672  0.4035 -0.1755  0.4166
 2604TIP3    H132007   2.032   1.858  18.712  0.1389 -0.4012  0.3615
 2604TIP3    H232008   2.179   1.836  18.686  0.1448  0.9015 -0.8564
 2605TIP3   OH232009   4.640   6.539  18.604  0.1277  0.1500  0.1447
 2605TIP3    H132010   4.720   6.589  18.585  1.0894 -0.7062  1.7104
 2605TIP3    H232011   4.571   6.605  18.610  0.5440  0.8440 -1.9168
 2606TIP3   OH232012   3.467   6.700  18.725  0.2373 -0.0544  0.1619
 2606TIP3    H132013   3.524   6.706  18.649  0.7290  0.5975  0.5693
 2606TIP3    H232014   3.475   6.785  18.767 -2.7980  0.9145 -0.9881
 2607TIP3   OH232015   6.093   5.675  17.959 -0.5593 -0.1824  0.9040
 2607TIP3    H132016   6.115   5.700  17.869 -0.0926 -2.8264  0.1862
 2607TIP3    H232017   6.166   5.705  18.012 -0.2537  0.3291  0.2026
 2608TIP3   OH232018   0.599   3.837  17.181  0.0977  0.0276  0.0204
 2608TIP3    H132019   0.655   3.789  17.243  1.3134  0.3743 -0.7709
 2608TIP3    H232020   0.584   3.775  17.110  0.1454  0.2120 -0.1494
 2609TIP3   OH232021   2.661   2.475  17.564 -0.8087  0.3027  0.2394
 2609TIP3    H132022   2.578   2.501  17.524 -0.2936 -0.0666 -1.1227
 2609TIP3    H232023   2.649   2.491  17.657 -2.5712 -0.1742  0.1234
 2610TIP3   OH232024   6.001   2.151  16.884 -0.2245  0.1228  0.3577
 2610TIP3    H132025   6.079   2.130  16.936 -0.3139  1.3254  1.0260
 2610TIP3    H232026   5.931   2.103  16.928 -0.2046  0.6988  1.0401
 2611TIP3   OH232027   3.581   6.564  16.786 -0.1169 -0.2240 -0.1749
 2611TIP3    H132028   3.493   6.555  16.750 -0.1472 -0.4779 -0.0363
 2611TIP3    H232029   3.628   6.616  16.721 -0.1189 -0.8379 -0.6757
 2612TIP3   OH232030   2.790   1.647  18.028 -0.1289 -0.0537  0.1213
 2612TIP3    H132031   2.826   1.708  17.964  1.4758 -2.0142 -0.9474
 2612TIP3    H232032   2.858   1.639  18.095 -1.2086  0.8800  1.4037
 2613TIP3   OH232033   2.248   3.781  16.344 -0.3386 -0.1560  0.4925
 2613TIP3    H132034   2.329   3.736  16.369 -0.3624 -0.0173  0.8199
 2613TIP3    H232035   2.272   3.874  16.344 -0.9698  0.0493  2.4257
 2614TIP3   OH232036   3.827   6.382  17.869 -0.6623 -0.2072  0.3407
 2614TIP3    H132037   3.905   6.329  17.858 -1.3914 -1.1088 -0.5890
 2614TIP3    H232038   3.755   6.319  17.875 -1.4867  0.6360 -0.3266
 2615TIP3   OH232039   4.329   5.343  16.612  0.2758 -0.0299  0.6484
 2615TIP3    H132040   4.358   5.405  16.545  0.7289  0.3122  1.1547
 2615TIP3    H232041   4.400   5.280  16.618 -0.2727 -0.7329 -0.0099
 2616TIP3   OH232042   5.508   7.655  16.149  0.0206  0.2036  0.4644
 2616TIP3    H132043   5.466   7.696  16.074  2.2797  1.6190 -0.1067
 2616TIP3    H232044   5.593   7.626  16.117  1.4063  1.5740  2.5882
 2617TIP3   OH232045   4.607   5.574  17.321 -0.5059  0.3632  0.1263
 2617TIP3    H132046   4.590   5.572  17.415  3.0578 -0.7561  0.8753
 2617TIP3    H232047   4.677   5.638  17.310 -0.9765  0.6217 -1.8540
 2618TIP3   OH232048   0.849   7.223  18.604  0.3318  0.4509 -0.2206
 2618TIP3    H132049   0.766   7.187  18.573  0.0141  1.1619 -0.2069
 2618TIP3    H232050   0.914   7.192  18.541  0.0088  0.1526 -0.4098
 2619TIP3   OH232051   6.872   4.235  17.429 -0.4628  0.2079  0.4517
 2619TIP3    H132052   6.797   4.267  17.379 -0.2233 -0.0637 -0.0926
 2619TIP3    H232053   6.898   4.155  17.383  1.2826  1.2443 -0.4546
 2620TIP3   OH232054   4.993   2.592  18.142  0.5653 -0.6572  0.2185
 2620TIP3    H132055   4.982   2.531  18.216 -1.3120 -1.3693 -0.5688
 2620TIP3    H232056   4.934   2.664  18.162 -1.4098 -1.7245 -1.3735
 2621TIP3   OH232057   6.872   0.982  17.476  0.4519  0.5629  0.4876
 2621TIP3    H132058   6.896   0.928  17.551  0.2774  2.1832  1.7692
 2621TIP3    H232059   6.780   0.961  17.461  1.4381 -2.7117 -1.9059
 2622TIP3   OH232060   0.226   2.797  16.738 -0.1323 -0.1311 -0.0701
 2622TIP3    H132061   0.209   2.826  16.827 -0.3979 -1.3315  0.2893
 2622TIP3    H232062   0.187   2.709  16.733 -1.1822  0.3648 -1.7221
 2623TIP3   OH232063   3.303   4.680  16.965  0.3056 -0.1813  0.2967
 2623TIP3    H132064   3.261   4.743  17.023  0.9910  0.7229 -0.1625
 2623TIP3    H232065   3.241   4.669  16.893 -0.1215 -0.5697  0.7197
 2624TIP3   OH232066   0.706   0.439  18.291 -0.0074  0.8476  0.2259
 2624TIP3    H132067   0.784   0.398  18.253 -1.0968 -1.8835  0.6973
 2624TIP3    H232068   0.739   0.491  18.364  1.4312  0.2875  0.0079
 2625TIP3   OH232069   5.545   5.753  17.002 -0.0934 -0.0935 -0.4511
 2625TIP3    H132070   5.534   5.728  17.094  0.9032 -1.8896 -0.7732
 2625TIP3    H232071   5.561   5.847  17.004  2.5071 -0.4642  1.4806
 2626TIP3   OH232072   6.702   7.306  16.282  0.4400 -0.3597 -0.2102
 2626TIP3    H132073   6.624   7.261  16.315  2.0338 -3.5843 -0.3640
 2626TIP3    H232074   6.669   7.384  16.238 -2.6384 -1.4118 -0.0018
 2627TIP3   OH232075   7.262   0.934  17.713  0.2974 -0.9085  0.1970
 2627TIP3    H132076   7.279   0.984  17.794 -0.2943 -0.3880  0.0084
 2627TIP3    H232077   7.174   0.898  17.725  0.9550 -2.4499  0.5942
 2628TIP3   OH232078   4.885   1.862  18.526 -0.6138  0.2199 -0.4450
 2628TIP3    H132079   4.970   1.865  18.482 -0.8725 -0.1274 -0.9815
 2628TIP3    H232080   4.900   1.810  18.605 -0.5572 -0.7419 -1.0726
 2629TIP3   OH232081   6.536   7.162  17.673 -0.1332  0.3757 -0.2052
 2629TIP3    H132082   6.463   7.145  17.733  1.1342 -2.1544  0.8001
 2629TIP3    H232083   6.614   7.139  17.724  1.3784  2.4135 -1.4372
 2630TIP3   OH232084   5.553   2.952  17.126 -0.3791  0.1027  0.1650
 2630TIP3    H132085   5.616   2.882  17.110 -1.7042 -0.9641 -0.6131
 2630TIP3    H232086   5.521   2.935  17.214 -1.4622 -0.9385 -0.4034
 2631TIP3   OH232087   5.556   7.564  17.502  0.1629 -0.8912  0.6142
 2631TIP3    H132088   5.578   7.654  17.523 -2.8034  0.1687 -0.3413
 2631TIP3    H232089   5.567   7.517  17.585  0.4044  0.6152  1.4724
 2632TIP3   OH232090   3.152   3.927  18.288 -0.2552 -0.7965  0.1825
 2632TIP3    H132091   3.056   3.919  18.291 -0.3729  0.6219  1.5973
 2632TIP3    H232092   3.180   3.853  18.234 -2.1212 -1.4270 -0.0186
 2633TIP3   OH232093   6.294   1.946  16.304 -0.2503 -0.3783  0.1361
 2633TIP3    H132094   6.222   1.887  16.286  0.3036 -1.3500  0.9737
 2633TIP3    H232095   6.301   2.002  16.226 -0.8912 -1.3046 -0.5986
 2634TIP3   OH232096   2.634   2.170  19.035 -0.1966 -0.1703 -0.4134
 2634TIP3    H132097   2.548   2.197  19.004 -1.6935 -2.6846  1.2087
 2634TIP3    H232098   2.671   2.248  19.076 -3.0475  0.2594  1.6099
 2635TIP3   OH232099   5.787   4.304  16.036 -0.3621  0.5413 -0.1152
 2635TIP3    H132100   5.692   4.313  16.039 -0.8862 -2.6304 -2.1503
 2635TIP3    H232101   5.812   4.343  15.952  0.0318  0.7242  0.0852
 2636TIP3   OH232102   5.684   1.757  17.133  0.1222  0.5186 -0.2583
 2636TIP3    H132103   5.590   1.756  17.149  0.4600  0.5290  2.0077
 2636TIP3    H232104   5.707   1.665  17.118 -0.2324  0.5206 -0.8495
 2637TIP3   OH232105   7.464   6.048  17.247  0.3003  0.5000 -0.3005
 2637TIP3    H132106   7.518   6.035  17.325  0.6817 -0.0112 -0.6397
 2637TIP3    H232107   7.456   5.961  17.208 -2.7681  0.0665  0.9971
 2638TIP3   OH232108   4.870   3.292  16.587  0.0511  0.2483  0.1551
 2638TIP3    H132109   4.948   3.306  16.533  0.3317 -0.2306  0.4264
 2638TIP3    H232110   4.901   3.305  16.677 -0.1015 -0.2569  0.2840
 2639TIP3   OH232111   4.581   7.622  17.692 -0.1649 -0.6878 -0.0104
 2639TIP3    H132112   4.598   7.668  17.610  0.5666 -1.5281 -0.3595
 2639TIP3    H232113   4.488   7.600  17.689 -0.4652  0.5429  0.0630
 2640TIP3   OH232114   3.108   3.399  17.810 -0.0562  0.2275 -0.1613
 2640TIP3    H132115   3.155   3.340  17.868  0.3300  0.9477  0.2819
 2640TIP3    H232116   3.032   3.427  17.861 -0.0474  0.3797 -0.2302
 2641TIP3   OH232117   2.588   2.062  16.443  0.1930 -0.0534 -0.0010
 2641TIP3    H132118   2.573   1.973  16.477  0.6961 -0.9530 -1.9743
 2641TIP3    H232119   2.683   2.068  16.434  0.0894  0.1039 -1.2287
 2642TIP3   OH232120   1.460   3.058  18.549 -0.5807  0.9168 -0.0031
 2642TIP3    H132121   1.411   2.995  18.601 -1.1903  1.1775 -0.2574
 2642TIP3    H232122   1.542   3.071  18.598 -0.3248 -0.2646 -0.0878
 2643TIP3   OH232123   4.762   4.160  16.588  0.3972  0.0282  0.4733
 2643TIP3    H132124   4.843   4.144  16.540 -0.1805 -1.5245 -0.0452
 2643TIP3    H232125   4.785   4.149  16.680  0.3173 -2.9577  0.2253
 2644TIP3   OH232126   2.553   0.916  18.195 -0.2434  0.6985  0.0197
 2644TIP3    H132127   2.581   0.838  18.244 -2.8576  0.0661  0.6562
 2644TIP3    H232128   2.537   0.884  18.106 -0.4319  0.7111  0.0482
 2645TIP3   OH232129   7.262   2.587  16.972  0.3677  0.0968  0.2553
 2645TIP3    H132130   7.350   2.559  16.998 -0.3100 -2.6026 -0.0122
 2645TIP3    H232131   7.218   2.608  17.055  0.5743 -0.9199  0.6459
 2646TIP3   OH232132   0.532   5.432  16.311 -0.2282 -0.2689 -0.0770
 2646TIP3    H132133   0.595   5.363  16.291  0.5273 -0.5432  2.7971
 2646TIP3    H232134   0.584   5.513  16.312  0.6820 -0.6848  3.9541
 2647TIP3   OH232135   6.827   0.251  18.330  0.1046  0.1799 -0.3341
 2647TIP3    H132136   6.828   0.156  18.337 -1.2413  0.2618  2.0625
 2647TIP3    H232137   6.736   0.273  18.308 -1.0006  0.9905  4.0768
 2648TIP3   OH232138   0.047   1.947  16.377 -0.1203 -0.3418  0.0929
 2648TIP3    H132139   0.068   1.985  16.292  2.2195 -0.6439  0.4796
 2648TIP3    H232140   0.100   1.997  16.440 -1.6011 -0.2920  1.3899
 2649TIP3   OH232141   7.373   0.811  17.098  0.6530  0.0910  0.1865
 2649TIP3    H132142   7.427   0.746  17.053 -1.4456 -1.0976 -0.7966
 2649TIP3    H232143   7.299   0.825  17.039  0.0777  1.9526  1.2727
 2650TIP3   OH232144   5.757   0.720  18.645  0.5515  0.4178  0.3844
 2650TIP3    H132145   5.709   0.803  18.637 -2.0297 -0.9004  0.9784
 2650TIP3    H232146   5.734   0.688  18.732 -0.4716 -1.9802 -0.6744
 2651TIP3   OH232147   5.207   0.871  17.886 -0.0782 -0.3596 -0.4437
 2651TIP3    H132148   5.293   0.907  17.910 -0.5424  0.6503 -0.2677
 2651TIP3    H232149   5.168   0.938  17.830 -0.7978 -0.7685 -0.4314
 2652TIP3   OH232150   6.839   5.916  17.382 -0.6483 -0.3726  0.4032
 2652TIP3    H132151   6.918   5.868  17.407 -0.5796 -0.4651  0.0085
 2652TIP3    H232152   6.788   5.922  17.463 -1.0782 -1.8814  0.2756
 2653TIP3   OH232153   5.293   6.652  16.917 -0.0628  0.8437 -0.5556
 2653TIP3    H132154   5.349   6.728  16.933  0.2684  0.7879 -1.4330
 2653TIP3    H232155   5.236   6.678  16.845 -2.1073  1.3768  1.1480
 2654TIP3   OH232156   1.790   6.020  17.347  0.6043 -0.2319 -0.2521
 2654TIP3    H132157   1.697   6.032  17.367  0.3065  1.1433 -2.2355
 2654TIP3    H232158   1.792   5.954  17.277  1.1675 -0.5796  0.0801
 2655TIP3   OH232159   6.361   4.033  18.206  0.3105  0.7424  0.1103
 2655TIP3    H132160   6.383   3.968  18.140 -1.2629  0.2143  0.0659
 2655TIP3    H232161   6.424   4.018  18.276 -1.1893 -2.2583  1.0020
 2656TIP3   OH232162   2.207   1.527  16.940  0.2516  0.2026  0.2910
 2656TIP3    H132163   2.119   1.531  16.977  0.7997  0.3989  1.6405
 2656TIP3    H232164   2.207   1.591  16.870 -0.6660  0.2333  0.3131
 2657TIP3   OH232165   2.736   5.517  16.660 -0.0000 -0.4551 -0.0016
 2657TIP3    H132166   2.750   5.611  16.651 -0.2793 -0.5271 -1.3625
 2657TIP3    H232167   2.823   5.478  16.654 -0.0786 -0.4282 -1.7385
 2658TIP3   OH232168   3.044   1.360  17.548  0.0443  0.3493  0.3973
 2658TIP3    H132169   3.033   1.266  17.531  1.4113  0.2479 -0.0814
 2658TIP3    H232170   3.036   1.368  17.643  1.6137 -0.5515  0.6421
 2659TIP3   OH232171   4.040   2.141  16.575  0.4396  0.1276 -0.3329
 2659TIP3    H132172   3.992   2.072  16.621  0.1415  0.3228 -0.3489
 2659TIP3    H232173   4.093   2.183  16.643  2.3092 -1.5142 -0.6944
 2660TIP3   OH232174   2.999   1.429  18.288 -0.5798 -0.0481 -0.0363
 2660TIP3    H132175   2.936   1.357  18.292  0.0605 -0.5903  2.0642
 2660TIP3    H232176   3.076   1.395  18.334  0.4663  1.3188 -0.7183
 2661TIP3   OH232177   1.380   0.975  16.525 -0.0599  0.1371 -0.3512
 2661TIP3    H132178   1.329   1.032  16.583 -2.4070 -1.0989 -1.0369
 2661TIP3    H232179   1.454   1.028  16.497 -0.1118  1.5425  1.9286
 2662TIP3   OH232180   4.185   6.282  16.734 -0.3317 -0.9044  0.0381
 2662TIP3    H132181   4.144   6.364  16.761 -1.7584 -2.0256  1.4421
 2662TIP3    H232182   4.229   6.304  16.652 -1.0134  1.1522  0.1477
 2663TIP3   OH232183   6.503   3.176  17.382 -0.1997 -0.0913  0.7941
 2663TIP3    H132184   6.482   3.262  17.345 -2.4807 -1.7613 -2.3228
 2663TIP3    H232185   6.599   3.174  17.384 -0.0257  1.7773 -1.1948
 2664TIP3   OH232186   6.512   2.351  16.481  0.1258 -0.7411 -0.1320
 2664TIP3    H132187   6.532   2.274  16.534  0.3746 -0.3363  0.3755
 2664TIP3    H232188   6.595   2.397  16.472  0.0905 -0.8208 -0.9100
 2665TIP3   OH232189   2.630   6.087  18.009 -0.4717  0.5254  0.4564
 2665TIP3    H132190   2.719   6.052  18.004 -0.5271  0.4367  0.0502
 2665TIP3    H232191   2.627   6.133  18.093 -0.0088  0.6248  0.4240
 2666TIP3   OH232192   1.502   0.697  17.074  0.1432 -0.1213  0.0342
 2666TIP3    H132193   1.587   0.658  17.054  0.0175  0.2865 -1.4314
 2666TIP3    H232194   1.521   0.767  17.136  1.1247  0.9792 -1.4535
 2667TIP3   OH232195   5.874   6.097  16.368  0.3288 -0.3894  0.6573
 2667TIP3    H132196   5.951   6.121  16.315  0.8767  0.8931  1.9561
 2667TIP3    H232197   5.809   6.164  16.346  0.1780 -0.4863  0.8152
 2668TIP3   OH232198   2.441   6.312  18.460  0.6009  0.5285 -0.4322
 2668TIP3    H132199   2.364   6.260  18.481  0.1373  1.0514 -0.7990
 2668TIP3    H232200   2.472   6.343  18.545 -0.4353  1.4716 -0.3701
 2669TIP3   OH232201   6.333   3.398  18.611 -1.0871  0.9283 -0.7430
 2669TIP3    H132202   6.407   3.356  18.567 -1.6415 -0.9220 -0.0140
 2669TIP3    H232203   6.372   3.473  18.656  0.4765 -0.3129  0.0896
 2670TIP3   OH232204   5.116   0.648  18.875 -0.3521 -0.5810  0.0400
 2670TIP3    H132205   5.077   0.602  18.949  0.3710 -1.6870 -0.2393
 2670TIP3    H232206   5.046   0.652  18.809 -1.6226  2.0593  1.3800
 2671TIP3   OH232207   6.616   1.465  16.413  0.1732 -0.4700  0.4118
 2671TIP3    H132208   6.706   1.453  16.382  0.5359  0.3435  1.1079
 2671TIP3    H232209   6.594   1.555  16.391 -0.5965 -0.7628 -0.0444
 2672TIP3   OH232210   3.010   0.370  16.304  0.4405 -0.3123  0.6452
 2672TIP3    H132211   3.090   0.421  16.298  0.4058 -0.0985  1.7710
 2672TIP3    H232212   2.939   0.435  16.305  0.3326 -0.4317  0.9672
 2673TIP3   OH232213   7.519   7.607  17.075  0.3227 -0.1026  0.1716
 2673TIP3    H132214   7.559   7.573  16.995  0.8044  0.1497  0.2981
 2673TIP3    H232215   7.456   7.540  17.101 -0.7156  0.3436 -1.0698
 2674TIP3   OH232216   6.495   6.530  17.513 -0.2671 -0.2109  0.3891
 2674TIP3    H132217   6.490   6.625  17.517 -0.1509 -0.2363  1.2715
 2674TIP3    H232218   6.478   6.509  17.421  0.8289  0.7276 -0.0484
 2675TIP3   OH232219   3.598   2.128  17.300 -0.4084 -1.0473 -0.0090
 2675TIP3    H132220   3.609   2.092  17.388  0.2688 -0.6873  0.0574
 2675TIP3    H232221   3.530   2.195  17.311  0.1143 -0.5663  0.3747
 2676TIP3   OH232222   4.460   0.907  16.896 -0.2049  0.3209  0.6917
 2676TIP3    H132223   4.379   0.936  16.853  0.1832  1.3272  0.6052
 2676TIP3    H232224   4.433   0.885  16.985 -0.7936 -0.5608  0.3033
 2677TIP3   OH232225   4.872   4.110  16.821 -0.2642  0.2022  0.4488
 2677TIP3    H132226   4.817   4.034  16.842 -0.8032  0.6968  0.8657
 2677TIP3    H232227   4.956   4.091  16.863 -0.4291 -0.1162  0.6409
 2678TIP3   OH232228   2.053   2.876  18.186 -0.2897  0.3277  0.3886
 2678TIP3    H132229   2.126   2.924  18.146 -0.1564  0.7882  1.1652
 2678TIP3    H232230   2.001   2.846  18.112  1.9583 -2.1126 -0.3908
 2679TIP3   OH232231   2.028   4.206  16.381  0.0400 -0.1159 -0.6003
 2679TIP3    H132232   2.047   4.295  16.411 -2.5638 -0.0378  1.0828
 2679TIP3    H232233   2.087   4.150  16.432 -0.2879  0.4600  0.4266
 2680TIP3   OH232234   1.279   2.384  17.211  0.3795  0.3782  0.0628
 2680TIP3    H132235   1.331   2.346  17.141 -0.6198  1.4997 -1.3435
 2680TIP3    H232236   1.338   2.446  17.254  0.2390  1.7543 -1.6145
 2681TIP3   OH232237   6.035   0.437  18.696 -0.3345  0.1939  0.6699
 2681TIP3    H132238   6.013   0.528  18.673  2.7655  1.6459  2.7135
 2681TIP3    H232239   5.978   0.417  18.770  0.9245  1.6709  2.1197
 2682TIP3   OH232240   5.983   2.678  18.001 -0.2877 -0.9176  0.2742
 2682TIP3    H132241   5.891   2.650  18.001 -0.3540 -0.7355  1.0637
 2682TIP3    H232242   5.992   2.729  18.081  0.5541 -1.0847  0.2935
 2683TIP3   OH232243   0.551   0.348  17.120  0.5599 -0.3281  0.0912
 2683TIP3    H132244   0.548   0.436  17.081  3.0878 -0.6765 -1.1328
 2683TIP3    H232245   0.543   0.363  17.214  1.4886  1.3024 -0.0456
 2684TIP3   OH232246   5.922   3.549  17.621 -0.5711 -0.2792  0.5747
 2684TIP3    H132247   6.012   3.571  17.648 -0.7880  0.1744  0.9376
 2684TIP3    H232248   5.886   3.631  17.589 -0.4386 -0.7364 -0.7910
 2685TIP3   OH232249   1.154   4.383  16.594 -0.1338 -0.2154  0.2659
 2685TIP3    H132250   1.217   4.316  16.567 -0.7908 -0.0036 -2.0004
 2685TIP3    H232251   1.081   4.334  16.631  1.1642 -0.4737  2.6931
 2686TIP3   OH232252   0.291   2.979  17.629  0.2265 -0.2593 -0.0213
 2686TIP3    H132253   0.309   2.898  17.676  1.4956 -0.9218 -1.5620
 2686TIP3    H232254   0.292   3.047  17.697  0.2054 -1.3861  1.1410
 2687TIP3   OH232255   1.241   3.570  18.271  0.2193 -0.4038  0.1104
 2687TIP3    H132256   1.231   3.637  18.339  0.3403  0.2122 -0.4646
 2687TIP3    H232257   1.306   3.606  18.211 -0.8392 -0.3375 -1.0408
 2688TIP3   OH232258   4.127   1.224  18.415  0.7991  0.3852 -0.4171
 2688TIP3    H132259   4.043   1.181  18.426 -0.0528  2.0120 -0.3052
 2688TIP3    H232260   4.112   1.290  18.347  1.6874  1.3935  0.3353
 2689TIP3   OH232261   6.209   6.608  15.942  0.2831 -0.2732  0.0034
 2689TIP3    H132262   6.184   6.691  15.902 -2.4775 -0.6736  0.6638
 2689TIP3    H232263   6.229   6.629  16.033  0.1288 -0.2522  0.0330
 2690TIP3   OH232264   7.516   1.067  17.795  0.1249  0.6272 -0.2972
 2690TIP3    H132265   7.578   1.052  17.724  0.8262  0.7422  0.2835
 2690TIP3    H232266   7.459   1.137  17.762 -0.5428 -0.3645 -1.3517
 2691TIP3   OH232267   1.168   5.293  18.062  0.4888  1.0957 -0.2768
 2691TIP3    H132268   1.171   5.198  18.060  1.1186  1.0404  1.5093
 2691TIP3    H232269   1.125   5.314  18.145  0.6838  2.3661 -0.4732
 2692TIP3   OH232270   4.935   5.092  17.764 -0.0231 -0.1406  0.4834
 2692TIP3    H132271   4.883   5.052  17.834  0.6588 -0.2443  0.9472
 2692TIP3    H232272   5.003   5.140  17.811 -0.4533  1.0557 -0.0787
 2693TIP3   OH232273   5.131   2.495  16.379  0.6968  0.1992 -0.1411
 2693TIP3    H132274   5.196   2.426  16.392 -2.0115 -2.5229  0.1610
 2693TIP3    H232275   5.124   2.504  16.284  0.5658 -0.5000 -0.2014
 2694TIP3   OH232276   6.694   2.445  17.628  0.2932 -0.2284  0.0194
 2694TIP3    H132277   6.786   2.456  17.650  0.2014 -0.2801  0.4290
 2694TIP3    H232278   6.665   2.370  17.680 -0.1063  0.0973  0.2752
 2695TIP3   OH232279   6.094   6.044  16.567 -0.7711 -0.5714 -0.1373
 2695TIP3    H132280   6.125   6.133  16.549 -2.7603  0.2013 -0.0389
 2695TIP3    H232281   6.012   6.037  16.518 -1.3011 -1.8957  0.8790
 2696TIP3   OH232282   6.207   0.244  18.619  0.1805 -0.3828 -0.9605
 2696TIP3    H132283   6.160   0.326  18.638 -0.8424 -0.7213 -1.9068
 2696TIP3    H232284   6.297   0.261  18.646  0.8887  2.3659 -4.2955
 2697TIP3   OH232285   4.847   5.943  16.456 -0.2578 -0.3812  0.0281
 2697TIP3    H132286   4.794   6.018  16.427 -0.8968 -0.4435  0.9922
 2697TIP3    H232287   4.802   5.867  16.418 -1.2575 -0.4855  1.3622
 2698TIP3   OH232288   4.335   6.228  18.392 -0.1478 -0.3192 -1.0550
 2698TIP3    H132289   4.420   6.267  18.414 -1.0792  1.5090 -0.5794
 2698TIP3    H232290   4.279   6.250  18.466 -0.6672 -2.9121 -0.5751
 2699TIP3   OH232291   6.731   0.491  17.630  0.3842 -0.4098  0.9465
 2699TIP3    H132292   6.760   0.520  17.543  0.7539 -0.8210  0.9275
 2699TIP3    H232293   6.638   0.469  17.619  0.5245 -0.8363  0.5533
 2700TIP3   OH232294   3.244   0.130  17.263 -0.1856 -0.2937  0.8663
 2700TIP3    H132295   3.269   0.060  17.202  0.6341  0.9032 -0.2342
 2700TIP3    H232296   3.207   0.084  17.338 -2.7547 -1.8271 -1.1469
 2701TIP3   OH232297   4.578   2.565  18.954  0.1636  0.1605 -0.1036
 2701TIP3    H132298   4.485   2.545  18.950  0.2608 -0.3010 -0.0846
 2701TIP3    H232299   4.588   2.619  19.032 -0.0989  0.2726 -0.1490
 2702TIP3   OH232300   6.847   0.801  17.699 -0.3361 -0.6902 -0.1461
 2702TIP3    H132301   6.831   0.867  17.766 -0.3181 -1.2240  0.3854
 2702TIP3    H232302   6.792   0.727  17.724 -0.9271 -0.6112 -1.1506
 2703TIP3   OH232303   2.073   5.739  18.085 -0.3117 -0.2375 -0.3749
 2703TIP3    H132304   2.050   5.767  17.997 -0.0597 -0.3319 -0.4702
 2703TIP3    H232305   2.009   5.672  18.107 -0.7490  0.2143 -0.2541
 2704TIP3   OH232306   1.367   4.360  16.412  0.1019 -0.1607  0.0116
 2704TIP3    H132307   1.387   4.399  16.327  0.1441 -1.0754 -0.4007
 2704TIP3    H232308   1.296   4.299  16.395  0.8974 -1.2366  0.4019
 2705TIP3   OH232309   1.276   5.625  17.758 -0.0887 -0.4611  0.1973
 2705TIP3    H132310   1.235   5.638  17.673 -0.9420  0.3736  0.7091
 2705TIP3    H232311   1.287   5.530  17.765  0.2875 -0.5190 -0.9627
 2706TIP3   OH232312   6.655   6.151  17.427 -0.2879 -0.1865 -0.2297
 2706TIP3    H132313   6.693   6.218  17.484  1.1242 -1.6276  0.6200
 2706TIP3    H232314   6.694   6.166  17.342  2.0041 -1.3817  0.5343
 2707TIP3   OH232315   2.771   3.406  17.381  0.2998  0.0011  0.3574
 2707TIP3    H132316   2.680   3.404  17.410  0.6037 -1.2241  1.2567
 2707TIP3    H232317   2.816   3.461  17.446  0.4764 -0.5975  0.7477
 2708TIP3   OH232318   6.318   1.559  18.000 -0.1744  0.6455 -0.1676
 2708TIP3    H132319   6.292   1.644  17.964  0.7521  0.6993 -0.7470
 2708TIP3    H232320   6.249   1.499  17.971 -0.4680  1.0605 -0.3524
 2709TIP3   OH232321   7.513   4.407  18.303 -0.0012  0.6158 -0.9844
 2709TIP3    H132322   7.599   4.404  18.345 -0.6559 -0.3063  0.3499
 2709TIP3    H232323   7.513   4.332  18.243  0.4955  1.2492 -1.8075
 2710TIP3   OH232324   1.086   2.624  18.163  0.0290 -0.5222 -0.2572
 2710TIP3    H132325   1.043   2.672  18.093  0.8101  1.3455  0.4827
 2710TIP3    H232326   1.168   2.672  18.179  0.8845 -2.1287  0.5050
 2711TIP3   OH232327   1.770   0.132  16.566  0.1094  0.4491 -0.2320
 2711TIP3    H132328   1.794   0.041  16.585  0.0768  0.6638  0.9448
 2711TIP3    H232329   1.680   0.126  16.533  0.7839 -0.1057 -2.0581
 2712TIP3   OH232330   2.700   1.317  17.021 -0.2797  0.5472  0.0196
 2712TIP3    H132331   2.717   1.365  16.940 -1.9841 -0.5339 -1.0450
 2712TIP3    H232332   2.787   1.297  17.056  0.4830  2.0789 -0.8890
 2713TIP3   OH232333   2.405   2.438  16.555 -0.0189 -0.1522 -0.5722
 2713TIP3    H132334   2.428   2.408  16.643  0.0631  1.2480 -0.0975
 2713TIP3    H232335   2.364   2.523  16.568 -0.5835 -0.1992 -1.8516
 2714TIP3   OH232336   6.694   7.316  18.085  0.3540  0.0715 -0.4995
 2714TIP3    H132337   6.673   7.408  18.103 -1.6795 -0.3886 -0.3154
 2714TIP3    H232338   6.704   7.312  17.990  0.6080  0.4966 -0.4948
 2715TIP3   OH232339   3.112   6.643  16.837 -0.0580 -0.3870 -0.1105
 2715TIP3    H132340   3.120   6.737  16.850  0.0586 -0.0827 -2.0857
 2715TIP3    H232341   3.069   6.611  16.917  1.8466  0.9764  1.5431
 2716TIP3   OH232342   1.634   5.380  16.653 -0.9650  0.1203  0.3814
 2716TIP3    H132343   1.583   5.302  16.675  0.8453 -1.1359  0.3599
 2716TIP3    H232344   1.689   5.395  16.730  1.3930 -0.9337 -0.9970
 2717TIP3   OH232345   1.489   5.817  16.404 -0.4123  0.0345 -0.3279
 2717TIP3    H132346   1.419   5.860  16.355 -1.2474  0.7953  1.4454
 2717TIP3    H232347   1.462   5.725  16.409 -0.8308  0.1510 -0.4289
 2718TIP3   OH232348   3.548   5.676  16.361 -0.3474  0.0596 -0.1568
 2718TIP3    H132349   3.606   5.665  16.436 -1.2785 -0.3711  0.5264
 2718TIP3    H232350   3.531   5.587  16.330  1.6520  0.3129 -2.2040
 2719TIP3   OH232351   4.240   4.402  16.940  0.4942  0.3051  1.0724
 2719TIP3    H132352   4.233   4.339  16.868 -1.1354 -2.8163  3.6954
 2719TIP3    H232353   4.333   4.401  16.963  0.8159  0.3833 -0.1273
 2720TIP3   OH232354   4.321   0.269  17.820 -0.4946  0.2210 -0.0266
 2720TIP3    H132355   4.236   0.249  17.781 -0.6255 -0.3249  0.5315
 2720TIP3    H232356   4.376   0.294  17.745 -0.8860 -0.3271 -0.5049
 2721TIP3   OH232357   4.129   1.662  17.752 -0.2938 -0.1185  0.5182
 2721TIP3    H132358   4.084   1.733  17.798 -0.4320 -0.2897  0.6504
 2721TIP3    H232359   4.216   1.659  17.791 -0.2357  0.0814  0.4037
 2722TIP3   OH232360   7.536   4.177  16.548 -0.2192 -0.1896  0.1610
 2722TIP3    H132361   7.565   4.227  16.624  1.5288 -0.0411 -0.5585
 2722TIP3    H232362   7.515   4.244  16.482  0.8265 -0.3360 -0.3488
 2723TIP3   OH232363   3.282   7.049  18.643 -0.8653 -0.4516 -0.5625
 2723TIP3    H132364   3.345   7.088  18.704 -1.6311 -1.9891  1.3314
 2723TIP3    H232365   3.336   6.997  18.583 -0.2473 -2.6709  1.7116
 2724TIP3   OH232366   4.046   7.291  18.038 -0.2161 -0.1021 -0.4583
 2724TIP3    H132367   4.001   7.261  17.960 -2.6885  1.0729  0.4159
 2724TIP3    H232368   4.026   7.385  18.043 -0.9143 -0.3047  2.0165
 2725TIP3   OH232369   2.843   2.324  18.319  0.4501  0.2760  0.2454
 2725TIP3    H132370   2.860   2.418  18.311 -0.4675  0.5045  0.8458
 2725TIP3    H232371   2.871   2.288  18.235 -1.8476  1.5094 -1.1573
 2726TIP3   OH232372   7.247   2.010  17.376  0.4260  0.0755  0.6270
 2726TIP3    H132373   7.218   1.937  17.321 -1.3293 -0.1869  1.8405
 2726TIP3    H232374   7.177   2.022  17.439  1.2735  1.9933  1.2705
 2727TIP3   OH232375   0.441   0.004  17.692  0.1134 -0.3979  0.4000
 2727TIP3    H132376   0.354  -0.019  17.722  0.8396 -2.2774  1.2255
 2727TIP3    H232377   0.430   0.026  17.599 -1.3455  0.2986  0.7126
 2728TIP3   OH232378   0.340   2.904  16.044  0.2329  0.3551  0.4157
 2728TIP3    H132379   0.390   2.948  16.112 -0.2705  1.9103 -0.1905
 2728TIP3    H232380   0.251   2.939  16.053 -0.2175 -0.6171 -0.0334
 2729TIP3   OH232381   2.782   7.092  16.818  0.1952 -0.3494 -0.2563
 2729TIP3    H132382   2.865   7.138  16.825 -0.1476  0.6443 -1.9927
 2729TIP3    H232383   2.716   7.157  16.841 -0.4414  0.8889 -4.6416
 2730TIP3   OH232384   0.756   5.523  17.814  0.0085  0.2485  0.0339
 2730TIP3    H132385   0.824   5.482  17.868 -0.6596  2.5724  2.9407
 2730TIP3    H232386   0.779   5.616  17.813 -2.5410  0.9736  0.3495
 2731TIP3   OH232387   0.678   1.740  18.237 -0.2050 -0.2725  0.2863
 2731TIP3    H132388   0.586   1.728  18.213 -1.0605 -0.8895  3.4149
 2731TIP3    H232389   0.712   1.651  18.247  0.2782 -0.0621  0.5561
 2732TIP3   OH232390   1.784   3.134  16.987 -0.0300 -0.0121  0.4324
 2732TIP3    H132391   1.797   3.112  16.895 -0.1115 -0.3514  0.5021
 2732TIP3    H232392   1.690   3.126  17.001 -0.0014 -0.0892  0.5799
 2733TIP3   OH232393   6.267   4.820  16.658  0.3688 -0.3488 -0.0391
 2733TIP3    H132394   6.186   4.785  16.619  1.5975 -0.5935 -2.5735
 2733TIP3    H232395   6.320   4.743  16.678  0.3213 -0.1549  0.8932
 2734TIP3   OH232396   5.631   5.775  17.983 -0.3274 -0.1507 -0.5111
 2734TIP3    H132397   5.694   5.738  17.922 -0.4313  1.7448 -1.8813
 2734TIP3    H232398   5.546   5.765  17.939 -0.6839 -0.5434  0.2411
 2735TIP3   OH232399   0.073   5.296  16.957 -0.0457 -0.3471 -0.2620
 2735TIP3    H132400   0.065   5.378  17.006  1.6691 -0.3417  0.0903
 2735TIP3    H232401   0.064   5.322  16.866  0.8560  0.3244 -0.1784
 2736TIP3   OH232402   3.996   0.815  17.559  0.0321  0.1589  0.0424
 2736TIP3    H132403   4.038   0.761  17.626 -1.1297  1.2812  1.7507
 2736TIP3    H232404   3.949   0.752  17.504  0.0493 -0.7009  0.9826
 2737TIP3   OH232405   4.328   5.527  15.995  0.3822  0.2152 -0.1724
 2737TIP3    H132406   4.246   5.572  15.974 -0.0198  0.1616  1.1583
 2737TIP3    H232407   4.301   5.452  16.048  1.0666 -1.5172 -2.1790
 2738TIP3   OH232408   4.509   5.972  16.547 -0.0176  0.4990 -0.1845
 2738TIP3    H132409   4.566   5.906  16.588 -0.6297  0.0973  0.0218
 2738TIP3    H232410   4.516   6.049  16.604  0.5889  0.5748 -0.3495
 2739TIP3   OH232411   2.724   3.071  17.584 -0.4603 -0.0760 -0.0650
 2739TIP3    H132412   2.801   3.016  17.573  0.3624  0.6813  1.5753
 2739TIP3    H232413   2.651   3.010  17.588 -0.0981 -0.7661 -2.3627
 2740TIP3   OH232414   4.304   2.533  16.818 -0.1761 -0.2051  0.0497
 2740TIP3    H132415   4.254   2.575  16.888  2.4850  1.4313  1.1146
 2740TIP3    H232416   4.364   2.474  16.863  0.1383 -0.7323 -1.0260
 2741TIP3   OH232417   3.365   6.077  17.122  0.3846 -0.0676  0.2512
 2741TIP3    H132418   3.335   6.095  17.033  2.1354 -0.7749 -0.5274
 2741TIP3    H232419   3.315   6.000  17.149 -0.7478  0.6329  0.2286
 2742TIP3   OH232420   1.210   0.178  17.129  0.3363  0.2779  0.7384
 2742TIP3    H132421   1.235   0.266  17.100  1.1497  0.3366  1.5775
 2742TIP3    H232422   1.269   0.120  17.079 -0.4158  0.1732 -0.0519
 2743TIP3   OH232423   4.379   0.453  18.351  0.0744  0.9484 -0.3620
 2743TIP3    H132424   4.310   0.399  18.314  0.2207  0.7685 -0.3747
 2743TIP3    H232425   4.431   0.393  18.405 -0.1099  1.2012  0.1001
 2744TIP3   OH232426   4.557   1.141  18.490 -0.5607 -0.1547  0.4732
 2744TIP3    H132427   4.490   1.204  18.465 -0.4524 -0.1281  0.2499
 2744TIP3    H232428   4.634   1.167  18.440 -0.4927 -0.4124  0.4442
 2745TIP3   OH232429   6.872   0.407  17.840 -0.2012 -0.2313 -0.2308
 2745TIP3    H132430   6.958   0.418  17.798  0.2301 -0.2765  0.6126
 2745TIP3    H232431   6.809   0.429  17.771  0.4683 -0.8676 -1.0696
 2746TIP3   OH232432   3.311   4.220  16.920  0.2140 -0.0022 -0.1819
 2746TIP3    H132433   3.396   4.263  16.923  0.0145  0.3508  1.3554
 2746TIP3    H232434   3.249   4.288  16.948 -0.2448 -0.9630  1.2135
 2747TIP3   OH232435   5.796   3.436  18.064  0.0844 -0.2436  0.1628
 2747TIP3    H132436   5.727   3.398  18.118  0.1054 -0.3731  0.0985
 2747TIP3    H232437   5.830   3.362  18.013  0.9982 -0.3979  0.9698
 2748TIP3   OH232438   3.877   2.312  16.423 -0.1347  0.0898  0.0295
 2748TIP3    H132439   3.856   2.289  16.333  1.2253  0.5902 -0.4530
 2748TIP3    H232440   3.920   2.234  16.458 -0.1291  0.1014  0.0490
 2749TIP3   OH232441   2.140   6.443  15.978  0.1845  0.1586 -0.1034
 2749TIP3    H132442   2.116   6.494  16.056 -2.6082  0.6565 -1.2042
 2749TIP3    H232443   2.203   6.499  15.932 -2.0289  2.2889 -0.7612
 2750TIP3   OH232444   7.318   3.779  17.986  0.0686  0.1061  0.4599
 2750TIP3    H132445   7.274   3.724  18.050  1.8527 -0.5328  1.2053
 2750TIP3    H232446   7.272   3.763  17.904 -1.7595  0.3381  1.3941
 2751TIP3   OH232447   0.808   3.827  16.873 -0.3731  0.0853  0.1658
 2751TIP3    H132448   0.756   3.748  16.861 -1.5360  0.9267 -0.6233
 2751TIP3    H232449   0.860   3.810  16.951 -1.7592 -0.8546  0.9279
 2752TIP3   OH232450   4.221   4.192  16.741 -0.2256  0.7639  0.1710
 2752TIP3    H132451   4.168   4.249  16.685 -0.2264  0.7834  0.1922
 2752TIP3    H232452   4.223   4.108  16.695  1.6903  1.4092 -1.0626
 2753TIP3   OH232453   2.385   0.236  18.231  0.2508 -0.1737  0.2233
 2753TIP3    H132454   2.400   0.311  18.288  0.1791 -0.5667  0.7707
 2753TIP3    H232455   2.323   0.267  18.166 -1.3514 -0.3051  1.5998
 2754TIP3   OH232456   1.641   1.764  17.299  0.0255  0.6976 -0.4535
 2754TIP3    H132457   1.585   1.839  17.279  0.4672  1.0819 -0.2662
 2754TIP3    H232458   1.722   1.780  17.250  0.0474  0.2475 -0.5655
 2755TIP3   OH232459   2.842   2.194  16.785 -0.4145  0.3757 -0.5959
 2755TIP3    H132460   2.886   2.278  16.777 -0.4998  0.6095  0.9934
 2755TIP3    H232461   2.760   2.214  16.830 -1.3925 -0.2880 -2.0270
 2756TIP3   OH232462   0.864   5.300  18.848 -0.4164 -0.0542 -0.2835
 2756TIP3    H132463   0.803   5.249  18.901  0.4184  1.0827  1.9375
 2756TIP3    H232464   0.817   5.380  18.826  0.1586  0.8239  1.4313
 2757TIP3   OH232465   6.063   4.906  17.196  0.1030 -0.1680 -0.0172
 2757TIP3    H132466   6.098   4.868  17.115  0.9086  1.2194 -0.3520
 2757TIP3    H232467   5.989   4.960  17.167  0.3645  0.2967  0.1689
 2758TIP3   OH232468   2.993   1.602  16.916  0.0584 -0.0594  0.1929
 2758TIP3    H132469   2.953   1.658  16.982  1.1382  1.8730 -0.7123
 2758TIP3    H232470   3.055   1.548  16.966 -0.8499 -0.3501  1.0497
 2759TIP3   OH232471   5.270   3.726  15.968  0.4792 -0.2110 -0.4772
 2759TIP3    H132472   5.274   3.630  15.966 -0.4580 -0.3320  1.2777
 2759TIP3    H232473   5.176   3.746  15.970  0.6435  0.6119  1.3547
 2760TIP3   OH232474   0.783   1.037  18.545 -0.5398  0.3685 -0.3496
 2760TIP3    H132475   0.808   1.120  18.502  1.1983  1.1210  1.9358
 2760TIP3    H232476   0.699   1.057  18.587 -0.5944  0.6665 -0.5875
 2761TIP3   OH232477   1.048   2.664  17.639 -0.2190  0.1773 -0.1601
 2761TIP3    H132478   1.125   2.621  17.604 -1.7189 -1.9165 -1.1105
 2761TIP3    H232479   0.983   2.594  17.647 -2.0091  1.8345  0.6460
 2762TIP3   OH232480   7.425   5.541  17.676 -0.0909  0.2819  0.0428
 2762TIP3    H132481   7.372   5.589  17.739 -0.4091  1.3939 -1.0305
 2762TIP3    H232482   7.513   5.577  17.688 -0.1163  0.3676 -0.0256
 2763TIP3   OH232483   3.963   2.561  17.220  0.1209  0.4228 -0.7642
 2763TIP3    H132484   3.886   2.504  17.222 -0.8059  1.6441  1.4634
 2763TIP3    H232485   3.931   2.647  17.246  2.1356  1.1061 -0.3200
 2764TIP3   OH232486   6.993   6.762  17.808  0.5982 -0.3596 -0.2945
 2764TIP3    H132487   7.017   6.728  17.894 -0.1419  2.8676  1.3370
 2764TIP3    H232488   7.067   6.817  17.783  1.1799 -1.9022 -2.2081
 2765TIP3   OH232489   4.106   7.010  18.202 -0.3948 -0.7583  0.2637
 2765TIP3    H132490   4.064   7.039  18.121  1.5812 -2.1452 -1.3573
 2765TIP3    H232491   4.114   6.915  18.192  0.2738 -0.9057  1.9171
 2766TIP3   OH232492   6.531   2.917  18.110  0.4846  0.5193 -0.1751
 2766TIP3    H132493   6.610   2.863  18.104 -0.5760 -1.1291  0.2079
 2766TIP3    H232494   6.517   2.949  18.021 -0.7450 -2.6853 -1.2763
 2767TIP3   OH232495   5.143   0.067  17.909  0.4289 -0.1744  0.0137
 2767TIP3    H132496   5.049   0.071  17.924  0.5572 -0.0455  0.8326
 2767TIP3    H232497   5.153   0.016  17.828 -0.3916  0.7887 -0.7046
 2768TIP3   OH232498   3.771   5.893  16.701  0.2219 -0.0521  0.3894
 2768TIP3    H132499   3.697   5.943  16.736 -0.1247 -1.3100  1.4932
 2768TIP3    H232500   3.833   5.961  16.672 -1.9702  1.0713 -2.0584
 2769TIP3   OH232501   1.932   1.492  17.016  0.4945 -0.3653 -0.1076
 2769TIP3    H132502   1.850   1.526  17.052 -0.0989 -1.3749 -0.4583
 2769TIP3    H232503   1.906   1.445  16.937  1.7768  1.9788 -2.0601
 2770TIP3   OH232504   4.419   1.911  16.982 -0.5672 -0.1930  0.4716
 2770TIP3    H132505   4.449   1.905  16.892 -2.2579  0.0772 -0.1507
 2770TIP3    H232506   4.369   1.993  16.985 -3.1659 -1.6834  0.7752
 2771TIP3   OH232507   1.421   6.722  16.731  1.0335  0.1640 -0.3017
 2771TIP3    H132508   1.465   6.771  16.800  2.3986 -0.6067 -0.5896
 2771TIP3    H232509   1.491   6.673  16.688 -0.1079 -1.0669 -0.8250
 2772TIP3   OH232510   5.106   3.051  17.057 -0.5040  0.8942 -0.4091
 2772TIP3    H132511   5.109   3.039  17.152  1.2425  1.2494 -0.3789
 2772TIP3    H232512   5.013   3.048  17.035 -0.9131  0.3888  1.2516
 2773TIP3   OH232513   0.172   1.816  16.086 -0.4046 -0.4615 -0.0639
 2773TIP3    H132514   0.145   1.895  16.134  1.5588  0.3366 -0.1354
 2773TIP3    H232515   0.264   1.804  16.112 -0.2060 -1.7920 -1.2934
 2774TIP3   OH232516   3.612   4.847  17.178  0.5469 -0.7917 -0.6403
 2774TIP3    H132517   3.604   4.765  17.227  1.5937 -0.4132  0.2198
 2774TIP3    H232518   3.662   4.905  17.236 -3.7517  2.0155  0.7159
 2775TIP3   OH232519   5.845   6.510  18.292 -0.0365 -0.1704  0.2823
 2775TIP3    H132520   5.898   6.541  18.218  0.0967  1.3364  0.9835
 2775TIP3    H232521   5.798   6.434  18.257 -0.5760  0.9594 -1.5911
 2776TIP3   OH232522   4.627   6.292  18.446  0.3723  0.0542  0.0187
 2776TIP3    H132523   4.613   6.367  18.504 -0.0654  0.5715 -0.7273
 2776TIP3    H232524   4.710   6.312  18.402  0.2086  0.1457 -0.2485
 2777TIP3   OH232525   0.037   1.578  18.228  1.0467  0.1704  0.2107
 2777TIP3    H132526   0.076   1.590  18.315  1.5951  1.6196 -0.2028
 2777TIP3    H232527   0.001   1.664  18.206  0.0015 -0.4541 -0.5719
 2778TIP3   OH232528   4.573   6.942  18.376 -0.2577  0.0610 -0.0567
 2778TIP3    H132529   4.521   7.020  18.397  0.8887  0.4561  1.4647
 2778TIP3    H232530   4.516   6.890  18.319 -1.6883  1.2128  0.2669
 2779TIP3   OH232531   5.461   0.590  17.422  0.0545 -0.0037 -0.1569
 2779TIP3    H132532   5.454   0.516  17.481 -2.0322 -1.1164 -1.6257
 2779TIP3    H232533   5.410   0.564  17.345  1.9918  1.6495 -2.1483
 2780TIP3   OH232534   6.186   0.792  16.035  0.3657 -0.1862 -0.1675
 2780TIP3    H132535   6.124   0.719  16.039  1.2981 -0.9689  0.8649
 2780TIP3    H232536   6.148   0.860  16.090 -1.0378  0.5849 -1.9887
 2781TIP3   OH232537   3.069   3.541  16.397 -0.2071  0.0027  0.5204
 2781TIP3    H132538   3.132   3.469  16.388 -0.4826 -0.0595 -1.5153
 2781TIP3    H232539   3.099   3.590  16.473  3.8453  1.4121 -1.6807
 2782TIP3   OH232540   5.174   0.291  18.527 -0.4145  0.0633  0.3199
 2782TIP3    H132541   5.268   0.275  18.530 -0.9240 -3.6087  1.8876
 2782TIP3    H232542   5.144   0.247  18.447 -1.1358 -1.6783  1.4954
 2783TIP3   OH232543   4.861   6.897  16.731 -0.1839  0.2410  0.0489
 2783TIP3    H132544   4.913   6.940  16.799 -0.1310 -0.0351  0.1853
 2783TIP3    H232545   4.914   6.906  16.651 -0.8446  1.7193 -0.2436
 2784TIP3   OH232546   2.716   3.755  18.322 -0.4123 -0.1012  0.3833
 2784TIP3    H132547   2.655   3.759  18.396 -0.8391 -0.7449  0.0786
 2784TIP3    H232548   2.659   3.753  18.244 -0.0310 -1.0976  0.1054
 2785TIP3   OH232549   0.915   7.056  17.528 -0.3761  0.1119  0.1834
 2785TIP3    H132550   0.880   7.128  17.476 -0.4761  0.0889  0.2191
 2785TIP3    H232551   0.923   6.983  17.466 -0.1014  0.2072  0.1094
 2786TIP3   OH232552   1.592   1.106  16.414  0.9625 -0.2333  0.2656
 2786TIP3    H132553   1.614   1.042  16.346  1.2932  0.3658 -0.1962
 2786TIP3    H232554   1.670   1.109  16.469  0.2301 -1.7009  1.4874
 2787TIP3   OH232555   3.076   2.268  16.328 -0.1036  0.8200  0.3281
 2787TIP3    H132556   3.086   2.277  16.423  0.3312  0.1447  0.3578
 2787TIP3    H232557   2.988   2.234  16.317 -0.0870  0.7155  0.5064
 2788TIP3   OH232558   3.354   6.828  17.088 -0.2867 -0.5497  0.1458
 2788TIP3    H132559   3.378   6.891  17.157 -1.5363 -0.0062  0.1230
 2788TIP3    H232560   3.416   6.756  17.099  0.1534 -0.0404  1.2257
 2789TIP3   OH232561   4.750   0.201  17.685  0.9502 -0.3166  0.8127
 2789TIP3    H132562   4.739   0.110  17.711  2.9541 -0.8557 -0.0000
 2789TIP3    H232563   4.830   0.201  17.631 -0.7268  1.3676 -1.9313
 2790TIP3   OH232564   4.109   6.312  18.527 -0.1834  0.2074 -0.0372
 2790TIP3    H132565   4.106   6.365  18.607  0.8201 -0.1233  0.2380
 2790TIP3    H232566   4.022   6.321  18.488 -0.4658  0.9204  0.7369
 2791TIP3   OH232567   0.149   0.900  16.553  0.8542 -0.7491 -0.1478
 2791TIP3    H132568   0.240   0.917  16.530  1.2547 -0.4782  1.5159
 2791TIP3    H232569   0.152   0.816  16.600  0.4855 -0.0277  1.2002
 2792TIP3   OH232570   5.377   6.848  16.699  0.3623 -0.6292 -0.9243
 2792TIP3    H132571   5.392   6.789  16.626 -0.9344  0.4245 -2.0957
 2792TIP3    H232572   5.445   6.826  16.763  0.0395 -3.2233 -1.3824
 2793TIP3   OH232573   1.462   5.671  18.400 -0.1511  0.4705  0.3738
 2793TIP3    H132574   1.494   5.595  18.448 -0.1399  0.4787  0.3796
 2793TIP3    H232575   1.391   5.637  18.345  0.1368  0.3709  0.0562
 2794TIP3   OH232576   3.280   0.122  18.307 -0.2943 -0.2571 -0.1125
 2794TIP3    H132577   3.313   0.087  18.390 -0.4736 -0.7889 -0.2622
 2794TIP3    H232578   3.278   0.047  18.248  1.6154  0.4451 -1.1702
 2795TIP3   OH232579   2.938   5.548  16.973 -0.1955  0.0174 -0.0927
 2795TIP3    H132580   2.869   5.483  16.979 -1.3713  1.2094 -0.1312
 2795TIP3    H232581   2.951   5.561  16.879 -0.4156  0.2757 -0.0906
 2796TIP3   OH232582   1.867   1.979  18.595  0.3245  0.2923 -1.1188
 2796TIP3    H132583   1.923   1.938  18.529  1.6718 -1.3059  0.8553
 2796TIP3    H232584   1.781   1.942  18.581  1.2198 -2.3292 -0.2654
 2797TIP3   OH232585   2.713   5.119  18.147 -0.5770 -0.2024  0.2432
 2797TIP3    H132586   2.621   5.104  18.128 -0.5053 -1.2098  0.6298
 2797TIP3    H232587   2.738   5.047  18.205  0.8322 -0.7996 -1.0319
 2798TIP3   OH232588   6.260   0.721  17.617  0.4893  0.6225 -0.0730
 2798TIP3    H132589   6.316   0.765  17.553 -1.0559  1.8157 -0.6558
 2798TIP3    H232590   6.253   0.784  17.689 -0.4955  0.6886 -0.2215
 2799TIP3   OH232591   6.982   1.951  18.182  0.0722  0.1375  0.0025
 2799TIP3    H132592   7.073   1.931  18.157  0.0615  0.5148 -0.3637
 2799TIP3    H232593   6.988   1.980  18.273  0.3758  0.5158 -0.1320
 2800TIP3   OH232594   3.920   5.531  16.820  0.0515  0.5973  0.1144
 2800TIP3    H132595   3.837   5.484  16.825  0.1890  0.4400  1.3580
 2800TIP3    H232596   3.921   5.585  16.899  0.7390  1.2596 -0.3394
 2801TIP3   OH232597   2.550   7.553  17.859 -0.1022  0.1400 -0.2753
 2801TIP3    H132598   2.545   7.598  17.943 -0.9718 -1.2374  0.4475
 2801TIP3    H232599   2.459   7.544  17.831  0.0461 -0.9663 -0.4782
 2802TIP3   OH232600   0.496   0.986  18.615 -0.3480 -0.5240 -0.1329
 2802TIP3    H132601   0.526   0.896  18.610 -1.6617 -0.9539 -0.5092
 2802TIP3    H232602   0.422   0.984  18.676  0.4457  0.5510  0.9259
 2803TIP3   OH232603   1.298   1.644  16.898 -0.2788  0.6045 -0.1288
 2803TIP3    H132604   1.336   1.566  16.938 -0.9659  0.0819 -0.4774
 2803TIP3    H232605   1.325   1.716  16.955  1.6824  0.3307 -0.6698
 2804TIP3   OH232606   3.001   2.704  18.535 -0.5363 -0.0043 -0.1071
 2804TIP3    H132607   2.957   2.694  18.620 -1.3292  2.2847 -0.1904
 2804TIP3    H232608   3.094   2.692  18.555 -0.7894 -0.4425  0.8959
 2805TIP3   OH232609   3.883   2.576  16.814  0.6719 -0.0123 -0.6088
 2805TIP3    H132610   3.898   2.561  16.721  0.0879  1.1114 -0.9013
 2805TIP3    H232611   3.807   2.633  16.817  1.0853  0.5147  0.5277
 2806TIP3   OH232612   0.655   4.504  17.362 -0.0704  0.3057 -0.0100
 2806TIP3    H132613   0.625   4.416  17.340 -1.6517  0.7795  0.1213
 2806TIP3    H232614   0.595   4.563  17.316  1.3114  1.3408 -0.5619
 2807TIP3   OH232615   5.078   6.940  16.961  0.6662  0.6821  0.6426
 2807TIP3    H132616   5.099   6.986  16.880  0.7613 -0.8661 -0.2461
 2807TIP3    H232617   5.162   6.935  17.007  0.3942  2.5938  1.4281
 2808TIP3   OH232618   1.821   5.604  16.739 -0.2047 -0.3563  0.2339
 2808TIP3    H132619   1.781   5.643  16.662  0.9669 -0.0987 -0.2737
 2808TIP3    H232620   1.908   5.576  16.709  0.3286 -0.1239  1.4856
 2809TIP3   OH232621   4.064   5.785  17.505 -0.1701 -0.0472  0.4692
 2809TIP3    H132622   4.149   5.751  17.480 -0.4012 -0.2387 -0.0642
 2809TIP3    H232623   4.075   5.814  17.596  0.5450  0.2237  0.2986
 2810TIP3   OH232624   1.569   3.881  18.526  0.4855 -0.3286  0.4062
 2810TIP3    H132625   1.626   3.922  18.592  1.7047  0.6477 -1.1713
 2810TIP3    H232626   1.510   3.826  18.577  0.5705  1.2931  2.4178
 2811TIP3   OH232627   5.068   0.535  18.475  0.1099 -0.3963 -0.3131
 2811TIP3    H132628   5.091   0.446  18.502  2.6102  0.9768  2.6794
 2811TIP3    H232629   5.035   0.577  18.555 -1.9827  1.1870 -1.8640
 2812TIP3   OH232630   4.647   0.102  18.091  0.1812 -0.4297  0.4952
 2812TIP3    H132631   4.591   0.169  18.052 -0.6049  0.0334  2.3137
 2812TIP3    H232632   4.594   0.063  18.161  1.5073 -1.1906  1.1265
 2813TIP3   OH232633   4.899   1.289  17.484 -0.0523  0.2826  0.6135
 2813TIP3    H132634   4.811   1.287  17.448  0.4720 -1.9002 -0.7346
 2813TIP3    H232635   4.887   1.309  17.577 -1.8943  0.6749  0.3247
 2814TIP3   OH232636   0.974   3.404  16.418  0.1251 -0.2648 -0.3117
 2814TIP3    H132637   1.017   3.331  16.462 -0.1744 -0.1310  0.2114
 2814TIP3    H232638   1.044   3.448  16.369  0.3978 -0.6081 -0.2293
 2815TIP3   OH232639   1.819   7.571  18.065  0.1692  0.7495  0.2554
 2815TIP3    H132640   1.889   7.563  18.000  0.5618 -1.3684  0.8296
 2815TIP3    H232641   1.738   7.558  18.016  0.2808  1.7021 -0.1859
 2816TIP3   OH232642   4.769   3.095  18.331  0.0337 -0.4040  0.2068
 2816TIP3    H132643   4.823   3.174  18.335  0.1086 -0.5076  3.1899
 2816TIP3    H232644   4.682   3.127  18.306  0.2444  0.5334  0.6270
 2817TIP3   OH232645   6.534   6.770  17.787  0.3530  0.1634  0.1645
 2817TIP3    H132646   6.525   6.733  17.875 -2.6495  0.1470 -0.0349
 2817TIP3    H232647   6.449   6.809  17.769  1.1060  0.7878 -2.4938
 2818TIP3   OH232648   5.584   1.231  16.331  0.8282 -0.2500 -0.3589
 2818TIP3    H132649   5.642   1.266  16.398  2.1968 -2.4689 -0.2739
 2818TIP3    H232650   5.568   1.305  16.272 -0.3338  1.7526  2.2320
 2819TIP3   OH232651   7.355   1.136  19.033 -0.1258  0.1660 -0.1578
 2819TIP3    H132652   7.298   1.143  19.110  0.4063 -2.4261  0.5809
 2819TIP3    H232653   7.443   1.151  19.068  0.1638 -1.4566 -0.1207
 2820TIP3   OH232654   0.424   2.146  17.699 -0.1303  0.3796 -0.3032
 2820TIP3    H132655   0.356   2.080  17.712 -0.2203 -0.0133 -2.4961
 2820TIP3    H232656   0.506   2.098  17.705 -0.2097 -0.1451 -2.6065
 2821TIP3   OH232657   7.415   4.049  16.773 -0.2492 -0.2227 -0.0686
 2821TIP3    H132658   7.471   4.118  16.808  0.0552 -0.7793  0.5698
 2821TIP3    H232659   7.336   4.053  16.827 -1.6268  1.7192 -2.0773
 2822TIP3   OH232660   4.527   1.690  17.538  0.1878  0.1540  0.1650
 2822TIP3    H132661   4.575   1.646  17.608  0.2205 -0.1182 -0.0291
 2822TIP3    H232662   4.455   1.631  17.517  1.5716 -0.9735 -1.7435
 2823TIP3   OH232663   6.847   4.633  16.552 -0.1002 -0.4410 -0.1032
 2823TIP3    H132664   6.909   4.703  16.532 -0.4027  0.0096  0.5107
 2823TIP3    H232665   6.807   4.658  16.635  2.0459 -2.9031  1.8500
 2824TIP3   OH232666   2.351   3.120  17.413 -0.3620 -0.3278  0.2889
 2824TIP3    H132667   2.409   3.048  17.387 -0.1802 -0.4567  1.0378
 2824TIP3    H232668   2.350   3.117  17.509 -0.0433  0.9044  0.3480
 2825TIP3   OH232669   2.833   3.020  18.123  0.2547  0.3970 -0.1616
 2825TIP3    H132670   2.788   2.957  18.067 -0.4062 -1.5203  2.3441
 2825TIP3    H232671   2.920   2.983  18.137  1.0996  1.8190 -1.3550
 2826TIP3   OH232672   2.706   0.520  16.714  0.1101 -0.1056 -0.3794
 2826TIP3    H132673   2.668   0.582  16.776 -0.4727 -0.7372 -0.0905
 2826TIP3    H232674   2.719   0.571  16.634  0.4770  0.6115  0.1195
 2827TIP3   OH232675   5.633   4.108  16.911  0.3639 -0.9778  0.2523
 2827TIP3    H132676   5.659   4.185  16.860  0.9037 -0.9202  0.6128
 2827TIP3    H232677   5.552   4.078  16.869  0.1637 -0.2333  0.0931
 2828TIP3   OH232678   2.808   2.391  19.132 -0.1593 -0.6470  0.0615
 2828TIP3    H132679   2.852   2.428  19.208  0.7132 -0.4780 -0.5064
 2828TIP3    H232680   2.880   2.364  19.074 -0.6837  1.9970 -2.0619
 2829TIP3   OH232681   3.680   6.716  17.506 -0.7105 -0.1049  0.4309
 2829TIP3    H132682   3.591   6.687  17.486  0.0712 -1.6265 -1.1904
 2829TIP3    H232683   3.720   6.640  17.549  0.5346 -0.4383 -1.2183
 2830TIP3   OH232684   2.157   5.466  18.321  0.4763 -0.4007 -0.0099
 2830TIP3    H132685   2.080   5.517  18.296  0.3439 -0.9060 -0.6649
 2830TIP3    H232686   2.230   5.527  18.313  0.1833 -0.0036  0.3111
 2831TIP3   OH232687   5.379   0.833  17.332  0.0964 -0.0288  0.1408
 2831TIP3    H132688   5.439   0.853  17.260  0.2124  0.7024  0.4338
 2831TIP3    H232689   5.416   0.756  17.374  0.5466  0.1065 -0.0040
 2832TIP3   OH232690   3.099   1.569  18.914  0.2484  0.6944 -0.3554
 2832TIP3    H132691   3.045   1.633  18.961  0.7828  1.0960 -0.2721
 2832TIP3    H232692   3.057   1.561  18.828 -1.3130 -0.7848  0.4959
 2833TIP3   OH232693   3.701   5.708  15.987  0.2149 -0.2620  0.4185
 2833TIP3    H132694   3.752   5.627  15.985 -0.3347 -0.6145 -1.7642
 2833TIP3    H232695   3.765   5.777  15.969  0.3068 -0.4616 -0.0388
 2834TIP3   OH232696   2.492   5.027  16.871  0.3152  0.4637  0.6719
 2834TIP3    H132697   2.583   5.058  16.865  0.5563 -0.5218 -1.7924
 2834TIP3    H232698   2.448   5.094  16.923  2.7676  0.0845  3.4746
 2835TIP3   OH232699   3.663   5.160  17.430 -0.1801  0.5622 -0.1310
 2835TIP3    H132700   3.717   5.237  17.447  0.1315  0.3603 -0.2141
 2835TIP3    H232701   3.724   5.094  17.398 -0.7115  0.8926 -1.9873
 2836TIP3   OH232702   6.053   6.138  18.329  0.3643 -0.5794  0.5944
 2836TIP3    H132703   5.967   6.159  18.292  1.0265  2.4276  0.4967
 2836TIP3    H232704   6.051   6.175  18.417  1.4278 -0.8388  0.7398
 2837TIP3   OH232705   0.893   1.535  18.595 -0.5669  0.0840  0.3969
 2837TIP3    H132706   0.847   1.559  18.675 -0.7057  1.5980 -0.0973
 2837TIP3    H232707   0.885   1.612  18.539  0.8466 -0.3647 -0.4813
 2838TIP3   OH232708   1.330   6.680  18.522 -0.2392  0.4852 -0.4771
 2838TIP3    H132709   1.386   6.661  18.597 -0.6409  0.3315 -0.2091
 2838TIP3    H232710   1.255   6.621  18.532 -0.0213  0.0423 -1.3182
 2839TIP3   OH232711   7.497   5.117  18.187  0.3572 -0.0920 -0.5827
 2839TIP3    H132712   7.583   5.094  18.152  0.7675  1.5874 -0.7513
 2839TIP3    H232713   7.450   5.153  18.112  0.1755  0.7448 -0.0699
 2840TIP3   OH232714   5.915   5.373  16.207  0.1947 -0.3695  0.0234
 2840TIP3    H132715   5.999   5.396  16.166 -0.4005  2.2383  0.0914
 2840TIP3    H232716   5.850   5.386  16.138 -0.3100 -1.1747  0.3264
 2841TIP3   OH232717   2.184   4.450  17.836  0.0826 -0.1300  0.0766
 2841TIP3    H132718   2.157   4.531  17.794  2.3707 -0.1022 -1.5489
 2841TIP3    H232719   2.279   4.460  17.846  0.3758 -2.5120  0.0683
 2842TIP3   OH232720   2.897   1.938  16.721  0.6689 -0.0517 -0.3662
 2842TIP3    H132721   2.971   1.925  16.779 -0.7808  0.3619  1.7062
 2842TIP3    H232722   2.880   2.032  16.725 -0.4630 -0.2466 -0.1059
 2843TIP3   OH232723   1.069   5.208  18.711  0.2206  0.3190 -0.2942
 2843TIP3    H132724   1.029   5.237  18.793  2.2767 -2.7906  2.0752
 2843TIP3    H232725   1.013   5.136  18.682 -1.4104  2.4005 -2.6881
 2844TIP3   OH232726   6.115   6.942  17.973 -0.0503 -0.1399  0.5157
 2844TIP3    H132727   6.099   7.005  17.903  0.3641  0.9570  1.3874
 2844TIP3    H232728   6.034   6.942  18.024  0.7669  1.5410  1.9186
 2845TIP3   OH232729   3.565   7.258  16.809 -0.1819  0.3930 -0.1173
 2845TIP3    H132730   3.540   7.348  16.788  0.9706  1.1431  1.4781
 2845TIP3    H232731   3.615   7.266  16.890 -3.2362 -2.0783  2.2599
 2846TIP3   OH232732   2.047   2.830  18.453  0.3681  0.2593 -0.3116
 2846TIP3    H132733   2.050   2.852  18.359 -1.2238 -0.9483 -0.6854
 2846TIP3    H232734   1.975   2.767  18.460  0.7375  0.0168  1.6754
 2847TIP3   OH232735   7.389   3.247  18.396  0.4756 -0.0146 -0.1916
 2847TIP3    H132736   7.349   3.333  18.382  0.9282  0.1938 -0.2195
 2847TIP3    H232737   7.455   3.262  18.464 -0.2620 -0.5864  0.6712
 2848TIP3   OH232738   0.556   1.725  16.867 -0.3614  0.1476 -0.3817
 2848TIP3    H132739   0.619   1.793  16.844 -0.8247  0.4518 -0.7667
 2848TIP3    H232740   0.517   1.698  16.783  0.2885 -1.0737 -0.3268
 2849TIP3   OH232741   7.595   4.765  17.333 -0.1975 -0.0179  0.7138
 2849TIP3    H132742   7.691   4.764  17.326 -0.3274  0.1813 -2.3879
 2849TIP3    H232743   7.570   4.673  17.324 -0.3596  0.1454 -0.6330
 2850TIP3   OH232744   1.068   2.267  18.649  0.0888 -0.4806 -0.3160
 2850TIP3    H132745   0.975   2.258  18.673  0.4321 -2.9535  0.3387
 2850TIP3    H232746   1.076   2.358  18.620 -2.0721  0.4273  1.6134
 2851TIP3   OH232747   3.434   0.965  17.518 -0.1203  0.1075  0.2397
 2851TIP3    H132748   3.419   0.908  17.594  0.5882  0.8511  0.9539
 2851TIP3    H232749   3.497   0.918  17.464 -1.0946 -0.7087 -0.2183
 2852TIP3   OH232750   0.115   7.403  18.269  0.2593 -0.0367  0.3233
 2852TIP3    H132751   0.039   7.436  18.221 -0.2403 -0.3539  0.8847
 2852TIP3    H232752   0.138   7.474  18.329 -0.7448 -0.6143  1.4497
 2853TIP3   OH232753   3.452   6.887  18.486  0.5131 -0.0113  0.5209
 2853TIP3    H132754   3.481   6.901  18.395  0.6315 -1.4631  0.3163
 2853TIP3    H232755   3.530   6.855  18.531  0.0570 -0.8482  0.7354
 2854TIP3   OH232756   3.701   0.703  16.615  0.1880  0.5168 -0.3603
 2854TIP3    H132757   3.614   0.724  16.581 -0.6412 -0.2418  1.2107
 2854TIP3    H232758   3.711   0.609  16.600  0.3032  0.4044  0.4056
 2855TIP3   OH232759   3.724   0.919  18.195  0.3460  0.0074  0.1481
 2855TIP3    H132760   3.802   0.966  18.225 -0.0069 -0.2155  1.4797
 2855TIP3    H232761   3.657   0.987  18.185  0.3952  0.0463  0.0778
 2856TIP3   OH232762   0.767   3.417  17.200  0.1719  0.0860 -0.1511
 2856TIP3    H132763   0.839   3.357  17.180  0.0665  0.4777 -1.9034
 2856TIP3    H232764   0.715   3.371  17.265  1.8019 -0.3483  0.8988
 2857TIP3   OH232765   4.900   0.661  18.698 -0.3622 -0.1566  0.1426
 2857TIP3    H132766   4.856   0.746  18.695 -0.5896 -0.2346  1.0636
 2857TIP3    H232767   4.830   0.597  18.689 -0.2457 -0.2569 -0.0638
 2858TIP3   OH232768   4.268   1.324  17.764 -0.3808  0.6599  0.0087
 2858TIP3    H132769   4.308   1.237  17.753  0.5404  1.1976 -1.1667
 2858TIP3    H232770   4.282   1.345  17.856 -1.0612 -0.6377  0.4294
 2859TIP3   OH232771   3.138   1.976  19.129  0.1976 -0.5939  0.1876
 2859TIP3    H132772   3.045   1.992  19.113 -0.0551 -1.2073  0.9445
 2859TIP3    H232773   3.144   1.966  19.224  1.0866 -0.2874  0.1732
 2860TIP3   OH232774   3.498   3.071  18.486  0.0668 -1.1545  0.2424
 2860TIP3    H132775   3.523   3.034  18.401  1.7513 -0.1088  0.2493
 2860TIP3    H232776   3.574   3.123  18.513 -0.9171 -0.4813  1.8294
 2861TIP3   OH232777   1.994   7.435  16.082  0.0340 -0.7475 -0.2274
 2861TIP3    H132778   2.089   7.439  16.071  0.0541  1.3996  0.1995
 2861TIP3    H232779   1.977   7.348  16.118  2.0313 -0.5911  1.2702
 2862TIP3   OH232780   7.157   7.009  17.525 -0.4876 -0.4723 -0.2804
 2862TIP3    H132781   7.207   6.970  17.454  1.4465  2.5453 -0.7568
 2862TIP3    H232782   7.192   6.967  17.604  0.6341 -0.5953 -0.8180
 2863TIP3   OH232783   4.293   4.588  17.876 -0.2624  0.0584 -0.0386
 2863TIP3    H132784   4.310   4.531  17.801 -0.2944  0.1753 -0.1336
 2863TIP3    H232785   4.320   4.536  17.952 -1.0382 -0.3899 -0.0661
 2864TIP3   OH232786   1.829   1.785  18.260 -0.1829 -0.1225  0.0046
 2864TIP3    H132787   1.901   1.812  18.317  1.0913  1.9194 -2.3779
 2864TIP3    H232788   1.768   1.859  18.262  0.7935  0.8548 -2.5895
 2865TIP3   OH232789   3.750   6.305  17.289  0.0409  0.0067 -0.2828
 2865TIP3    H132790   3.821   6.242  17.297  0.4580  0.5120  0.0585
 2865TIP3    H232791   3.731   6.333  17.379  0.0149  0.5342 -0.4475
 2866TIP3   OH232792   0.039   7.250  16.683  0.4977 -0.3444  0.4551
 2866TIP3    H132793   0.019   7.157  16.676 -0.7081 -0.1025  0.4703
 2866TIP3    H232794   0.017   7.285  16.596 -1.3772  0.3204  1.1497
 2867TIP3   OH232795   0.506   6.604  17.808  0.4758  0.6080 -0.2461
 2867TIP3    H132796   0.550   6.682  17.773  0.8182  1.4782  1.9549
 2867TIP3    H232797   0.567   6.570  17.874  0.3968 -1.6606 -1.2372
 2868TIP3   OH232798   4.684   6.760  16.466  0.2015  0.8461  0.3397
 2868TIP3    H132799   4.609   6.707  16.438  1.1837 -0.5935  0.3727
 2868TIP3    H232800   4.715   6.718  16.546  0.9524  1.5474  0.4341
 2869TIP3   OH232801   2.853   6.844  16.733  0.3799  0.3533 -0.0117
 2869TIP3    H132802   2.812   6.790  16.800  1.7917  0.1736  0.7524
 2869TIP3    H232803   2.829   6.934  16.755 -0.8137  0.1615 -0.4649
 2870TIP3   OH232804   0.235   6.743  17.904 -0.2001 -0.2585 -0.6354
 2870TIP3    H132805   0.290   6.748  17.826  0.8106 -1.3558 -0.0186
 2870TIP3    H232806   0.149   6.714  17.871 -0.7228  2.1807 -1.7064
 2871TIP3   OH232807   4.641   3.008  17.649 -0.0673  0.1124 -0.2237
 2871TIP3    H132808   4.657   3.026  17.556 -0.4741 -1.3230 -0.5961
 2871TIP3    H232809   4.546   3.004  17.657 -0.0510  0.7385  0.3739
 2872TIP3   OH232810   1.514   3.428  16.537 -0.4459  0.0394 -0.3127
 2872TIP3    H132811   1.490   3.476  16.457 -3.6521 -1.0354 -0.1265
 2872TIP3    H232812   1.544   3.343  16.505  2.6111  1.0648 -0.4916
 2873TIP3   OH232813   5.857   4.989  18.294 -0.4334 -0.2237  0.3051
 2873TIP3    H132814   5.778   4.970  18.345 -0.5495 -1.1191 -0.1875
 2873TIP3    H232815   5.829   5.052  18.228 -0.7048 -0.4316  0.2211
 2874TIP3   OH232816   0.681   1.359  16.820  0.1884  0.0122 -0.0169
 2874TIP3    H132817   0.636   1.356  16.904  0.8040  0.3651  0.3259
 2874TIP3    H232818   0.772   1.341  16.840  0.0672 -1.7201 -0.8458
 2875TIP3   OH232819   4.196   0.422  16.203 -0.3780 -0.8377  0.5850
 2875TIP3    H132820   4.134   0.394  16.135  0.5542 -1.2920 -0.0945
 2875TIP3    H232821   4.274   0.369  16.188  0.3564  0.0548  1.1375
 2876TIP3   OH232822   0.622   6.487  18.740  0.0508 -0.3139  0.0877
 2876TIP3    H132823   0.556   6.475  18.671  0.5264  1.6458 -0.7720
 2876TIP3    H232824   0.579   6.542  18.805  0.2120 -0.6571  0.4912
 2877TIP3   OH232825   5.866   0.997  18.216 -0.5305 -0.3104  0.7534
 2877TIP3    H132826   5.908   1.054  18.281  0.7126  0.9740 -1.0979
 2877TIP3    H232827   5.901   0.910  18.236  1.5777  0.4143  0.4888
 2878TIP3   OH232828   2.834   7.273  18.741 -0.4530 -0.1905  0.4051
 2878TIP3    H132829   2.747   7.291  18.707  0.1510 -0.2003 -1.2482
 2878TIP3    H232830   2.852   7.182  18.715  0.7126  0.3673 -0.8723
 2879TIP3   OH232831   3.799   1.167  17.841  0.3643 -0.0126 -0.2328
 2879TIP3    H132832   3.720   1.220  17.848  1.7900  2.6279 -2.1979
 2879TIP3    H232833   3.769   1.081  17.813 -1.8394  0.6610 -0.1027
 2880TIP3   OH232834   0.912   5.782  18.447  0.6991  0.1447 -0.1518
 2880TIP3    H132835   0.898   5.853  18.385 -0.9246 -0.2579 -0.3044
 2880TIP3    H232836   0.949   5.825  18.525  0.4902  1.0317 -0.5290
 2881TIP3   OH232837   5.871   4.259  17.302 -0.6063  0.2457  0.0653
 2881TIP3    H132838   5.938   4.303  17.249 -1.8625  0.9035 -1.0185
 2881TIP3    H232839   5.789   4.299  17.275 -1.5746 -1.3300  0.5603
 2882TIP3   OH232840   1.365   0.041  18.352  0.2453  0.5835  0.1385
 2882TIP3    H132841   1.458   0.020  18.365 -0.0923  0.2390  2.6662
 2882TIP3    H232842   1.365   0.130  18.318  1.5240  1.3463  1.9767
 2883TIP3   OH232843   3.476   0.206  17.843 -0.3644  0.4456  0.2524
 2883TIP3    H132844   3.386   0.222  17.869 -0.2968 -0.6161  1.2420
 2883TIP3    H232845   3.522   0.187  17.925  0.9064  1.5950 -0.1672
 2884TIP3   OH232846   6.941   6.477  17.270  0.3126  0.0168  0.3161
 2884TIP3    H132847   6.941   6.384  17.291 -0.3575  0.2170  1.3012
 2884TIP3    H232848   6.861   6.489  17.218 -1.8736  0.6422  3.4577
 2885TIP3   OH232849   4.659   7.005  17.260  0.0207  0.1942  0.5228
 2885TIP3    H132850   4.656   6.962  17.346 -1.2220 -0.0976  0.3504
 2885TIP3    H232851   4.663   7.098  17.280 -0.6399  0.1448  0.9073
 2886TIP3   OH232852   1.872   3.093  16.704 -0.5684  0.1513  0.4237
 2886TIP3    H132853   1.814   3.053  16.639 -0.1994  0.3824 -0.0499
 2886TIP3    H232854   1.953   3.043  16.696 -0.6338 -0.0482  0.9561
 2887TIP3   OH232855   4.576   3.279  16.545 -0.6167  0.6212  0.3185
 2887TIP3    H132856   4.539   3.296  16.632 -0.9186 -2.6003  0.9380
 2887TIP3    H232857   4.670   3.294  16.556 -0.9880  4.0475  0.0340
 2888TIP3   OH232858   0.019   6.165  16.053 -0.3361  0.2546 -0.6208
 2888TIP3    H132859   0.032   6.094  16.115 -2.7716  0.7960  0.6479
 2888TIP3    H232860   0.102   6.172  16.005  0.9378 -1.4848  1.2069
 2889TIP3   OH232861   3.612   0.136  18.084  0.0181 -0.1880 -0.0319
 2889TIP3    H132862   3.557   0.058  18.076 -1.6708  1.0715 -1.5951
 2889TIP3    H232863   3.591   0.171  18.171 -0.0814 -0.8411  0.2135
 2890TIP3   OH232864   3.861   0.740  16.383 -0.3248  0.1024 -0.0287
 2890TIP3    H132865   3.816   0.805  16.330 -0.7976  0.8072  1.2002
 2890TIP3    H232866   3.827   0.753  16.471  0.4658 -1.0134  0.4664
 2891TIP3   OH232867   4.678   6.019  17.844 -0.0843 -0.1210  0.1242
 2891TIP3    H132868   4.653   6.079  17.915 -1.6633 -1.0202  0.3778
 2891TIP3    H232869   4.617   6.040  17.773  0.3408 -0.4127 -0.3289
 2892TIP3   OH232870   6.419   7.391  16.590  0.2449 -0.0343  0.2320
 2892TIP3    H132871   6.418   7.357  16.500  1.1013 -0.9884  0.5641
 2892TIP3    H232872   6.326   7.399  16.613 -0.0368  2.0455 -1.3723
 2893TIP3   OH232873   2.331   1.019  18.071 -0.0630  0.5824 -0.9172
 2893TIP3    H132874   2.420   1.030  18.104 -0.3182  1.5146 -0.5002
 2893TIP3    H232875   2.284   1.097  18.103 -1.6023 -0.9406  0.7325
 2894TIP3   OH232876   4.786   3.043  16.879 -0.0783 -0.0114 -0.2672
 2894TIP3    H132877   4.761   2.998  16.798 -1.2854  0.2482 -0.0639
 2894TIP3    H232878   4.780   3.136  16.857  1.9437  0.0923 -0.5488
 2895TIP3   OH232879   2.886   6.482  18.757 -0.0498  0.2527 -0.1949
 2895TIP3    H132880   2.944   6.413  18.789  1.6318  1.7896  0.2471
 2895TIP3    H232881   2.868   6.459  18.666 -2.1512 -2.4056  0.7647
 2896TIP3   OH232882   7.541   4.208  17.168 -0.3029 -0.3640  0.3037
 2896TIP3    H132883   7.551   4.198  17.073 -0.6166 -1.2912  0.3569
 2896TIP3    H232884   7.447   4.195  17.183 -0.5596  1.4351  0.5687
 2897TIP3   OH232885   7.046   0.576  17.390  0.5342  0.0785 -0.2792
 2897TIP3    H132886   7.107   0.649  17.375 -0.5164  0.8964 -0.7544
 2897TIP3    H232887   7.051   0.559  17.484 -0.2931  1.7948  0.1186
 2898TIP3   OH232888   6.097   6.465  17.424 -0.0291 -0.2311  0.1324
 2898TIP3    H132889   6.188   6.452  17.452  0.4647  0.2983 -1.1242
 2898TIP3    H232890   6.065   6.536  17.479  0.8777  0.7128 -0.5007
 2899TIP3   OH232891   4.016   3.756  16.623  0.2126  0.3065  0.3954
 2899TIP3    H132892   4.025   3.662  16.609  0.2744  0.0875  1.7791
 2899TIP3    H232893   3.926   3.766  16.655  0.5776  0.5615  1.3663
 2900TIP3   OH232894   3.351   2.357  18.166  0.6099 -0.1979 -0.3878
 2900TIP3    H132895   3.365   2.340  18.073 -0.9890 -0.3157 -0.6395
 2900TIP3    H232896   3.327   2.271  18.202  0.5168 -0.0191 -0.0239
 2901TIP3   OH232897   4.184   4.075  16.100  0.0855  0.1531 -0.6513
 2901TIP3    H132898   4.270   4.077  16.141  0.1240  0.5948 -0.7490
 2901TIP3    H232899   4.194   4.125  16.019 -0.1564 -0.1563 -0.8742
 2902TIP3   OH232900   3.603   1.032  16.538  0.0201  0.0512 -0.5192
 2902TIP3    H132901   3.664   1.105  16.543  2.3796 -1.8065 -0.4140
 2902TIP3    H232902   3.637   0.977  16.468 -1.6472 -1.0153 -0.5596
 2903TIP3   OH232903   6.651   4.377  16.357 -0.1459 -0.4309  0.4118
 2903TIP3    H132904   6.673   4.446  16.294  1.2827 -0.2742  1.0272
 2903TIP3    H232905   6.713   4.307  16.337 -2.4627 -2.1841 -1.1148
 2904TIP3   OH232906   4.618   1.564  17.774 -0.3732 -0.0115 -0.0985
 2904TIP3    H132907   4.661   1.647  17.795 -0.6496 -0.0872  0.8357
 2904TIP3    H232908   4.630   1.511  17.853 -0.2659 -0.8335 -0.6658
 2905TIP3   OH232909   5.199   2.322  16.746 -0.6416  0.4886 -0.4010
 2905TIP3    H132910   5.128   2.385  16.760 -0.5885  0.0295  2.8622
 2905TIP3    H232911   5.273   2.359  16.794  0.4041 -0.5057 -1.1953
 2906TIP3   OH232912   0.799   2.552  18.690  0.1182  0.3694 -0.3044
 2906TIP3    H132913   0.728   2.574  18.630  0.2796 -0.9475 -1.0185
 2906TIP3    H232914   0.774   2.468  18.728  0.9808  0.1972 -0.0809
 2907TIP3   OH232915   2.081   3.326  17.706  0.2537 -0.1314  0.2261
 2907TIP3    H132916   1.997   3.346  17.747  0.0729 -1.0865  0.3431
 2907TIP3    H232917   2.093   3.395  17.641  1.4051  2.5562  3.0478
 2908TIP3   OH232918   1.888   2.190  18.187  0.0791  0.5609 -0.2304
 2908TIP3    H132919   1.976   2.156  18.206  0.9894  2.2803 -1.1228
 2908TIP3    H232920   1.902   2.282  18.166 -2.1523  1.2629  1.0447
 2909TIP3   OH232921   0.761   3.644  16.486  0.6250 -0.8271 -0.4762
 2909TIP3    H132922   0.751   3.623  16.393  1.5513  0.6973 -0.9510
 2909TIP3    H232923   0.788   3.561  16.526 -0.2432 -1.6128 -1.4763
 2910TIP3   OH232924   2.586   2.191  18.649  0.3052  0.2494 -0.2841
 2910TIP3    H132925   2.494   2.200  18.625  0.2764  0.9287  0.0614
 2910TIP3    H232926   2.604   2.098  18.641 -0.2156  0.2075 -1.0778
 2911TIP3   OH232927   4.745   6.183  17.471 -0.2954  0.1896 -0.1051
 2911TIP3    H132928   4.767   6.244  17.400 -1.0639  1.3162  0.5882
 2911TIP3    H232929   4.713   6.105  17.427  0.5354  0.3464 -1.0221
 2912TIP3   OH232930   1.686   0.773  17.844  0.6018  0.3353  0.3997
 2912TIP3    H132931   1.656   0.683  17.832 -1.5925  1.0854 -0.1986
 2912TIP3    H232932   1.727   0.796  17.761  0.6983  0.0691  0.3735
 2913TIP3   OH232933   5.673   2.158  17.683 -0.2124 -0.3386  0.2940
 2913TIP3    H132934   5.692   2.131  17.594 -0.1846  1.7654 -0.3995
 2913TIP3    H232935   5.595   2.213  17.675  0.2534  0.5283  1.4350
 2914TIP3   OH232936   4.156   1.740  18.946  0.2432  0.3242 -0.1337
 2914TIP3    H132937   4.191   1.818  18.990  0.3527 -0.2840  0.8802
 2914TIP3    H232938   4.221   1.672  18.962  0.7378  0.2875 -2.0253
 2915TIP3   OH232939   4.481   4.657  17.103  0.6119 -0.3065 -0.0889
 2915TIP3    H132940   4.515   4.630  17.018 -0.0505 -4.8723  0.8587
 2915TIP3    H232941   4.559   4.680  17.154  1.1709  0.5614 -1.2792
 2916TIP3   OH232942   3.998   4.569  16.233  0.1822 -0.9571 -0.1059
 2916TIP3    H132943   3.986   4.478  16.206 -2.9200 -1.3462  2.0769
 2916TIP3    H232944   3.928   4.616  16.187  1.7850  0.4317 -1.2575
 2917TIP3   OH232945   3.150   1.081  17.508 -0.7595 -0.1333 -0.0027
 2917TIP3    H132946   3.244   1.061  17.517 -0.1238  2.9666  1.4298
 2917TIP3    H232947   3.111   1.046  17.588 -0.1373  1.7056  1.1623
 2918TIP3   OH232948   6.485   2.563  18.755 -0.0035 -0.0742 -0.4707
 2918TIP3    H132949   6.497   2.645  18.802  0.6765  0.3670 -1.3830
 2918TIP3    H232950   6.391   2.559  18.737 -0.3022 -0.3457  1.0530
 2919TIP3   OH232951   4.851   5.996  15.866 -0.1330  0.0138 -0.1527
 2919TIP3    H132952   4.931   5.980  15.917  0.7971  1.7776 -0.9710
 2919TIP3    H232953   4.794   6.045  15.925 -0.4458 -0.8316  0.2697
 2920TIP3   OH232954   4.593   6.771  16.123 -0.2431  0.0564  0.8403
 2920TIP3    H132955   4.538   6.696  16.102  0.2973 -0.2066  0.3047
 2920TIP3    H232956   4.683   6.738  16.114  0.0019  0.5900  1.2512
 2921TIP3   OH232957   6.828   7.082  17.991 -0.0737  0.3014  0.0858
 2921TIP3    H132958   6.752   7.124  18.030 -1.3773 -2.6377  1.0248
 2921TIP3    H232959   6.791   7.017  17.931  1.6383 -1.3966  0.7730
 2922TIP3   OH232960   3.933   4.397  17.337  0.1789  0.5416 -0.7136
 2922TIP3    H132961   3.969   4.439  17.416 -0.9491  0.4216 -0.1087
 2922TIP3    H232962   3.901   4.469  17.283  2.5416  0.7559 -1.9273
 2923TIP3   OH232963   7.432   7.443  18.577  0.6444 -0.0112 -0.3991
 2923TIP3    H132964   7.522   7.473  18.589  0.7112 -0.2553 -0.2853
 2923TIP3    H232965   7.385   7.478  18.653  0.7089 -0.1426 -0.2979
 2924TIP3   OH232966   3.074   4.765  16.463 -0.2350  0.0298  0.5712
 2924TIP3    H132967   3.048   4.835  16.404  0.5350  0.9532  1.3005
 2924TIP3    H232968   3.166   4.783  16.482 -0.4587 -0.2778  2.0136
 2925TIP3   OH232969   6.596   3.041  16.994  0.2855 -0.0077  0.5148
 2925TIP3    H132970   6.640   2.960  16.968 -0.1442 -0.6720  1.7599
 2925TIP3    H232971   6.536   3.014  17.064  0.9765  1.5788  1.7709
 2926TIP3   OH232972   0.706   3.159  16.687  0.0124  0.0971 -0.4268
 2926TIP3    H132973   0.692   3.083  16.743 -2.1038  0.7553  0.0241
 2926TIP3    H232974   0.783   3.137  16.635  1.0949 -1.1970  1.5980
 2927TIP3   OH232975   1.430   1.252  18.362 -0.1381  0.0801 -0.6754
 2927TIP3    H132976   1.426   1.268  18.456  0.9897  0.8397 -0.7251
 2927TIP3    H232977   1.524   1.237  18.344 -0.4721 -1.2998 -1.4956
 2928TIP3   OH232978   4.231   6.299  16.453  0.0166  0.6138  0.7541
 2928TIP3    H132979   4.222   6.204  16.458  0.5266  0.5439  0.4627
 2928TIP3    H232980   4.143   6.331  16.434 -0.1925  0.2130  1.0418
 2929TIP3   OH232981   6.128   2.413  18.117  0.1621 -0.0762 -0.0503
 2929TIP3    H132982   6.066   2.486  18.109 -0.6063 -0.5330  1.4693
 2929TIP3    H232983   6.127   2.372  18.030 -1.0968  0.3733 -0.2732
 2930TIP3   OH232984   1.224   7.575  16.750 -0.1192 -0.8278  0.2532
 2930TIP3    H132985   1.216   7.662  16.710  1.6673 -0.7899 -0.1004
 2930TIP3    H232986   1.141   7.532  16.730 -0.0903 -0.0687 -1.7307
 2931TIP3   OH232987   0.120   1.882  18.752 -0.0089 -0.2716 -0.6501
 2931TIP3    H132988   0.133   1.947  18.821 -1.0585  0.6730 -1.3058
 2931TIP3    H232989   0.026   1.863  18.753 -0.2513  0.5936 -2.5094
 2932TIP3   OH232990   5.100   5.589  16.735  0.0042  0.4152 -0.8104
 2932TIP3    H132991   5.033   5.637  16.687 -0.6874 -0.2138 -0.5013
 2932TIP3    H232992   5.157   5.656  16.771 -1.8027  1.1285  0.9157
 2933TIP3   OH232993   3.658   6.716  18.524  0.3353  0.2609 -0.1806
 2933TIP3    H132994   3.740   6.765  18.514 -0.7956  2.1989 -0.4479
 2933TIP3    H232995   3.641   6.679  18.437 -0.7767  2.7791 -1.1329
 2934TIP3   OH232996   4.251   6.946  18.526  0.3841 -0.5080 -0.6148
 2934TIP3    H132997   4.200   7.026  18.509  1.2109  0.0920 -0.3614
 2934TIP3    H232998   4.216   6.882  18.465  0.1693  0.2523 -1.3099
 2935TIP3   OH232999   0.769   0.606  17.809  0.4632 -0.6343  0.3656
 2935TIP3    H133000   0.761   0.677  17.746  0.4828 -1.6606 -0.8460
 2935TIP3    H233001   0.701   0.623  17.874  0.5860  0.5662  0.1885
 2936TIP3   OH233002   1.262   5.503  16.627  0.1915  0.3901  0.2197
 2936TIP3    H133003   1.341   5.543  16.590  0.7500 -1.0578 -0.2028
 2936TIP3    H233004   1.211   5.475  16.551  0.0770 -0.2010  0.5121
 2937TIP3   OH233005   6.081   6.118  17.155 -0.1503  0.0340 -0.0669
 2937TIP3    H133006   6.111   6.027  17.155 -0.3379 -0.0302  0.2493
 2937TIP3    H233007   6.081   6.143  17.063  1.0898  0.1115 -0.0657
 2938TIP3   OH233008   4.683   0.442  17.981 -0.0894 -0.4933  0.3983
 2938TIP3    H133009   4.675   0.515  18.042  0.2975 -0.4119  0.3524
 2938TIP3    H233010   4.633   0.371  18.021 -0.9765 -0.0265  0.1618
 2939TIP3   OH233011   3.228   7.144  17.998  0.1836 -0.1118 -0.2075
 2939TIP3    H133012   3.184   7.225  17.971 -1.0597 -0.5920  0.2681
 2939TIP3    H233013   3.248   7.099  17.916 -2.7144 -1.1311 -0.4696
 2940TIP3   OH233014   5.659   0.106  17.627 -0.2294 -0.3193  0.0843
 2940TIP3    H133015   5.720   0.115  17.554 -0.2547  1.2969  0.2265
 2940TIP3    H233016   5.714   0.118  17.705 -0.2502 -1.7548  0.3388
 2941TIP3   OH233017   4.112   7.255  17.245  0.3697 -0.5951 -0.4551
 2941TIP3    H133018   4.173   7.328  17.242  0.1962 -0.3984  0.4079
 2941TIP3    H233019   4.113   7.219  17.157 -0.2747  1.0430 -1.1787
 2942TIP3   OH233020   7.411   0.674  18.363  0.1450  0.1556 -0.1066
 2942TIP3    H133021   7.386   0.746  18.421 -1.5572 -0.6247  0.2056
 2942TIP3    H233022   7.459   0.613  18.420  0.0554  0.2400  0.0623
 2943TIP3   OH233023   3.914   4.662  16.780 -0.3531 -0.6648  1.0635
 2943TIP3    H133024   3.963   4.583  16.754 -0.9228 -0.3557 -1.1679
 2943TIP3    H233025   3.852   4.631  16.846 -0.2316 -1.9986  0.5894
 2944TIP3   OH233026   3.831   4.117  18.178 -0.0922  0.2655 -0.9061
 2944TIP3    H133027   3.869   4.169  18.249  0.0452  1.3114 -1.7138
 2944TIP3    H233028   3.753   4.166  18.152 -1.7423 -1.5773  0.3672
 2945TIP3   OH233029   7.247   6.887  17.866  0.4412 -0.0303 -0.1310
 2945TIP3    H133030   7.234   6.957  17.930 -0.4841 -0.1450 -0.1837
 2945TIP3    H233031   7.339   6.895  17.840  0.1137  1.8128 -0.9022
 2946TIP3   OH233032   5.857   0.948  16.863 -0.5048  0.1699  0.2567
 2946TIP3    H133033   5.852   1.023  16.804 -0.7475 -0.4084 -0.4670
 2946TIP3    H233034   5.949   0.943  16.888 -0.2376 -0.0742 -0.7364
 2947TIP3   OH233035   4.959   6.565  16.386 -0.1601 -0.2708 -0.1604
 2947TIP3    H133036   4.988   6.646  16.427 -1.5262 -0.1785  0.7006
 2947TIP3    H233037   4.996   6.568  16.298 -1.3816  2.0184 -0.6608
 2948TIP3   OH233038   6.150   3.627  17.945 -0.4303 -0.1688  0.2037
 2948TIP3    H133039   6.233   3.639  17.897 -0.4781  2.1423  0.5624
 2948TIP3    H233040   6.175   3.582  18.025  0.5692  0.7691  0.4465
 2949TIP3   OH233041   5.115   0.886  17.563 -0.0719 -0.5086 -0.1841
 2949TIP3    H133042   5.021   0.887  17.543 -0.2106  1.7899  0.2727
 2949TIP3    H233043   5.154   0.833  17.494 -1.7079 -1.5354 -0.3627
 2950TIP3   OH233044   4.292   1.536  17.564  0.0501  0.2065  0.5728
 2950TIP3    H133045   4.227   1.598  17.597 -0.5394 -0.3312  0.4543
 2950TIP3    H233046   4.272   1.454  17.610 -1.5481 -0.8953 -1.8453
 2951TIP3   OH233047   6.342   5.128  17.701  0.1390  0.7046  0.7586
 2951TIP3    H133048   6.377   5.070  17.769  2.7030  2.0486  0.7191
 2951TIP3    H233049   6.408   5.127  17.632 -0.2191  2.8473  0.3122
 2952TIP3   OH233050   4.392   4.626  17.452  0.2961  0.4080 -0.2486
 2952TIP3    H133051   4.316   4.649  17.399  0.8735 -0.7815 -1.6673
 2952TIP3    H233052   4.444   4.706  17.458  0.0331  0.6566 -1.1935
 2953TIP3   OH233053   5.082   1.798  18.300  0.1317 -0.0862  0.2673
 2953TIP3    H133054   5.086   1.887  18.267 -0.0012 -0.4460 -0.7553
 2953TIP3    H233055   5.169   1.762  18.283  0.6935  0.3128  2.0906
 2954TIP3   OH233056   0.891   6.629  16.909 -0.1513  0.0309 -0.9576
 2954TIP3    H133057   0.864   6.538  16.894 -0.5114  0.1041 -0.7746
 2954TIP3    H233058   0.979   6.634  16.873  1.0904 -1.1724  1.6488
 2955TIP3   OH233059   4.498   0.081  16.556  0.0416  0.0669 -0.1062
 2955TIP3    H133060   4.463   0.062  16.469  1.1463  0.6612 -0.7090
 2955TIP3    H233061   4.593   0.073  16.546  0.2969  1.6857  0.6336
 2956TIP3   OH233062   6.207   5.300  17.453 -0.0213  0.3970  0.0297
 2956TIP3    H133063   6.213   5.221  17.400 -1.9594  0.5208 -0.4494
 2956TIP3    H233064   6.297   5.333  17.458  0.2279  0.6805 -3.6970
 2957TIP3   OH233065   0.830   4.008  17.255  0.6475  0.2213  0.1943
 2957TIP3    H133066   0.767   3.978  17.188 -0.3513  1.4908  0.5227
 2957TIP3    H233067   0.888   4.068  17.208  1.7447 -1.0493 -0.1376
 2958TIP3   OH233068   3.466   1.742  16.798  0.0280  0.6578 -0.2292
 2958TIP3    H133069   3.423   1.741  16.884 -0.9024 -1.2577 -0.6491
 2958TIP3    H233070   3.452   1.830  16.764  2.4456  2.2980  2.4950
 2959TIP3   OH233071   4.132   6.003  16.973 -0.0415 -0.0052  0.1642
 2959TIP3    H133072   4.066   6.056  16.928 -0.5640  0.7334  1.7229
 2959TIP3    H233073   4.163   6.059  17.044  0.7482 -1.1129  0.7259
 2960TIP3   OH233074   3.922   3.309  17.577 -0.4170 -1.0015 -0.1493
 2960TIP3    H133075   3.931   3.379  17.512 -1.7688  0.0587  0.7424
 2960TIP3    H233076   3.924   3.228  17.526  1.8044 -0.3804 -1.1578
 2961TIP3   OH233077   3.379   2.305  16.674 -0.7915 -0.1481 -0.0328
 2961TIP3    H133078   3.334   2.360  16.738  0.8495  0.8328  0.3292
 2961TIP3    H233079   3.465   2.345  16.663  0.8496 -3.0713  0.9064
 2962TIP3   OH233080   2.627   4.521  17.348 -0.3753  0.2422  0.4799
 2962TIP3    H133081   2.555   4.550  17.403 -0.4000  1.2463 -0.0733
 2962TIP3    H233082   2.625   4.579  17.272 -0.9643 -1.7268 -1.1032
 2963TIP3   OH233083   3.473   0.487  16.737 -0.2313  0.2582 -0.3386
 2963TIP3    H133084   3.471   0.570  16.689  1.2422 -0.1146 -1.1055
 2963TIP3    H233085   3.530   0.431  16.685 -1.1047 -1.2044  0.2380
 2964TIP3   OH233086   1.841   4.181  18.282  0.3349  0.6004 -0.5938
 2964TIP3    H133087   1.888   4.175  18.199 -0.0148  1.3016 -0.8473
 2964TIP3    H233088   1.888   4.247  18.332 -0.0720  0.9487 -0.6562
 2965TIP3   OH233089   4.689   0.225  16.788  0.0154  0.0858 -0.0437
 2965TIP3    H133090   4.635   0.162  16.836  1.7023 -0.0674  1.8350
 2965TIP3    H233091   4.734   0.173  16.722 -0.0244 -0.3201  0.2465
 2966TIP3   OH233092   3.431   2.871  17.897 -0.6446 -0.2267 -0.4418
 2966TIP3    H133093   3.375   2.812  17.949  1.2216  0.0964  2.1053
 2966TIP3    H233094   3.519   2.836  17.908  0.4446  2.5724  0.5466
 2967TIP3   OH233095   5.138   0.736  16.244 -0.7139 -0.1824 -0.2978
 2967TIP3    H133096   5.111   0.800  16.311 -1.2153 -1.3833  0.7058
 2967TIP3    H233097   5.213   0.692  16.283 -1.0994 -0.9918 -0.4479
 2968TIP3   OH233098   1.914   2.811  17.011  0.1113 -0.2799 -0.2365
 2968TIP3    H133099   1.871   2.802  17.096  0.4945 -0.1250 -0.0207
 2968TIP3    H233100   1.945   2.723  16.990  0.0440 -0.3120 -0.2000
 2969TIP3   OH233101   2.656   2.191  17.012  0.2974 -0.3856 -0.1396
 2969TIP3    H133102   2.700   2.246  17.078 -0.3042  0.2414 -0.2487
 2969TIP3    H233103   2.601   2.133  17.063 -2.0937  1.7475 -0.1085
 2970TIP3   OH233104   3.630   3.265  17.154  0.0113 -0.4697  0.3555
 2970TIP3    H133105   3.622   3.306  17.068  0.7181 -2.4893 -0.7498
 2970TIP3    H233106   3.695   3.318  17.200 -0.1156  0.4399 -0.4935
 2971TIP3   OH233107   2.335   2.696  16.630 -0.7670  0.0342 -0.2519
 2971TIP3    H133108   2.247   2.716  16.662 -1.1241 -1.4695 -0.2302
 2971TIP3    H233109   2.384   2.777  16.644 -2.1406  0.9071 -0.2805
 2972TIP3   OH233110   2.693   1.426  18.840 -0.2413  0.0867  0.1038
 2972TIP3    H133111   2.617   1.370  18.855 -0.2883 -0.1078 -0.7999
 2972TIP3    H233112   2.752   1.372  18.787  0.3109  0.4127  0.3776
 2973TIP3   OH233113   4.102   3.858  17.577  0.6185 -1.3252  0.1771
 2973TIP3    H133114   4.163   3.875  17.649  0.0816 -0.9498  0.5496
 2973TIP3    H233115   4.120   3.926  17.513 -0.4599 -0.2559  0.9780
 2974TIP3   OH233116   6.342   1.398  17.722  0.0157  0.1772  0.0943
 2974TIP3    H133117   6.315   1.446  17.643 -0.2461  0.5307  0.3940
 2974TIP3    H233118   6.268   1.408  17.782 -0.9399 -2.3203 -0.5591
 2975TIP3   OH233119   3.777   3.271  18.031  0.3569  0.0383 -0.2161
 2975TIP3    H133120   3.686   3.282  18.003  0.1312 -0.7647  0.1657
 2975TIP3    H233121   3.806   3.192  17.985  0.8486  0.2616 -0.2920
 2976TIP3   OH233122   1.121   7.609  17.526 -0.7603 -0.5085 -0.0772
 2976TIP3    H133123   1.107   7.627  17.619  0.1428  1.8922 -0.3365
 2976TIP3    H233124   1.211   7.635  17.509 -0.8926 -0.9142 -1.6128
 2977TIP3   OH233125   2.059   0.959  17.294 -0.0527  0.0301  0.1817
 2977TIP3    H133126   2.038   0.931  17.205  1.9947 -0.0852 -0.3147
 2977TIP3    H233127   2.118   1.033  17.282 -0.1617  0.3510  1.4647
 2978TIP3   OH233128   3.657   7.074  18.288  0.4945 -0.4242 -0.1793
 2978TIP3    H133129   3.570   7.068  18.249 -0.3889 -1.3467  1.7672
 2978TIP3    H233130   3.692   6.985  18.282  0.6779 -0.3914  0.3754
 2979TIP3   OH233131   6.988   4.332  17.720  0.3821 -0.8207 -0.1370
 2979TIP3    H133132   6.899   4.365  17.726  0.4909 -0.5603  0.0307
 2979TIP3    H233133   6.984   4.264  17.652 -0.0796 -1.2738  0.3408
 2980TIP3   OH233134   2.423   4.140  16.815  0.2147  0.1754 -0.2159
 2980TIP3    H133135   2.445   4.101  16.730  1.5749  0.0995  0.1480
 2980TIP3    H233136   2.347   4.195  16.797 -0.1650 -0.6479 -1.2630
 2981TIP3   OH233137   2.705   0.968  17.262 -0.4789  0.2974 -0.2784
 2981TIP3    H133138   2.681   1.054  17.229  0.2870  0.9906  0.8996
 2981TIP3    H233139   2.800   0.962  17.247 -0.4664 -0.2007 -0.0261
 2982TIP3   OH233140   1.334   3.538  17.943 -0.4162  0.3314 -0.1715
 2982TIP3    H133141   1.411   3.573  17.988  0.5083 -0.8595 -0.7612
 2982TIP3    H233142   1.310   3.605  17.880  0.6781  0.3693 -0.5724
 2983TIP3   OH233143   2.339   3.825  17.279 -0.1714 -0.3937  0.2868
 2983TIP3    H133144   2.321   3.800  17.188  0.2653 -1.0005  0.3534
 2983TIP3    H233145   2.256   3.816  17.324 -0.0175 -1.8964  0.3270
 2984TIP3   OH233146   6.251   1.123  16.822  0.3882  0.0579 -0.6826
 2984TIP3    H133147   6.205   1.069  16.758  0.3950 -0.8065  0.0305
 2984TIP3    H233148   6.191   1.128  16.896  1.0012 -0.1958 -0.1676
 2985TIP3   OH233149   3.061   3.850  16.755  0.2176  0.3280  0.3936
 2985TIP3    H133150   3.037   3.926  16.704  0.1782  0.0478 -0.0103
 2985TIP3    H233151   2.978   3.817  16.790 -0.0994 -0.9034 -1.3665
 2986TIP3   OH233152   5.640   6.777  16.827 -0.1596  0.0316  0.0803
 2986TIP3    H133153   5.674   6.832  16.897  0.1459  0.8809 -0.7123
 2986TIP3    H233154   5.715   6.727  16.796 -0.2436 -0.1643  0.1866
 2987TIP3   OH233155   5.140   4.233  16.952  0.6716  0.2913 -0.3337
 2987TIP3    H133156   5.090   4.283  17.017 -0.0574 -0.8441  0.0098
 2987TIP3    H233157   5.140   4.143  16.985  0.6870 -0.2231 -1.6569
 2988TIP3   OH233158   2.008   1.476  16.623 -0.7460  0.0772  0.5302
 2988TIP3    H133159   1.966   1.561  16.617 -0.2001  0.3188  0.0442
 2988TIP3    H233160   2.098   1.491  16.592 -0.4773 -0.5502  0.9864
 2989TIP3   OH233161   6.319   6.879  16.986 -0.1882 -0.3068  0.2997
 2989TIP3    H133162   6.271   6.954  17.019 -0.7461 -0.6765  0.3362
 2989TIP3    H233163   6.411   6.898  17.006 -0.2848  0.5146  0.0053
 2990TIP3   OH233164   5.286   6.559  16.609 -0.3800 -0.5913  0.0456
 2990TIP3    H133165   5.228   6.499  16.562 -0.9968 -1.0989  1.4065
 2990TIP3    H233166   5.352   6.584  16.545 -1.1921 -1.2541 -1.0822
 2991TIP3   OH233167   2.188   6.119  16.564  0.5909 -0.3743  0.0539
 2991TIP3    H133168   2.156   6.029  16.560 -0.6792 -0.0887  2.1983
 2991TIP3    H233169   2.197   6.137  16.658  4.6845  0.4654 -0.3082
 2992TIP3   OH233170   5.362   1.057  18.621 -0.8937  0.1442 -0.1835
 2992TIP3    H133171   5.449   1.023  18.641 -0.4271  1.6281  0.4468
 2992TIP3    H233172   5.328   1.087  18.706 -1.9154 -0.1323 -0.4702
 2993TIP3   OH233173   3.318   3.159  17.879 -0.8688  0.1233 -0.2796
 2993TIP3    H133174   3.282   3.135  17.794  2.1476  1.3608 -2.0210
 2993TIP3    H233175   3.381   3.090  17.898 -1.5449 -0.1692  1.0496
 2994TIP3   OH233176   3.088   4.775  18.207 -0.0719 -0.4134 -0.2704
 2994TIP3    H133177   3.069   4.681  18.205  0.9723 -0.6218 -1.3139
 2994TIP3    H233178   3.144   4.789  18.131  1.4034  0.7109  0.9854
 2995TIP3   OH233179   2.801   7.661  16.788  0.4901  0.6309 -0.8435
 2995TIP3    H133180   2.783   7.662  16.694 -0.5190 -0.3489 -0.6740
 2995TIP3    H233181   2.883   7.611  16.796 -0.8187 -1.6722 -1.0174
 2996TIP3   OH233182   5.923   7.391  18.516  0.3706  0.1981  0.1147
 2996TIP3    H133183   6.009   7.423  18.543  0.9877  0.5063 -2.0349
 2996TIP3    H233184   5.881   7.466  18.474 -0.5031 -0.2537  0.1551
 2997TIP3   OH233185   0.305   5.458  16.185  0.2472 -0.1523 -0.2643
 2997TIP3    H133186   0.258   5.508  16.251  0.4134 -0.8480  0.4093
 2997TIP3    H233187   0.378   5.419  16.233 -0.7152 -2.2539 -0.3741
 2998TIP3   OH233188   5.186   1.206  17.727  0.6033 -0.0303  0.1303
 2998TIP3    H133189   5.125   1.143  17.765  1.0700 -0.2630  0.5023
 2998TIP3    H233190   5.265   1.155  17.710  1.0391  0.4896  0.5813
 2999TIP3   OH233191   2.123   4.717  18.451  0.2328 -0.6021 -0.4632
 2999TIP3    H133192   2.194   4.772  18.485 -0.2129 -0.2524 -0.0693
 2999TIP3    H233193   2.138   4.713  18.357  0.9113 -0.7323 -0.3505
 3000TIP3   OH233194   3.739   0.537  17.809 -0.4075 -0.2015  0.1275
 3000TIP3    H133195   3.666   0.490  17.769 -0.2305  1.1109 -1.8143
 3000TIP3    H233196   3.698   0.596  17.872 -1.0992  0.8643 -1.2838
 3001TIP3   OH233197   6.845   3.545  16.881 -0.2714 -0.1566 -0.6038
 3001TIP3    H133198   6.914   3.521  16.819  0.9943  3.9083 -1.0598
 3001TIP3    H233199   6.884   3.612  16.936 -3.6728  2.0211 -0.5638
 3002TIP3   OH233200   1.628   2.709  18.201 -0.1154 -0.4319 -0.4578
 3002TIP3    H133201   1.657   2.799  18.187  0.2601 -0.2739  1.1652
 3002TIP3    H233202   1.599   2.679  18.114 -0.9737  1.5025 -0.8930
 3003TIP3   OH233203   7.060   6.617  18.040 -0.3633 -0.5961 -0.2458
 3003TIP3    H133204   7.132   6.679  18.026  0.6188 -1.6891 -0.2465
 3003TIP3    H233205   7.103   6.531  18.039 -1.7503 -1.3143 -0.7891
 3004TIP3   OH233206   3.033   6.837  17.567 -0.1477 -0.3930  0.4067
 3004TIP3    H133207   2.946   6.797  17.564 -1.2118  1.7241  1.4298
 3004TIP3    H233208   3.065   6.832  17.477 -1.7609 -0.2783 -0.1991
 3005TIP3   OH233209   5.236   5.039  17.090  0.1827  0.0116  0.2866
 3005TIP3    H133210   5.268   4.961  17.136  0.4078  0.6093  1.1789
 3005TIP3    H233211   5.314   5.094  17.079 -0.2357  0.7847  1.0617
 3006TIP3   OH233212   7.087   0.982  16.103  0.0719  0.0762  0.1888
 3006TIP3    H133213   7.057   0.923  16.034 -0.7930 -2.0691  2.2549
 3006TIP3    H233214   7.008   1.028  16.131 -0.4402 -1.8509  2.2001
 3007TIP3   OH233215   2.166   6.869  17.969  0.1774 -0.3921  0.1666
 3007TIP3    H133216   2.091   6.915  17.931  0.4675  0.2638  0.3723
 3007TIP3    H233217   2.240   6.898  17.917  0.6421  0.8184  1.4333
 3008TIP3   OH233218   1.963   6.472  16.447 -0.5072 -0.1194  0.4989
 3008TIP3    H133219   1.903   6.510  16.383 -2.4722  1.2514  2.9590
 3008TIP3    H233220   1.909   6.414  16.500  1.1336 -1.5646  0.6846
 3009TIP3   OH233221   1.052   4.186  18.323  0.5723  0.4940  0.3662
 3009TIP3    H133222   1.122   4.220  18.268 -1.3295  3.4655 -0.4680
 3009TIP3    H233223   1.005   4.125  18.267 -0.2719  2.1269 -0.7794
 3010TIP3   OH233224   1.537   0.524  17.820 -0.6367 -0.3857  0.2999
 3010TIP3    H133225   1.447   0.518  17.853 -1.3404  0.1353 -1.3984
 3010TIP3    H233226   1.564   0.433  17.808 -1.0431 -0.5405  0.5430
 3011TIP3   OH233227   6.021   0.553  17.312  0.4405  0.2921  0.9066
 3011TIP3    H133228   6.024   0.466  17.353 -1.7166 -0.3915 -0.2121
 3011TIP3    H233229   5.936   0.588  17.339  0.0859  0.8759 -0.8721
 3012TIP3   OH233230   5.565   7.599  17.958  1.0574  0.1681 -0.3941
 3012TIP3    H133231   5.524   7.544  17.891  0.9610 -1.7009  1.0953
 3012TIP3    H233232   5.657   7.571  17.960  0.7440 -0.9374  1.2284
 3013TIP3   OH233233   5.945   4.680  18.315  0.2229 -0.2111  0.6483
 3013TIP3    H133234   5.863   4.641  18.286  1.3843 -0.7766 -2.2170
 3013TIP3    H233235   5.925   4.772  18.328 -0.8086 -0.3077 -0.2060
 3014TIP3   OH233236   1.836   2.121  17.363  0.3985 -0.0401  0.4012
 3014TIP3    H133237   1.759   2.121  17.306  1.6512  0.5363 -1.3888
 3014TIP3    H233238   1.860   2.213  17.371  1.7703 -0.3063 -0.3576
 3015TIP3   OH233239   2.931   1.228  17.110  0.1975  0.4497  0.2329
 3015TIP3    H133240   2.957   1.173  17.037 -1.4794  0.3335 -0.3103
 3015TIP3    H233241   2.943   1.172  17.187  0.9531  0.2122 -0.0474
 3016TIP3   OH233242   6.987   3.822  16.117  0.6839 -0.3849 -0.3915
 3016TIP3    H133243   6.915   3.880  16.096  0.6335 -0.3535 -0.1228
 3016TIP3    H233244   7.001   3.772  16.036  0.3171 -0.4421 -0.4192
 3017TIP3   OH233245   1.662   6.534  17.944  0.4582  0.1999 -0.1209
 3017TIP3    H133246   1.709   6.593  17.884  0.2938  0.3265 -0.1260
 3017TIP3    H233247   1.592   6.497  17.890 -0.7808  1.6337  0.4221
 3018TIP3   OH233248   0.444   6.153  18.540 -0.9275 -0.0605 -0.0310
 3018TIP3    H133249   0.483   6.097  18.608 -1.9846 -0.0105  0.6390
 3018TIP3    H233250   0.446   6.241  18.577 -2.7240 -0.2217  0.5261
 3019TIP3   OH233251   2.506   0.756  17.696  0.1094  0.2748 -0.0042
 3019TIP3    H133252   2.490   0.818  17.624 -2.1380 -1.6143 -1.2474
 3019TIP3    H233253   2.551   0.683  17.655 -1.2665 -0.8647  0.4580
 3020TIP3   OH233254   6.165   7.024  18.332  0.0046  0.3380 -0.1044
 3020TIP3    H133255   6.079   7.064  18.331 -0.8147 -1.3512 -1.2880
 3020TIP3    H233256   6.217   7.076  18.270 -1.0484 -0.3926 -1.6636
 3021TIP3   OH233257   3.457   5.794  18.056  0.7567  0.6715  0.2272
 3021TIP3    H133258   3.438   5.730  18.124  0.7153 -1.0918 -1.3847
 3021TIP3    H233259   3.536   5.838  18.085 -1.1011  2.4585  3.0989
 3022TIP3   OH233260   1.519   0.136  16.718 -0.1359 -0.6541  0.1150
 3022TIP3    H133261   1.560   0.207  16.668  0.1567 -1.5326 -0.9369
 3022TIP3    H233262   1.429   0.132  16.685 -0.5693  0.1013  1.1473
 3023TIP3   OH233263   4.504   3.222  18.240  0.6566  0.1074  0.2187
 3023TIP3    H133264   4.461   3.214  18.326  1.0797 -0.0543  0.4190
 3023TIP3    H233265   4.481   3.310  18.211 -1.3894 -0.6142 -0.5531
 3024TIP3   OH233266   7.411   6.257  17.609 -0.2151 -0.4559 -0.0904
 3024TIP3    H133267   7.369   6.173  17.629 -0.8479  0.2467  1.7119
 3024TIP3    H233268   7.484   6.263  17.671  2.3382 -1.3737 -2.7440
 3025TIP3   OH233269   6.282   5.986  18.321 -0.1075 -0.2341 -0.0222
 3025TIP3    H133270   6.192   6.015  18.306 -0.2667 -0.3086  0.7560
 3025TIP3    H233271   6.329   6.065  18.347 -0.0618 -0.2807  0.0380
 3026TIP3   OH233272   3.286   1.072  19.166 -0.1197  0.4337  0.5354
 3026TIP3    H133273   3.202   1.091  19.208 -1.0044  1.1584 -1.4402
 3026TIP3    H233274   3.328   1.157  19.154 -0.4483  0.3988 -1.0978
 3027TIP3   OH233275   5.494   5.892  17.261  0.2657 -0.4746 -0.3448
 3027TIP3    H133276   5.544   5.972  17.276 -0.1297 -0.6367  2.2729
 3027TIP3    H233277   5.410   5.923  17.226  0.4944  0.1587 -0.3385
 3028TIP3   OH233278   1.262   2.918  17.430  0.0482  0.0080  0.4534
 3028TIP3    H133279   1.279   2.825  17.414 -0.0915  0.0650 -0.0295
 3028TIP3    H233280   1.194   2.941  17.367  0.3791  0.5411  0.2878
 3029TIP3   OH233281   5.824   5.921  17.144  0.1447 -0.0689  0.3772
 3029TIP3    H133282   5.774   5.997  17.114  0.3537  0.0288  0.2751
 3029TIP3    H233283   5.844   5.940  17.235 -1.2416 -0.7568  0.8555
 3030TIP3   OH233284   5.412   3.867  16.725  0.4066  0.3431  0.2561
 3030TIP3    H133285   5.378   3.942  16.774  0.5908 -0.1191  1.0921
 3030TIP3    H233286   5.503   3.889  16.707  0.8011 -0.1690  1.5150
 3031TIP3   OH233287   4.435   5.699  16.404  0.0176 -0.6312 -0.3618
 3031TIP3    H133288   4.415   5.695  16.497  0.0035  0.3231 -0.3223
 3031TIP3    H233289   4.399   5.782  16.374  1.0497 -0.3836 -0.9696
 3032TIP3   OH233290   3.903   7.366  16.978 -0.1000  0.6844 -0.0344
 3032TIP3    H133291   3.841   7.439  16.971 -1.1269 -0.2376 -1.0020
 3032TIP3    H233292   3.984   7.399  16.939 -0.5300  1.3317 -0.3934
 3033TIP3   OH233293   2.422   2.534  16.971 -0.2970  0.2977 -0.1357
 3033TIP3    H133294   2.355   2.564  17.032  0.2233  0.3704  0.4060
 3033TIP3    H233295   2.505   2.542  17.019  0.2993  1.6508 -1.2755
 3034TIP3   OH233296   0.891   4.794  17.947  0.0621  0.3134 -0.0897
 3034TIP3    H133297   0.850   4.729  18.004  0.3054 -1.8183 -2.1758
 3034TIP3    H233298   0.827   4.865  17.942 -0.6577 -0.1719  1.4736
 3035TIP3   OH233299   2.935   0.505  18.278  0.0277 -0.3281 -0.3245
 3035TIP3    H133300   2.857   0.450  18.276 -0.4561  0.2943  0.7453
 3035TIP3    H233301   2.902   0.595  18.272  0.7487 -0.1057 -1.1059
 3036TIP3   OH233302   0.744   4.061  18.499 -0.8717  0.0423  0.4746
 3036TIP3    H133303   0.742   4.154  18.522  0.4126  0.1959  0.0356
 3036TIP3    H233304   0.672   4.050  18.437 -1.6740  0.5208  1.3068
 3037TIP3   OH233305   6.049   7.535  16.022 -0.1418  0.1515 -0.3391
 3037TIP3    H133306   6.122   7.473  16.027 -1.0080 -0.8901 -0.1836
 3037TIP3    H233307   6.090   7.620  16.011  1.0676 -0.5296 -1.3186
 3038TIP3   OH233308   1.146   3.546  17.093  0.0591 -0.5426 -0.0385
 3038TIP3    H133309   1.169   3.563  17.185 -1.1907 -0.3887  0.2632
 3038TIP3    H233310   1.215   3.487  17.062  0.4562 -0.6623  1.0252
 3039TIP3   OH233311   3.757   7.478  16.709 -0.1162  0.3324 -0.1560
 3039TIP3    H133312   3.853   7.470  16.706  0.0392 -0.1537  3.1327
 3039TIP3    H233313   3.728   7.401  16.757 -2.0348  1.1958  0.1465
 3040TIP3   OH233314   3.567   4.183  18.084 -0.0620  0.1559 -1.2336
 3040TIP3    H133315   3.520   4.157  18.163  1.1391 -0.0626 -0.5522
 3040TIP3    H233316   3.546   4.115  18.020 -0.2584 -0.2287 -0.7721
 3041TIP3   OH233317   7.438   5.176  18.573 -0.0117  0.0813  0.1114
 3041TIP3    H133318   7.427   5.145  18.483 -0.1975  1.6509 -0.4323
 3041TIP3    H233319   7.435   5.271  18.566 -1.4602  0.2280  1.9727
 3042TIP3   OH233320   1.426   6.257  17.969  0.0145  0.1861 -0.6244
 3042TIP3    H133321   1.384   6.225  18.048  0.1050  1.7506  0.0996
 3042TIP3    H233322   1.518   6.235  17.980  0.0579  0.5719 -0.2004
 3043TIP3   OH233323   6.163   6.496  18.453  0.1522  0.0100  0.1494
 3043TIP3    H133324   6.122   6.552  18.386  0.0128  0.9511  0.9994
 3043TIP3    H233325   6.140   6.538  18.536 -0.5836 -1.7152  0.8739
 3044TIP3   OH233326   2.389   6.935  17.842 -0.1698  0.2646 -0.0634
 3044TIP3    H133327   2.361   7.004  17.782 -1.0398 -2.1865 -2.7382
 3044TIP3    H233328   2.468   6.899  17.802  0.2140 -0.3753  1.2056
 3045TIP3   OH233329   2.500   3.363  17.462  0.5461  0.3275 -0.3007
 3045TIP3    H133330   2.439   3.291  17.445  0.3635 -0.0579  1.6812
 3045TIP3    H233331   2.474   3.432  17.401 -0.6518 -0.5245 -0.7884
 3046TIP3   OH233332   2.247   1.698  16.741 -0.2290  0.2182 -0.3685
 3046TIP3    H133333   2.271   1.766  16.678  2.4285  0.1949  0.5086
 3046TIP3    H233334   2.246   1.617  16.690 -0.9013  0.5493 -0.9031
 3047TIP3   OH233335   0.568   1.861  17.273  0.3968  0.6144 -0.7418
 3047TIP3    H133336   0.597   1.800  17.340 -0.9072 -0.5970 -1.2286
 3047TIP3    H233337   0.597   1.822  17.191 -0.0443  0.8828 -1.0284
 3048TIP3   OH233338   6.213   2.053  18.375  0.5638 -0.3358 -0.1573
 3048TIP3    H133339   6.252   2.107  18.444 -0.1447  0.7457 -0.5597
 3048TIP3    H233340   6.119   2.052  18.396  0.0453  1.5392 -2.0310
 3049TIP3   OH233341   1.618   1.045  18.001  0.4876  0.0316  0.2998
 3049TIP3    H133342   1.630   0.980  17.932 -1.5084 -0.8230  0.6803
 3049TIP3    H233343   1.630   0.996  18.083  0.9076  0.6011  0.5903
 3050TIP3   OH233344   1.792   6.369  17.495  0.3257  0.4006 -0.6801
 3050TIP3    H133345   1.703   6.374  17.532  1.1765  1.5088  1.4463
 3050TIP3    H233346   1.786   6.415  17.412 -1.5389 -1.4801 -1.6708
 3051TIP3   OH233347   2.022   6.806  18.715  0.3430  0.0234  0.2296
 3051TIP3    H133348   2.031   6.718  18.752 -1.0088  0.1855  1.0378
 3051TIP3    H233349   2.111   6.834  18.697  0.7763 -1.9661 -1.1711
 3052TIP3   OH233350   6.163   3.860  17.412  0.0673  0.3477  0.4079
 3052TIP3    H133351   6.242   3.819  17.378  0.7768  0.5225  1.7741
 3052TIP3    H233352   6.147   3.934  17.353  0.7512  0.1523 -0.0403
 3053TIP3   OH233353   1.610   5.545  17.056 -1.0057 -0.5717 -0.0702
 3053TIP3    H133354   1.594   5.452  17.041  2.2104 -1.5928  1.8385
 3053TIP3    H233355   1.612   5.554  17.152  0.9062  0.9656 -0.1956
 3054TIP3   OH233356   4.148   4.564  16.458  0.3160 -0.0628 -0.1715
 3054TIP3    H133357   4.097   4.549  16.379 -0.1375  0.1746  0.0765
 3054TIP3    H233358   4.208   4.635  16.436 -0.6051  0.7978  0.0593
 3055TIP3   OH233359   2.938   6.424  17.863  0.5463 -0.2565  0.4662
 3055TIP3    H133360   2.965   6.507  17.901 -1.9559  0.5599  0.6048
 3055TIP3    H233361   3.014   6.366  17.874  1.7211  1.4842  1.9104
 3056TIP3   OH233362   5.308   0.249  16.699  0.3747 -0.1683  0.4060
 3056TIP3    H133363   5.314   0.277  16.608  1.1899  0.4417  0.6438
 3056TIP3    H233364   5.349   0.319  16.749  2.5549 -1.7689  1.0138
 3057TIP3   OH233365   3.205   0.291  17.851 -0.5584 -0.3936  0.7684
 3057TIP3    H133366   3.184   0.285  17.944  1.2107  1.1327  1.3234
 3057TIP3    H233367   3.190   0.383  17.829 -0.6037 -0.6608 -0.3685
 3058TIP3   OH233368   7.240   4.915  16.086 -0.1129 -0.0831 -0.6539
 3058TIP3    H133369   7.335   4.924  16.094 -0.2729  1.1808  0.1400
 3058TIP3    H233370   7.208   5.005  16.086 -1.4288 -0.5049  0.9577
 3059TIP3   OH233371   1.822   0.707  16.535 -0.4192  0.3531 -0.5679
 3059TIP3    H133372   1.858   0.763  16.467 -0.7181 -0.1286 -1.1383
 3059TIP3    H233373   1.775   0.639  16.487 -1.1308  0.3374  0.1288
 3060TIP3   OH233374   0.404   2.351  17.871  0.1736 -1.0645 -0.0893
 3060TIP3    H133375   0.316   2.326  17.897 -0.3307  1.2047  0.5701
 3060TIP3    H233376   0.423   2.297  17.794 -2.8033  0.1795 -1.8368
 3061TIP3   OH233377   3.627   5.930  17.398 -0.7433  0.0799  0.4985
 3061TIP3    H133378   3.577   5.853  17.426 -0.3044 -0.1222  0.7402
 3061TIP3    H233379   3.567   6.003  17.409 -0.7353 -0.0503  1.5524
 3062TIP3   OH233380   2.400   1.631  18.278 -0.6626  0.0890 -0.0799
 3062TIP3    H133381   2.483   1.615  18.323 -0.6061  0.8170  0.0930
 3062TIP3    H233382   2.334   1.596  18.337 -0.3757 -2.5156 -1.2015
 3063TIP3   OH233383   3.531   1.065  16.815  0.7436  0.6047 -0.2942
 3063TIP3    H133384   3.552   1.043  16.725  0.4157 -0.1315 -0.2077
 3063TIP3    H233385   3.614   1.057  16.862  0.9601  1.2175 -0.5703
 3064TIP3   OH233386   0.529   6.655  18.196  0.7564  0.1913  0.2022
 3064TIP3    H133387   0.568   6.590  18.138  1.4116  1.1489 -0.4438
 3064TIP3    H233388   0.503   6.727  18.139  0.0109  0.4967  0.9039
 3065TIP3   OH233389   7.024   4.948  18.628 -0.7151  0.2014  0.1158
 3065TIP3    H133390   7.104   4.985  18.665  0.3577 -1.4452 -0.4287
 3065TIP3    H233391   6.958   4.960  18.696 -0.0168  1.5125  0.6126
 3066TIP3   OH233392   6.644   7.599  18.111  0.5683 -0.5085 -0.2870
 3066TIP3    H133393   6.698   7.588  18.189  0.2106  1.3092  0.2791
 3066TIP3    H233394   6.673   7.683  18.074 -1.1162  0.0030 -0.5504
 3067TIP3   OH233395   0.010   4.259  17.691  0.4082  0.2002 -0.1899
 3067TIP3    H133396  -0.080   4.264  17.722  0.7651 -0.9269  1.1556
 3067TIP3    H233397   0.003   4.247  17.596 -0.8446  0.3213 -0.1267
 3068TIP3   OH233398   5.711   0.351  16.226 -0.2158 -0.0869  0.0114
 3068TIP3    H133399   5.769   0.420  16.258 -0.7758  0.5516 -0.3121
 3068TIP3    H233400   5.623   0.387  16.239 -0.5025 -0.6265 -0.4245
 3069TIP3   OH233401   2.084   2.357  16.679 -0.2021  0.1430 -0.0565
 3069TIP3    H133402   2.112   2.339  16.590 -0.8751 -1.6925  0.0564
 3069TIP3    H233403   2.163   2.349  16.732  0.0164  0.2355 -0.3716
 3070TIP3   OH233404   3.503   1.832  17.313 -0.1857 -0.4094  0.4722
 3070TIP3    H133405   3.419   1.793  17.290 -0.1569  0.3815 -1.0726
 3070TIP3    H233406   3.556   1.823  17.234  0.4870  0.9239  0.7457
 3071TIP3   OH233407   5.364   0.639  17.990 -0.2353 -0.2715  0.6282
 3071TIP3    H133408   5.305   0.696  17.940  0.0247 -0.4739  0.0815
 3071TIP3    H233409   5.427   0.698  18.030 -1.0307 -0.0120  1.5424
 3072TIP3   OH233410   4.107   7.554  18.603 -0.7484  0.3194  0.2953
 3072TIP3    H133411   4.019   7.577  18.634 -1.1401 -0.4239 -0.2201
 3072TIP3    H233412   4.100   7.557  18.508 -0.0649  0.7846  0.2594
 3073TIP3   OH233413   3.464   6.937  18.921  0.0674 -0.0720  0.5996
 3073TIP3    H133414   3.547   6.958  18.963 -0.1620 -1.3707  1.8130
 3073TIP3    H233415   3.451   7.005  18.855  1.4516  0.8871  1.2842
 3074TIP3   OH233416   1.093   7.389  18.277  0.1759  0.2091 -0.3176
 3074TIP3    H133417   1.087   7.307  18.325  0.0125  0.2364 -0.2878
 3074TIP3    H233418   1.179   7.387  18.235  0.5956  0.4925  0.5233
 3075TIP3   OH233419   1.847   4.916  18.131  0.4667  0.4666  0.3097
 3075TIP3    H133420   1.843   4.913  18.227  0.9840  1.6143  0.3768
 3075TIP3    H233421   1.872   4.826  18.106 -0.3758 -0.0319  1.1952
 3076TIP3   OH233422   4.650   5.898  16.828  0.0034  0.1238  0.2430
 3076TIP3    H133423   4.721   5.962  16.832  0.1056  0.1275 -1.1674
 3076TIP3    H233424   4.571   5.948  16.846  0.1721  0.4810 -0.0066
 3077TIP3   OH233425   4.366   6.931  17.069 -0.4489  0.4217  0.0448
 3077TIP3    H133426   4.349   6.919  17.162 -1.1036  0.3149 -0.0882
 3077TIP3    H233427   4.374   6.842  17.035 -1.7967  0.4125 -0.2898
 3078TIP3   OH233428   7.209   7.535  17.870  0.4596 -0.1827  0.0321
 3078TIP3    H133429   7.247   7.582  17.944  0.3951 -0.8901  0.5284
 3078TIP3    H233430   7.116   7.530  17.890  0.2091  0.8596 -0.8000
 3079TIP3   OH233431   1.373   5.230  18.406 -0.5719 -0.3769  0.1196
 3079TIP3    H133432   1.463   5.255  18.426 -0.4180  0.0489 -1.0526
 3079TIP3    H233433   1.320   5.303  18.436 -0.7413 -1.3887  2.4987
 3080TIP3   OH233434   6.357   3.504  16.853 -0.3853  0.0945  0.0190
 3080TIP3    H133435   6.413   3.469  16.784 -1.3950  1.2788 -1.4611
 3080TIP3    H233436   6.278   3.452  16.849 -0.2469 -0.1741  0.6589
 3081TIP3   OH233437   1.212   6.899  18.847  0.5202 -0.0034 -0.0311
 3081TIP3    H133438   1.282   6.893  18.912 -0.5947 -0.1819  1.1929
 3081TIP3    H233439   1.221   6.987  18.810  1.0789  0.1584  0.4780
 3082TIP3   OH233440   1.186   0.699  18.387 -0.4362 -0.2741 -0.2277
 3082TIP3    H133441   1.264   0.699  18.331 -0.9061 -1.6474 -0.9094
 3082TIP3    H233442   1.112   0.700  18.327 -0.9813  0.8279  0.4154
 3083TIP3   OH233443   0.079   3.306  15.669 -0.1267 -0.1981  0.0869
 3083TIP3    H133444   0.164   3.283  15.632  0.1859  1.4684 -0.3255
 3083TIP3    H233445   0.092   3.393  15.707 -1.8873  0.5692 -0.9173
 3084TIP3   OH233446   0.457   1.101  18.370  0.0925 -0.2323  0.7959
 3084TIP3    H133447   0.443   1.049  18.449 -1.6324 -1.5081 -0.2569
 3084TIP3    H233448   0.370   1.134  18.348  0.3058 -0.8116 -1.1351
 3085TIP3   OH233449   6.226   2.479  18.445 -0.4214 -0.0295 -0.3314
 3085TIP3    H133450   6.179   2.527  18.513  1.4476  0.5696  0.6064
 3085TIP3    H233451   6.178   2.498  18.364  0.0557  3.2985  0.0184
 3086TIP3   OH233452   3.095   0.427  17.479  0.4900  0.0082  0.0855
 3086TIP3    H133453   3.074   0.444  17.571  0.1262 -0.1854  0.0375
 3086TIP3    H233454   3.013   0.439  17.432  0.6787  0.1336 -0.2225
 3087TIP3   OH233455   5.144   4.283  18.218  0.3642 -0.0468 -0.5375
 3087TIP3    H133456   5.187   4.279  18.132  1.5670 -1.2555  0.0992
 3087TIP3    H233457   5.184   4.358  18.261  0.0457  0.3182 -0.8599
 3088TIP3   OH233458   5.340   1.982  16.720  0.0782 -0.4177  0.2407
 3088TIP3    H133459   5.402   2.015  16.785  0.4730  0.2725 -0.4687
 3088TIP3    H233460   5.258   1.971  16.769  0.2958  0.3355  0.7954
 3089TIP3   OH233461   4.754   2.287  17.769 -0.3297  0.0051 -0.2463
 3089TIP3    H133462   4.777   2.379  17.763 -0.6357  0.0420 -0.9700
 3089TIP3    H233463   4.681   2.276  17.708 -0.2486 -0.7338 -0.2260
 3090TIP3   OH233464   0.542   5.162  17.390  0.6946 -0.0404  0.3146
 3090TIP3    H133465   0.585   5.077  17.397 -2.2427 -1.7726 -0.5274
 3090TIP3    H233466   0.475   5.149  17.322  0.3059  3.0582 -0.0347
 3091TIP3   OH233467   7.340   2.871  17.259 -0.1879  0.0741  0.0813
 3091TIP3    H133468   7.303   2.800  17.206 -0.5860  1.3014 -1.3902
 3091TIP3    H233469   7.264   2.924  17.284  0.3503  2.1180 -2.1981
 3092TIP3   OH233470   2.057   7.228  18.295  0.1214  0.0494  0.5140
 3092TIP3    H133471   1.983   7.216  18.237  1.9278 -0.8522 -1.7683
 3092TIP3    H233472   2.067   7.145  18.341  0.6652 -0.4126 -0.4122
 3093TIP3   OH233473   3.998   0.012  17.648 -0.6661  0.3457 -0.3766
 3093TIP3    H133474   3.920  -0.008  17.595  0.1219  1.0938 -1.9013
 3093TIP3    H233475   4.066   0.030  17.583  0.1432  2.1571  0.9087
 3094TIP3   OH233476   0.303   4.280  18.088  0.1859 -0.6581  0.1394
 3094TIP3    H133477   0.280   4.298  17.997  0.4665 -0.8294  0.0325
 3094TIP3    H233478   0.314   4.185  18.092 -1.5097 -0.8615  0.7565
 3095TIP3   OH233479   7.187   3.411  18.632 -0.0895  0.9223 -0.5136
 3095TIP3    H133480   7.258   3.383  18.689 -0.6123 -0.4669 -0.4817
 3095TIP3    H233481   7.230   3.438  18.551  0.5841  1.8673  0.1468
 3096TIP3   OH233482   1.507   4.478  17.170 -0.3820  0.4743 -0.1953
 3096TIP3    H133483   1.571   4.504  17.104  0.2220  1.3474  0.6900
 3096TIP3    H233484   1.423   4.476  17.123  0.0233  1.1136 -0.9789
 3097TIP3   OH233485   5.177   0.622  17.719 -0.0679 -0.0508  0.3899
 3097TIP3    H133486   5.149   0.713  17.709  0.8204  0.2068  0.0969
 3097TIP3    H233487   5.111   0.582  17.775 -0.7566  0.6363  0.0889
 3098TIP3   OH233488   5.226   5.934  17.726 -0.6183 -0.0163  0.4835
 3098TIP3    H133489   5.201   6.026  17.717 -0.4073 -0.1240 -1.4961
 3098TIP3    H233490   5.206   5.895  17.641  1.5227 -1.2602  0.4769
 3099TIP3   OH233491   5.884   2.818  16.962 -0.3340 -0.1140 -0.3554
 3099TIP3    H133492   5.817   2.753  16.980  0.1018 -0.2732  0.7918
 3099TIP3    H233493   5.837   2.901  16.954 -0.6206 -0.1114  1.1301
 3100TIP3   OH233494   4.124   0.189  18.634  0.3862  0.2694  0.0692
 3100TIP3    H133495   4.030   0.201  18.650 -0.0942  0.5164 -2.5703
 3100TIP3    H233496   4.135   0.094  18.629  0.5260  0.1868  1.4506
 3101TIP3   OH233497   4.009   3.250  18.931 -0.1231  0.9734 -0.0242
 3101TIP3    H133498   3.943   3.196  18.888 -0.5158  1.8172 -0.5213
 3101TIP3    H233499   4.089   3.233  18.883 -0.6654  2.2900 -1.4749
 3102TIP3   OH233500   1.463   0.656  17.526  0.1826  0.1912 -0.0257
 3102TIP3    H133501   1.419   0.617  17.601 -0.5967 -0.4926 -0.8185
 3102TIP3    H233502   1.461   0.750  17.543 -3.9432  0.5161 -1.1638
 3103TIP3   OH233503   4.135   0.457  17.975 -1.1118 -0.5246  0.5513
 3103TIP3    H133504   4.110   0.527  17.915  1.0736 -0.6383 -0.5984
 3103TIP3    H233505   4.128   0.377  17.923 -2.3939 -1.0433  1.4865
 3104TIP3   OH233506   7.612   4.220  16.859 -0.2307 -0.0412 -0.1233
 3104TIP3    H133507   7.689   4.165  16.875 -0.4502 -0.4081 -0.3435
 3104TIP3    H233508   7.649   4.306  16.840  0.0711  0.4815  2.4763
 3105TIP3   OH233509   2.926   6.527  16.442 -0.2547 -0.3076  0.0552
 3105TIP3    H133510   2.845   6.526  16.392 -0.7442  0.0508  0.8190
 3105TIP3    H233511   2.963   6.440  16.431  1.1069  0.5465 -3.2075
 3106TIP3   OH233512   6.837   6.531  16.726 -0.2779 -0.2375  0.2433
 3106TIP3    H133513   6.786   6.539  16.645 -1.8994 -0.4678  1.1985
 3106TIP3    H233514   6.866   6.621  16.744  0.3817 -0.2330 -0.7436
 3107TIP3   OH233515   5.621   5.009  18.431 -0.0727  1.5250 -0.1659
 3107TIP3    H133516   5.602   5.089  18.480 -3.1217  1.0823 -0.4381
 3107TIP3    H233517   5.542   4.956  18.441  1.2229 -0.7611 -1.3689
 3108TIP3   OH233518   2.682   1.542  19.080  0.8485 -0.1251 -0.7558
 3108TIP3    H133519   2.595   1.575  19.058  0.7575 -1.3197 -2.4142
 3108TIP3    H233520   2.703   1.481  19.009  2.6329 -0.6049  0.1210
 3109TIP3   OH233521   4.884   3.766  17.164 -0.1010 -0.2625 -0.3128
 3109TIP3    H133522   4.959   3.823  17.179  0.2371 -1.0668  1.2524
 3109TIP3    H233523   4.867   3.725  17.249  1.2986 -4.4468 -1.7730
 3110TIP3   OH233524   1.435   2.183  18.361 -0.2986 -0.2623  0.3258
 3110TIP3    H133525   1.341   2.192  18.375 -0.0905 -0.1223  1.8095
 3110TIP3    H233526   1.454   2.241  18.288 -1.3127 -0.0260  0.2415
 3111TIP3   OH233527   2.286   3.791  17.724 -0.2079  0.2782  0.2087
 3111TIP3    H133528   2.287   3.707  17.678  1.7911 -0.3786  1.3375
 3111TIP3    H233529   2.243   3.772  17.808  0.3817  0.3417  0.5271
 3112TIP3   OH233530   0.368   7.409  16.724  0.4273  0.3289 -0.1999
 3112TIP3    H133531   0.371   7.501  16.699  1.4462  0.5552  0.6924
 3112TIP3    H233532   0.328   7.408  16.810 -1.8906 -0.3331 -1.2089
 3113TIP3   OH233533   7.642   6.253  17.099 -0.2874  0.1561  0.3133
 3113TIP3    H133534   7.616   6.286  17.185  0.2049  1.1619  0.0903
 3113TIP3    H233535   7.708   6.315  17.068 -1.2044  0.4198 -1.2512
 3114TIP3   OH233536   4.588   3.908  16.826  0.3877 -0.2016 -0.3117
 3114TIP3    H133537   4.549   3.828  16.789  0.3258  0.3746 -1.5738
 3114TIP3    H233538   4.681   3.900  16.806  0.0929  1.0322 -2.5173
 3115TIP3   OH233539   2.239   4.960  17.801  0.1202 -1.1802 -0.9568
 3115TIP3    H133540   2.204   4.982  17.887  0.2454 -1.7652 -0.7517
 3115TIP3    H233541   2.188   5.012  17.739  1.4570  0.9194 -0.3883
 3116TIP3   OH233542   5.045   5.749  17.816 -0.3319  0.1392  0.0891
 3116TIP3    H133543   5.112   5.815  17.800 -0.5189  0.2677 -0.1626
 3116TIP3    H233544   4.963   5.791  17.791 -0.5036 -0.0366  0.3424
 3117TIP3   OH233545   5.240   0.117  17.290 -0.0132 -0.0428  0.4688
 3117TIP3    H133546   5.149   0.144  17.281  0.4076  0.8164 -1.8053
 3117TIP3    H233547   5.276   0.176  17.356 -0.8927  0.0935  0.8432
 3118TIP3   OH233548   5.834   1.381  16.861  0.7942  0.2980  0.3781
 3118TIP3    H133549   5.749   1.340  16.846  1.7658 -1.3742 -0.8737
 3118TIP3    H233550   5.824   1.427  16.944 -2.0927  2.3030 -0.9027
 3119TIP3   OH233551   0.592   0.713  18.620 -0.2491 -0.1369 -0.3772
 3119TIP3    H133552   0.588   0.617  18.614  0.5631 -0.0990 -1.8225
 3119TIP3    H233553   0.683   0.734  18.599 -0.8318  1.0636 -1.8382
 3120TIP3   OH233554   5.572   3.069  16.703 -0.6432 -0.2662  0.1596
 3120TIP3    H133555   5.535   3.132  16.641  1.7731 -0.9503 -2.1354
 3120TIP3    H233556   5.554   2.983  16.664 -0.2842 -0.7974  1.1212
 3121TIP3   OH233557   3.053   5.243  16.142  0.2415  0.2739  0.0945
 3121TIP3    H133558   2.972   5.275  16.101 -0.4568  0.9486  1.9362
 3121TIP3    H233559   3.081   5.171  16.085 -0.6641  1.1728 -1.5652
 3122TIP3   OH233560   3.950   2.556  17.853 -0.7368  0.2502 -0.0195
 3122TIP3    H133561   4.026   2.604  17.821  0.5964 -1.7161 -0.0142
 3122TIP3    H233562   3.949   2.574  17.947  0.5867 -0.7449  0.2199
 3123TIP3   OH233563   3.289   5.348  17.331  0.0327 -0.0568  0.4265
 3123TIP3    H133564   3.220   5.319  17.271 -1.0718 -0.7313  1.9607
 3123TIP3    H233565   3.340   5.269  17.349 -0.6129 -0.2365  1.5790
 3124TIP3   OH233566   4.070   1.465  18.244  0.0306  0.0902  0.2351
 3124TIP3    H133567   4.055   1.544  18.192 -1.8486  1.0669  2.0773
 3124TIP3    H233568   4.065   1.496  18.335 -0.9341 -2.1743  1.0096
 3125TIP3   OH233569   3.686   0.765  16.892  0.1653  0.0348 -0.8308
 3125TIP3    H133570   3.711   0.765  16.799  2.0323 -0.3953 -0.3689
 3125TIP3    H233571   3.673   0.857  16.914 -0.3069  0.1378 -1.5031
 3126TIP3   OH233572   6.569   7.615  17.327  0.0539  0.3259 -0.1462
 3126TIP3    H133573   6.598   7.584  17.412 -0.0318  1.2998  0.2489
 3126TIP3    H233574   6.649   7.618  17.274  0.2155  0.3194  0.0952
 3127TIP3   OH233575   4.678   4.418  16.656  0.1133  0.1654 -0.4839
 3127TIP3    H133576   4.716   4.334  16.631 -1.3419 -0.9373  0.8029
 3127TIP3    H233577   4.599   4.426  16.602  0.2678  0.7385 -0.6355
 3128TIP3   OH233578   4.255   3.906  18.674 -0.1526  0.1766 -0.9069
 3128TIP3    H133579   4.205   3.829  18.646  0.4562 -0.4681 -0.2648
 3128TIP3    H233580   4.215   3.979  18.626 -1.9007 -0.2564 -0.1834
 3129TIP3   OH233581   2.102   5.200  18.239  0.2027 -0.1913  0.1836
 3129TIP3    H133582   2.100   5.168  18.329  0.1941  0.7400  0.5262
 3129TIP3    H233583   2.102   5.295  18.247  1.6859 -0.0741 -0.7534
 3130TIP3   OH233584   6.385   2.264  18.519 -0.2977  0.4020 -0.4096
 3130TIP3    H133585   6.364   2.352  18.490 -1.1496  0.4983  0.4488
 3130TIP3    H233586   6.480   2.263  18.527 -0.2006  0.9303 -1.3768
 3131TIP3   OH233587   1.108   3.159  17.625  0.3368 -0.1620  0.3844
 3131TIP3    H133588   1.195   3.177  17.663  0.1420  0.2423  0.6487
 3131TIP3    H233589   1.105   3.212  17.546  0.8625 -1.2413 -0.3807
 3132TIP3   OH233590   2.284   7.539  17.765 -0.6061 -0.4418  0.1366
 3132TIP3    H133591   2.216   7.484  17.803 -0.9279 -0.0060  0.1955
 3132TIP3    H233592   2.290   7.614  17.824  0.9702 -1.1653  0.9741
 3133TIP3   OH233593   5.994   4.097  16.350 -0.2806  1.3278 -0.3026
 3133TIP3    H133594   6.017   4.100  16.257 -2.2818  0.8269 -0.8549
 3133TIP3    H233595   5.902   4.121  16.353  0.2617  3.7255  1.8298
 3134TIP3   OH233596   3.457   3.716  18.062 -0.7146 -0.1238 -0.0954
 3134TIP3    H133597   3.378   3.717  18.008  0.1055  0.2790 -1.3389
 3134TIP3    H233598   3.453   3.633  18.109 -2.2230  0.2081  0.4166
 3135TIP3   OH233599   6.281   5.187  16.766  0.4681  0.6902 -0.9110
 3135TIP3    H133600   6.332   5.262  16.798  1.8024 -0.7055  0.3627
 3135TIP3    H233601   6.279   5.199  16.671  0.4974  2.4157 -0.7352
 3136TIP3   OH233602   7.482   0.568  17.317  0.1740 -0.0764 -0.3612
 3136TIP3    H133603   7.413   0.569  17.383  0.6227 -1.2502  0.1526
 3136TIP3    H233604   7.442   0.532  17.239  0.1270 -0.4852 -0.1497
 3137TIP3   OH233605   5.233   7.420  18.073 -0.0321 -0.4703  0.1702
 3137TIP3    H133606   5.231   7.515  18.084  1.3532 -0.3006 -0.7075
 3137TIP3    H233607   5.169   7.402  18.004  0.0965 -0.0953 -0.0516
 3138TIP3   OH233608   2.390   2.802  16.179  0.4014 -0.1307 -0.2272
 3138TIP3    H133609   2.436   2.783  16.098 -0.6256 -0.2278 -0.8038
 3138TIP3    H233610   2.413   2.893  16.199  2.0194 -0.6311  0.3127
 3139TIP3   OH233611   7.038   3.797  17.413  0.0656 -0.7605  0.3312
 3139TIP3    H133612   6.951   3.792  17.374  0.7677 -0.0801 -1.4865
 3139TIP3    H233613   7.082   3.717  17.385  0.0819 -1.0213  1.0926
 3140TIP3   OH233614   7.163   0.294  18.815 -0.2892  0.1753  0.3234
 3140TIP3    H133615   7.105   0.232  18.857 -1.0409  0.0496 -0.8442
 3140TIP3    H233616   7.248   0.249  18.811 -1.2655 -1.7427 -2.3470
 3141TIP3   OH233617   0.317   6.290  17.195 -1.0959 -0.2415 -0.2640
 3141TIP3    H133618   0.387   6.264  17.254 -1.1176  0.1241 -0.0754
 3141TIP3    H233619   0.243   6.234  17.219 -1.5949  0.9318  1.1106
 3142TIP3   OH233620   6.325   6.166  17.389 -0.1813  0.0838 -0.3900
 3142TIP3    H133621   6.268   6.218  17.333  0.2964  2.0031  0.8282
 3142TIP3    H233622   6.341   6.221  17.466 -0.4387 -2.2488  1.4581
 3143TIP3   OH233623   7.526   3.443  16.673  0.3021 -0.6497 -0.3450
 3143TIP3    H133624   7.600   3.456  16.733  0.8004 -1.3131 -0.8054
 3143TIP3    H233625   7.567   3.421  16.589 -0.4121 -0.5747 -0.7223
 3144TIP3   OH233626   5.058   4.915  16.927  0.2402  0.0576 -0.5577
 3144TIP3    H133627   5.107   4.835  16.906  0.6424 -0.0986  0.8656
 3144TIP3    H233628   5.122   4.972  16.969 -0.5343  0.2566  0.4090
 3145TIP3   OH233629   0.596   0.971  17.520 -0.0615  0.7714 -0.6725
 3145TIP3    H133630   0.588   1.061  17.551  0.5960  1.0061 -1.1595
 3145TIP3    H233631   0.556   0.918  17.589  1.1197  1.3025  0.4685
 3146TIP3   OH233632   3.358   0.321  16.911  0.4066 -0.1157  0.2894
 3146TIP3    H133633   3.376   0.337  17.003  0.5127 -1.9171  0.6104
 3146TIP3    H233634   3.420   0.377  16.864  1.8941 -0.8169  1.3391
 3147TIP3   OH233635   6.763   1.896  16.309  0.2533 -0.2134  0.2392
 3147TIP3    H133636   6.805   1.812  16.328  0.3880 -0.3868 -0.7413
 3147TIP3    H233637   6.828   1.962  16.335  0.4324 -0.4394  0.3627
 3148TIP3   OH233638   3.348   0.626  18.610 -0.2487 -0.7624  0.5863
 3148TIP3    H133639   3.302   0.601  18.530  1.0361  0.4232 -0.5674
 3148TIP3    H233640   3.368   0.719  18.600 -0.1468 -0.5476  2.3463
 3149TIP3   OH233641   7.508   3.948  18.604 -0.2439 -0.0931 -0.1598
 3149TIP3    H133642   7.464   3.933  18.520 -1.3426  1.7000  0.0374
 3149TIP3    H233643   7.547   3.864  18.626 -3.9909 -2.0299 -0.1726
 3150TIP3   OH233644   0.649   7.037  18.402 -0.8209 -0.2493  0.2085
 3150TIP3    H133645   0.722   6.976  18.413 -0.3385  0.1262 -0.8036
 3150TIP3    H233646   0.668   7.083  18.320 -2.3297 -0.3344 -0.2206
 3151TIP3   OH233647   6.465   0.322  17.835 -0.0389 -0.1849  0.6872
 3151TIP3    H133648   6.415   0.279  17.904  0.2311 -0.5299  0.6729
 3151TIP3    H233649   6.497   0.402  17.875 -1.8246  0.7924  0.2535
 3152TIP3   OH233650   1.190   2.131  17.345 -0.5792  0.2200 -0.5630
 3152TIP3    H133651   1.134   2.169  17.413  0.6961  1.4262 -0.1402
 3152TIP3    H233652   1.225   2.206  17.297  1.0569 -0.4380 -0.4918
 3153TIP3   OH233653   4.044   1.217  17.654 -0.2424 -0.6302  0.1510
 3153TIP3    H133654   3.979   1.201  17.723  0.7148  0.1563  1.2821
 3153TIP3    H233655   4.108   1.275  17.695  0.0946  0.2724 -1.5852
 3154TIP3   OH233656   0.267   3.584  17.270  0.4853 -0.8068  0.2401
 3154TIP3    H133657   0.352   3.544  17.249  0.7160 -0.3924  0.3639
 3154TIP3    H233658   0.267   3.591  17.365  0.3760 -0.6756  0.2304
 3155TIP3   OH233659   4.006   5.748  16.639 -0.0501 -0.0327  0.0341
 3155TIP3    H133660   3.921   5.789  16.628  0.3397  0.6983 -0.3750
 3155TIP3    H233661   3.992   5.677  16.701 -0.6431  1.0732  1.2080
 3156TIP3   OH233662   0.396   5.750  18.288  0.1138  0.0671  0.4180
 3156TIP3    H133663   0.359   5.729  18.202  0.8947 -0.1659  0.1305
 3156TIP3    H233664   0.444   5.671  18.313 -0.6228 -0.1085  1.3697
 3157TIP3   OH233665   6.030   4.984  16.755 -0.0423 -0.3652  0.0698
 3157TIP3    H133666   6.017   5.079  16.757 -0.9584 -0.4800 -0.3433
 3157TIP3    H233667   6.111   4.971  16.805 -0.0650  0.6038  0.3903
 3158TIP3   OH233668   7.109   0.105  18.442 -0.2654 -0.2609 -0.3100
 3158TIP3    H133669   7.146   0.017  18.437  0.4580  0.0886 -1.2169
 3158TIP3    H233670   7.030   0.094  18.496  0.5111 -1.2209  0.6710
 3159TIP3   OH233671   6.110   5.959  17.478  0.1511  0.4322  0.1947
 3159TIP3    H133672   6.130   6.033  17.535 -0.8966  0.4654  0.5332
 3159TIP3    H233673   6.068   5.998  17.402  0.4390  0.2652 -0.0561
 3160TIP3   OH233674   0.872   2.773  18.861 -0.7084  0.1936  0.5966
 3160TIP3    H133675   0.848   2.864  18.842  1.3350  0.7270  0.4049
 3160TIP3    H233676   0.835   2.723  18.789 -0.8406  1.0326  0.0698
 3161TIP3   OH233677   6.937   2.033  16.646 -0.6062  0.0017 -0.7631
 3161TIP3    H133678   6.843   2.034  16.663 -0.6922  0.8298 -1.2556
 3161TIP3    H233679   6.950   2.097  16.577  0.2252 -0.6825 -1.2590
 3162TIP3   OH233680   4.312   1.088  18.192  0.3176  0.0631 -0.4814
 3162TIP3    H133681   4.398   1.124  18.170  0.7990  0.9063  2.3549
 3162TIP3    H233682   4.328   0.994  18.206  1.3486  0.5107  2.0084
 3163TIP3   OH233683   3.110   2.020  17.614  0.1657 -0.2407  0.2018
 3163TIP3    H133684   3.152   2.097  17.652 -0.6823  0.6427 -0.5727
 3163TIP3    H233685   3.173   1.986  17.550  0.4861 -0.1083  0.4474
 3164TIP3   OH233686   5.011   6.565  17.694 -0.2652 -0.0780  0.1032
 3164TIP3    H133687   5.070   6.572  17.769 -0.7704 -1.5161  0.6805
 3164TIP3    H233688   4.924   6.560  17.733 -0.6492  0.5867 -0.6627
 3165TIP3   OH233689   2.015   2.019  17.697  0.0724  0.3323 -0.3931
 3165TIP3    H133690   2.067   1.974  17.764  1.4739  1.8668 -0.3721
 3165TIP3    H233691   2.067   2.011  17.617 -1.2422 -0.8523 -1.1748
 3166TIP3   OH233692   2.300   5.572  16.824 -0.2472 -0.0532 -0.5475
 3166TIP3    H133693   2.382   5.543  16.864 -0.2961 -0.8633 -1.0172
 3166TIP3    H233694   2.294   5.665  16.846  0.9981  0.1131 -0.8262
 3167TIP3   OH233695   1.546   3.440  18.584 -0.0726 -0.0503 -0.1562
 3167TIP3    H133696   1.614   3.392  18.631  0.4439  0.9384  0.1418
 3167TIP3    H233697   1.465   3.392  18.603  0.6620 -1.9368 -1.4670
 3168TIP3   OH233698   1.530   7.659  17.129  0.2330  0.2682  0.0183
 3168TIP3    H133699   1.451   7.615  17.100  1.2745 -0.8268 -1.2538
 3168TIP3    H233700   1.520   7.749  17.099 -1.0072  0.4352  0.8619
 3169TIP3   OH233701   0.555   2.142  17.403 -0.3532  0.3985 -0.3477
 3169TIP3    H133702   0.548   2.047  17.393 -0.9442  0.3851  0.1198
 3169TIP3    H233703   0.622   2.154  17.471 -0.3862  0.3090 -0.2983
 3170TIP3   OH233704   4.315   7.460  17.147 -0.1200 -0.1317 -0.0582
 3170TIP3    H133705   4.372   7.387  17.124  0.1182 -1.0340  2.9659
 3170TIP3    H233706   4.353   7.495  17.228 -2.2630  1.0462  0.4993
 3171TIP3   OH233707   3.539   1.722  17.862  0.1379  0.0456  0.5248
 3171TIP3    H133708   3.631   1.701  17.878 -0.0135  0.3974  2.0046
 3171TIP3    H233709   3.535   1.746  17.769  2.0912  2.7593  1.0159
 3172TIP3   OH233710   5.247   6.578  17.547 -0.3000 -0.3186  0.5735
 3172TIP3    H133711   5.208   6.602  17.462  0.0583 -2.7639 -0.3566
 3172TIP3    H233712   5.175   6.538  17.595 -0.0056 -0.8275  0.5927
 3173TIP3   OH233713   1.755   1.965  17.556 -0.0199  0.2011  0.0303
 3173TIP3    H133714   1.766   2.028  17.484  2.1430 -1.6266 -1.3802
 3173TIP3    H233715   1.835   1.973  17.608 -1.6090  1.6060  2.4849
 3174TIP3   OH233716   2.779   0.281  18.252  0.1712 -0.3113  0.3171
 3174TIP3    H133717   2.865   0.268  18.292  0.0244 -0.2262  0.6580
 3174TIP3    H233718   2.771   0.208  18.190  0.1395 -0.7996  0.8857
 3175TIP3   OH233719   6.339   4.578  16.805  0.2633  0.1032 -0.1619
 3175TIP3    H133720   6.385   4.595  16.887 -0.2044  0.6271 -0.0031
 3175TIP3    H233721   6.313   4.486  16.811 -0.2239  0.2795  0.5085
 3176TIP3   OH233722   2.915   1.709  18.370  0.7010  0.3800  0.0598
 3176TIP3    H133723   2.865   1.787  18.346 -0.9508 -0.2687  1.1650
 3176TIP3    H233724   2.958   1.733  18.452  1.4131  0.5997 -0.3685
 3177TIP3   OH233725   1.788   0.730  17.359  0.5713  0.3722  0.1162
 3177TIP3    H133726   1.779   0.679  17.439  0.1014  0.5821  0.1990
 3177TIP3    H233727   1.821   0.667  17.294  0.8154  0.1689  0.4320
 3178TIP3   OH233728   6.657   2.570  17.387 -0.7566  0.2736  0.2714
 3178TIP3    H133729   6.629   2.661  17.394  1.7450  1.1101  0.6967
 3178TIP3    H233730   6.652   2.536  17.477 -1.3855  0.0703  0.1647
 3179TIP3   OH233731   0.752   1.692  18.827  0.1523  0.0299  0.1817
 3179TIP3    H133732   0.830   1.734  18.792 -1.8312  0.7595 -4.0125
 3179TIP3    H233733   0.698   1.764  18.859  0.4940 -0.3040  1.5414
 3180TIP3   OH233734   4.553   0.466  16.731  0.4096  0.4167  0.5898
 3180TIP3    H133735   4.622   0.403  16.751  0.9882  0.7709 -0.1879
 3180TIP3    H233736   4.472   0.422  16.754  0.8381 -0.4202  0.5374
 3181TIP3   OH233737   2.213   5.926  17.421  0.1275  0.2485 -0.5973
 3181TIP3    H133738   2.302   5.890  17.413 -0.0015 -0.5324  1.0099
 3181TIP3    H233739   2.179   5.886  17.502 -2.2207 -0.5749 -1.9194
 3182TIP3   OH233740   4.417   4.071  17.190  0.1122 -0.6971 -0.1719
 3182TIP3    H133741   4.426   4.078  17.285  0.4081 -1.2004 -0.1587
 3182TIP3    H233742   4.462   4.148  17.156  1.0810 -1.1460  0.0538
 3183TIP3   OH233743   4.642   3.439  18.465 -0.1266 -0.4933 -0.2748
 3183TIP3    H133744   4.628   3.533  18.476 -0.7035  0.0458 -4.1335
 3183TIP3    H233745   4.554   3.403  18.454  0.1082 -1.4984  0.9758
 3184TIP3   OH233746   1.735   4.548  17.678  0.3016  0.4558  0.2948
 3184TIP3    H133747   1.772   4.468  17.714  1.7645  0.7935 -0.4104
 3184TIP3    H233748   1.749   4.614  17.745  1.9244  0.8063 -0.3462
 3185TIP3   OH233749   6.456   0.101  18.447 -0.4372  0.2459  0.1446
 3185TIP3    H133750   6.483   0.012  18.427 -0.4114  0.3982 -0.5247
 3185TIP3    H233751   6.375   0.113  18.396  0.6850  1.2992 -1.4983
 3186TIP3   OH233752   3.166   6.550  17.361  0.4237 -0.4820  0.0647
 3186TIP3    H133753   3.142   6.478  17.302  0.9483 -2.0794  1.7025
 3186TIP3    H233754   3.131   6.523  17.447 -0.0778  1.6218  0.5836
 3187TIP3   OH233755   0.849   0.584  18.474  0.2783  0.6068  0.2090
 3187TIP3    H133756   0.857   0.662  18.419  0.4125  0.2177 -0.3356
 3187TIP3    H233757   0.937   0.569  18.508  0.3364  0.4673 -0.0022
 3188TIP3   OH233758   2.222   6.747  17.642 -0.4809 -0.4247 -0.0146
 3188TIP3    H133759   2.255   6.706  17.722  0.5529 -0.3806 -0.4027
 3188TIP3    H233760   2.160   6.683  17.606  0.3734 -1.2321 -0.0975
 3189TIP3   OH233761   4.016   4.622  18.305 -0.0283 -0.0937 -0.2328
 3189TIP3    H133762   3.922   4.601  18.301  0.2856 -1.5097 -0.9716
 3189TIP3    H233763   4.058   4.551  18.256  1.4849  0.1398  0.6647
 3190TIP3   OH233764   4.629   5.056  18.455 -0.1885 -0.1582 -0.4552
 3190TIP3    H133765   4.581   5.138  18.465 -0.9897 -0.7282  0.5420
 3190TIP3    H233766   4.562   4.988  18.462  0.3251 -0.8991 -2.1418
 3191TIP3   OH233767   4.277   4.205  15.841  0.2103  0.1430 -0.5231
 3191TIP3    H133768   4.359   4.242  15.808 -0.3290  0.0307 -2.1144
 3191TIP3    H233769   4.267   4.123  15.792 -1.9094  1.2098 -2.0676
 3192TIP3   OH233770   3.365   3.884  17.622  0.1492 -0.2358 -0.2671
 3192TIP3    H133771   3.398   3.964  17.581 -1.4041  0.0074 -1.1365
 3192TIP3    H233772   3.443   3.834  17.645  1.0971  0.2136 -2.3532
 3193TIP3   OH233773   4.771   3.867  17.957  0.2874 -0.4200 -0.1058
 3193TIP3    H133774   4.851   3.893  18.003 -0.3243  1.1742  0.1225
 3193TIP3    H233775   4.725   3.949  17.941 -1.7395 -1.3637  0.5595
 3194TIP3   OH233776   2.505   7.631  16.325 -0.0537 -0.4936 -0.3096
 3194TIP3    H133777   2.501   7.723  16.354 -0.8175 -0.7088  0.2955
 3194TIP3    H233778   2.549   7.635  16.241  1.0431  0.2982  0.2713
 3195TIP3   OH233779   6.800   5.539  17.411  0.0187 -0.5677  0.1701
 3195TIP3    H133780   6.894   5.533  17.392 -0.0808  0.3894 -0.6996
 3195TIP3    H233781   6.793   5.522  17.505  0.9077 -2.0436  0.0054
 3196TIP3   OH233782   6.416   3.638  16.091  0.3827 -0.2842  0.1727
 3196TIP3    H133783   6.460   3.630  16.006  1.5641  1.3888  0.5833
 3196TIP3    H233784   6.485   3.624  16.155  0.0209  0.8099  0.8337
 3197TIP3   OH233785   4.167   2.078  17.832 -0.2563 -0.6602  0.2351
 3197TIP3    H133786   4.260   2.064  17.816  0.4226  0.4360  2.7769
 3197TIP3    H233787   4.133   1.991  17.854 -0.3027 -1.3895 -2.3509
 3198TIP3   OH233788   2.822   0.099  17.789 -0.5455 -0.1338  0.0604
 3198TIP3    H133789   2.820   0.026  17.727 -1.1693  0.1122 -0.2211
 3198TIP3    H233790   2.854   0.173  17.738 -0.8192  0.0107  0.0982
 3199TIP3   OH233791   1.178   6.620  18.887 -0.0393 -0.2621  0.8244
 3199TIP3    H133792   1.169   6.714  18.904 -0.3242 -0.6580  3.1532
 3199TIP3    H233793   1.271   6.608  18.870 -0.1605  0.5668 -0.5779
 3200TIP3   OH233794   2.152   6.987  17.501 -0.6419 -0.6675  0.3173
 3200TIP3    H133795   2.068   6.942  17.514 -1.1668  0.2397  0.1846
 3200TIP3    H233796   2.217   6.927  17.536 -1.2585 -1.7784 -0.3792
 3201TIP3   OH233797   6.119   5.761  18.588  0.2242 -0.7784 -0.3888
 3201TIP3    H133798   6.167   5.728  18.512 -1.0234 -1.2710 -0.9758
 3201TIP3    H233799   6.110   5.686  18.646 -0.4657 -0.8823 -0.6183
 3202TIP3   OH233800   1.489   0.210  17.014  0.2614  0.3407  0.1145
 3202TIP3    H133801   1.533   0.181  16.933  2.6185  2.3839  0.5287
 3202TIP3    H233802   1.433   0.282  16.986 -1.2396 -0.8466 -0.0721
 3203TIP3   OH233803   7.488   1.223  16.292 -0.2305  0.0238  0.0037
 3203TIP3    H133804   7.529   1.177  16.218  0.1736  0.3315  0.0286
 3203TIP3    H233805   7.451   1.302  16.254  0.1077  0.2574  0.1463
 3204TIP3   OH233806   7.046   0.737  16.268 -0.3130  0.5624  0.2238
 3204TIP3    H133807   7.053   0.716  16.175 -0.7797 -1.0374  0.5312
 3204TIP3    H233808   6.983   0.674  16.303  0.4142  0.6414  1.7779
 3205TIP3   OH233809   5.361   3.986  17.263  0.1589  0.2488  0.1113
 3205TIP3    H133810   5.396   4.058  17.210  0.7915  1.7327  2.3893
 3205TIP3    H233811   5.424   3.975  17.334 -0.5211 -1.8175  0.4608
 3206TIP3   OH233812   3.946   5.385  15.694 -0.5372 -0.7829 -0.1943
 3206TIP3    H133813   3.923   5.473  15.662 -1.5559 -1.1050 -0.3847
 3206TIP3    H233814   3.897   5.376  15.776  0.9463 -0.5165  0.7665
 3207TIP3   OH233815   7.047   0.403  16.888  0.2210 -0.0079  0.4337
 3207TIP3    H133816   7.143   0.403  16.897  0.0994 -0.9456  2.1396
 3207TIP3    H233817   7.018   0.475  16.944 -0.0558  1.0921 -1.0466
 3208TIP3   OH233818   0.240   3.748  16.789  0.1640  0.0672  0.6481
 3208TIP3    H133819   0.285   3.719  16.869  1.2448 -1.4564 -0.4655
 3208TIP3    H233820   0.194   3.670  16.758  0.0497  0.5481 -0.4171
 3209TIP3   OH233821   4.644   0.547  18.652  0.3204 -0.3026 -0.5838
 3209TIP3    H133822   4.623   0.634  18.683  1.7095 -0.1659  0.0630
 3209TIP3    H233823   4.565   0.517  18.606 -0.8865  0.4839  0.9156
 3210TIP3   OH233824   4.760   2.072  17.928 -0.3380  0.9220  0.5284
 3210TIP3    H133825   4.777   2.149  17.874 -0.8907  0.3833 -0.4274
 3210TIP3    H233826   4.826   2.077  17.997 -0.8562  2.6892  0.9617
 3211TIP3   OH233827   3.152   0.036  16.324 -0.0934  0.2623 -0.0755
 3211TIP3    H133828   3.130   0.099  16.255 -1.8511  0.5540  0.6895
 3211TIP3    H233829   3.241   0.010  16.304 -0.2358  0.9933 -1.9559
 3212TIP3   OH233830   1.851   2.407  17.333  0.0321 -0.5284  0.1589
 3212TIP3    H133831   1.883   2.497  17.329 -0.8646 -0.0844  1.9470
 3212TIP3    H233832   1.865   2.373  17.244 -1.0831  1.8910 -1.0505
 3213TIP3   OH233833   0.043   2.109  17.287 -0.4679 -0.0674 -0.3276
 3213TIP3    H133834  -0.001   2.119  17.372  1.2635  0.3237  0.5606
 3213TIP3    H233835  -0.028   2.089  17.226 -1.7018 -0.8937  1.2936
 3214TIP3   OH233836   1.613   5.086  17.656  0.1073  0.4705 -0.5116
 3214TIP3    H133837   1.572   5.068  17.740  0.4167 -1.0420 -0.6585
 3214TIP3    H233838   1.539   5.106  17.597 -0.2265  0.0964 -0.2245
 3215TIP3   OH233839   5.723   7.214  16.725  0.3919  0.4620  0.3704
 3215TIP3    H133840   5.780   7.256  16.660  0.1805 -0.3619 -0.3680
 3215TIP3    H233841   5.768   7.132  16.745  1.3980  1.4861  2.6591
 3216TIP3   OH233842   5.191   7.305  17.605 -0.0128  0.0134 -0.0168
 3216TIP3    H133843   5.117   7.248  17.587  0.6796 -1.4120  1.3958
 3216TIP3    H233844   5.253   7.288  17.534  0.8790 -2.3300  1.1927
 3217TIP3   OH233845   1.216   2.144  17.870  0.2503  0.3693 -0.4641
 3217TIP3    H133846   1.201   2.219  17.927 -1.0247 -0.1241 -0.1191
 3217TIP3    H233847   1.177   2.070  17.917  2.1697 -0.6832 -0.4294
 3218TIP3   OH233848   6.065   0.294  17.421 -0.2742 -0.0671 -0.1925
 3218TIP3    H133849   6.131   0.291  17.351 -1.3049  0.6567 -1.2341
 3218TIP3    H233850   6.098   0.235  17.488  1.0676 -0.2835 -1.0149
 3219TIP3   OH233851   4.263   5.402  17.253  0.1683  0.4941  0.0878
 3219TIP3    H133852   4.177   5.396  17.211  0.0575  0.7992  0.2709
 3219TIP3    H233853   4.321   5.434  17.184  0.5590 -1.6005 -0.6177
 3220TIP3   OH233854   2.871   5.767  18.102  0.3350  0.2034 -0.1692
 3220TIP3    H133855   2.918   5.689  18.075 -0.7711 -0.1450 -1.1892
 3220TIP3    H233856   2.779   5.747  18.083  0.0669  1.8806 -0.7841
 3221TIP3   OH233857   0.491   7.251  18.524 -0.6008 -0.1025  0.1593
 3221TIP3    H133858   0.399   7.251  18.495 -0.9728 -1.5019  1.1967
 3221TIP3    H233859   0.529   7.175  18.480 -0.1525  0.0077  0.3559
 3222TIP3   OH233860   0.065   4.447  16.766  0.2267  0.5731 -0.5214
 3222TIP3    H133861   0.026   4.495  16.838  0.7100 -0.7596  0.6700
 3222TIP3    H233862   0.076   4.512  16.697  1.7713  2.4405  1.3488
 3223TIP3   OH233863   2.625   6.431  18.071  0.4488 -0.4513  0.0477
 3223TIP3    H133864   2.720   6.421  18.074  0.3330 -1.6271  0.8068
 3223TIP3    H233865   2.592   6.358  18.124 -0.9141 -0.6163 -0.9782
 3224TIP3   OH233866   3.151   5.748  16.607 -0.5472  0.6933  0.3852
 3224TIP3    H133867   3.096   5.824  16.587  0.8947  1.8778  0.6844
 3224TIP3    H233868   3.240   5.783  16.608  0.4175 -1.4704 -1.6978
 3225TIP3   OH233869   4.047   7.075  18.793  0.0418  0.5406  0.3236
 3225TIP3    H133870   4.038   7.170  18.778 -0.9547  0.3647 -0.2796
 3225TIP3    H233871   4.142   7.060  18.794  0.2339  1.6387  1.1003
 3226TIP3   OH233872   1.878   6.246  17.183 -0.3789  0.4684 -0.0019
 3226TIP3    H133873   1.850   6.171  17.236  0.1762  0.2006 -0.0733
 3226TIP3    H233874   1.968   6.224  17.158 -0.5860  0.6495 -0.9402
 3227TIP3   OH233875   0.130   1.682  17.729  0.0815 -0.1438  0.9520
 3227TIP3    H133876   0.101   1.635  17.808  0.2348  0.9048  1.6466
 3227TIP3    H233877   0.050   1.692  17.677 -0.3039  0.3823  1.6261
 3228TIP3   OH233878   6.037   1.328  16.671 -0.4951 -0.0069  0.4283
 3228TIP3    H133879   6.123   1.293  16.694  0.4097  2.5764  1.2228
 3228TIP3    H233880   5.987   1.326  16.753 -1.3711 -1.7225 -0.0760
 3229TIP3   OH233881   6.604   5.662  16.897 -0.2304 -0.1641 -0.2343
 3229TIP3    H133882   6.589   5.694  16.986 -0.0205  0.1308 -0.3058
 3229TIP3    H233883   6.519   5.629  16.869 -0.9403  2.1128 -0.8988
 3230TIP3   OH233884   4.264   4.971  16.519  0.1808 -0.0011 -0.2673
 3230TIP3    H133885   4.313   4.902  16.473  0.1507 -0.9497  1.0691
 3230TIP3    H233886   4.275   4.951  16.612 -1.4652  0.6534  0.1126
 3231TIP3   OH233887   3.732   2.430  18.721 -0.7355 -0.7668 -0.0287
 3231TIP3    H133888   3.706   2.358  18.665 -1.5893 -0.9835  0.6196
 3231TIP3    H233889   3.650   2.474  18.744 -0.4575 -0.8954  1.3170
 3232TIP3   OH233890   4.117   3.706  18.047  0.4844  0.0154 -0.3915
 3232TIP3    H133891   4.170   3.750  17.981 -0.6212 -0.5474 -1.6980
 3232TIP3    H233892   4.130   3.613  18.030  1.6034 -0.1934  1.3743
 3233TIP3   OH233893   5.516   3.279  18.132  0.0885  0.5796  0.3723
 3233TIP3    H133894   5.489   3.362  18.171  0.8765  0.2305  1.7248
 3233TIP3    H233895   5.435   3.230  18.121 -0.2564  1.0754  0.6635
 3234TIP3   OH233896   1.848   4.612  17.261 -0.0784  0.2906 -0.0508
 3234TIP3    H133897   1.927   4.561  17.244 -0.7758 -1.1312  0.7735
 3234TIP3    H233898   1.777   4.548  17.254 -1.2480  1.6711 -1.4567
 3235TIP3   OH233899   5.528   3.867  17.681  0.6843 -0.3093  0.6664
 3235TIP3    H133900   5.581   3.875  17.601 -0.0842 -0.6637  0.1044
 3235TIP3    H233901   5.467   3.940  17.676  0.5698 -0.3908  0.8721
 3236TIP3   OH233902   7.053   4.283  18.573  0.1240 -0.5450 -0.4233
 3236TIP3    H133903   6.969   4.296  18.528 -1.0721 -0.7958  1.6059
 3236TIP3    H233904   7.074   4.191  18.559 -1.3184 -1.1699  1.1804
 3237TIP3   OH233905   6.690   3.531  17.144  0.8874 -0.5671  0.0796
 3237TIP3    H133906   6.762   3.551  17.084 -0.2388  0.1743 -1.0871
 3237TIP3    H233907   6.657   3.447  17.114  0.8663 -0.6069  0.2148
 3238TIP3   OH233908   4.395   6.897  18.180  0.0455 -0.3222  0.5027
 3238TIP3    H133909   4.365   6.846  18.105 -0.8744  2.1221 -0.9275
 3238TIP3    H233910   4.366   6.986  18.161  2.3543  0.9558  2.3749
 3239TIP3   OH233911   6.914   4.161  16.555  0.4315 -0.0639  0.6186
 3239TIP3    H133912   6.867   4.162  16.472 -0.1393  1.0849  0.9319
 3239TIP3    H233913   7.003   4.185  16.532  0.6406 -1.2207  0.1572
 3240TIP3   OH233914   5.469   6.781  17.907  0.4220 -0.0315  0.9014
 3240TIP3    H133915   5.389   6.764  17.957  0.5532 -0.6316  0.9090
 3240TIP3    H233916   5.493   6.696  17.869  0.0779  0.4957 -0.5651
 3241TIP3   OH233917   2.581   2.242  17.301 -0.7063  0.5937  0.1025
 3241TIP3    H133918   2.640   2.168  17.286  0.0680  0.9033  1.4168
 3241TIP3    H233919   2.620   2.288  17.376 -1.6394  1.8459 -0.1604
 3242TIP3   OH233920   2.258   2.270  18.708 -0.2599  0.2616 -0.0009
 3242TIP3    H133921   2.191   2.328  18.745 -1.3537 -1.0786  0.1877
 3242TIP3    H233922   2.243   2.272  18.614  0.2009  0.8626 -0.0689
 3243TIP3   OH233923   2.103   1.233  17.490 -0.1477  0.2527 -0.1389
 3243TIP3    H133924   2.014   1.238  17.456  0.2723  0.1018 -1.3098
 3243TIP3    H233925   2.120   1.320  17.527 -1.1950 -0.0916  1.2342
 3244TIP3   OH233926   3.416   1.704  18.750  0.3273 -0.4371 -0.6451
 3244TIP3    H133927   3.441   1.674  18.837  5.3216  1.1403 -1.2018
 3244TIP3    H233928   3.399   1.798  18.761  0.5979 -0.3059 -1.3183
 3245TIP3   OH233929   7.292   4.582  16.816 -0.2342 -0.2065 -0.3435
 3245TIP3    H133930   7.325   4.594  16.905 -0.2654 -0.1020 -0.3458
 3245TIP3    H233931   7.221   4.646  16.808 -0.6478 -0.6442 -0.2344
 3246TIP3   OH233932   5.059   7.526  17.346  0.4254  0.3813  0.5383
 3246TIP3    H133933   5.153   7.513  17.333  0.4236 -0.2104  1.0535
 3246TIP3    H233934   5.054   7.598  17.409  0.5414  0.3088  0.6326
 3247TIP3   OH233935   6.307   4.816  18.382 -0.1110 -0.0384  0.2949
 3247TIP3    H133936   6.382   4.836  18.439 -1.3995  1.9002  1.4349
 3247TIP3    H233937   6.313   4.721  18.367  2.2754 -0.0292  0.7089
 3248TIP3   OH233938   7.347   4.884  16.685  0.4168 -0.1753 -0.4689
 3248TIP3    H133939   7.350   4.903  16.779  1.8100 -1.8021 -0.1378
 3248TIP3    H233940   7.261   4.916  16.657 -0.2286 -0.0898  1.4519
 3249TIP3   OH233941   3.403   6.774  16.516  0.5089  0.1473  0.3402
 3249TIP3    H133942   3.359   6.857  16.530 -0.8614 -0.3358 -0.9068
 3249TIP3    H233943   3.359   6.713  16.575 -0.1733 -0.2266 -0.5403
 3250TIP3   OH233944   4.902   3.797  17.740 -0.6354 -0.0907  0.5735
 3250TIP3    H133945   4.836   3.805  17.808 -2.1772  2.2672 -1.0075
 3250TIP3    H233946   4.927   3.888  17.720  3.1418 -0.8450  1.0552
 3251TIP3   OH233947   6.971   2.950  17.119  0.0154 -0.1535 -0.7011
 3251TIP3    H133948   7.046   2.979  17.068 -0.3724  0.8505 -0.7213
 3251TIP3    H233949   6.996   2.965  17.210 -0.3247  0.6083 -0.7283
 3252TIP3   OH233950   1.975   6.329  18.530 -0.7373 -0.3218  0.1410
 3252TIP3    H133951   1.972   6.394  18.459 -0.9788 -0.0149  0.4301
 3252TIP3    H233952   1.894   6.278  18.519  0.3925 -1.9033 -1.3219
 3253TIP3   OH233953   7.137   4.672  18.097  0.0522  0.2807  0.6036
 3253TIP3    H133954   7.190   4.634  18.167  1.8297  0.6857 -0.4505
 3253TIP3    H233955   7.200   4.723  18.045 -1.0841 -0.4589 -1.5980
 3254TIP3   OH233956   6.515   0.101  17.598 -0.1876 -0.5771 -0.0500
 3254TIP3    H133957   6.509   0.158  17.521 -2.3622 -0.8250 -0.1413
 3254TIP3    H233958   6.526   0.161  17.672 -0.7678 -0.1274 -0.3177
 3255TIP3   OH233959   1.168   2.054  18.159 -0.2539  0.6191 -0.5438
 3255TIP3    H133960   1.159   2.099  18.243 -1.0243 -0.2782 -0.1323
 3255TIP3    H233961   1.236   1.988  18.174 -0.6617  0.2037 -0.5084
 3256TIP3   OH233962   3.230   2.767  17.700  0.1996  0.0933 -0.0284
 3256TIP3    H133963   3.238   2.745  17.792  2.2791 -2.2584 -0.6394
 3256TIP3    H233964   3.142   2.740  17.675  0.8870 -2.9235  0.4921
 3257TIP3   OH233965   0.294   4.331  16.898 -0.0662 -0.4537 -0.0899
 3257TIP3    H133966   0.306   4.395  16.828 -1.2775  0.5719  0.5994
 3257TIP3    H233967   0.235   4.266  16.861 -0.7671  0.1274 -0.0231
 3258TIP3   OH233968   2.680   3.953  17.055 -0.4387 -0.0738  0.1322
 3258TIP3    H133969   2.737   3.887  17.016  1.5012 -0.3428  3.0882
 3258TIP3    H233970   2.688   4.029  16.998  1.3845 -0.7357 -0.5609
 3259TIP3   OH233971   4.144   2.998  17.994 -0.0063  0.2412 -0.1767
 3259TIP3    H133972   4.137   2.911  17.956 -1.3383 -0.0743  0.7292
 3259TIP3    H233973   4.100   3.055  17.930  0.3563  0.1719 -0.4929
 3260TIP3   OH233974   2.201   3.241  17.189  0.4614 -0.2960  0.2711
 3260TIP3    H133975   2.107   3.260  17.189  0.6327  0.6238  0.8731
 3260TIP3    H233976   2.221   3.223  17.280  0.8737 -0.5201  0.1366
 3261TIP3   OH233977   5.443   2.445  16.848  0.0172  0.0003  0.4200
 3261TIP3    H133978   5.444   2.495  16.766 -0.0101 -0.0480  0.3907
 3261TIP3    H233979   5.512   2.380  16.838  0.1293  0.1063  0.5049
 3262TIP3   OH233980   4.017   6.208  17.772 -0.5181  0.0044  0.4261
 3262TIP3    H133981   4.105   6.177  17.793 -0.5922  0.4169  1.4176
 3262TIP3    H233982   3.985   6.147  17.705  1.1956  0.9261 -1.3329
 3263TIP3   OH233983   4.650   7.277  17.284  0.2346 -0.1945  0.6636
 3263TIP3    H133984   4.650   7.311  17.374  3.1913 -0.4885  0.8902
 3263TIP3    H233985   4.734   7.306  17.248  0.1277 -2.0029 -1.2290
 3264TIP3   OH233986   7.301   0.456  18.199 -0.2064  0.1495 -0.0309
 3264TIP3    H133987   7.390   0.467  18.166 -0.0313 -1.7998 -0.2884
 3264TIP3    H233988   7.281   0.540  18.240  0.6064  1.7291 -2.5825
 3265TIP3   OH233989   4.328   5.623  18.110  0.0639  0.3056 -0.0661
 3265TIP3    H133990   4.336   5.601  18.017  1.4307 -0.4757  0.2077
 3265TIP3    H233991   4.292   5.544  18.150  1.0635  0.0253  0.3026
 3266TIP3   OH233992   0.168   0.436  18.704  0.5193  0.0311  0.4061
 3266TIP3    H133993   0.128   0.357  18.668 -0.8935  0.7209  0.4169
 3266TIP3    H233994   0.261   0.428  18.681  0.0596 -0.6418 -1.4314
 3267TIP3   OH233995   0.032   3.053  16.871 -0.2334 -0.1533 -0.2438
 3267TIP3    H133996   0.047   2.999  16.949 -0.8671  0.4438  0.3049
 3267TIP3    H233997   0.066   3.139  16.895 -2.5917  0.6956  0.2938
 3268TIP3   OH233998   6.728   6.320  17.080  0.1458  0.0917  0.2437
 3268TIP3    H133999   6.742   6.338  16.986 -0.9190  2.1794  0.4093
 3268TIP3    H234000   6.793   6.254  17.102  0.7700 -0.0713 -1.8613
 3269TIP3   OH234001   1.919   5.294  16.742  0.2066 -0.5402  0.3196
 3269TIP3    H134002   1.986   5.362  16.748 -0.6479  0.3150  0.4057
 3269TIP3    H234003   1.906   5.281  16.648 -1.8499  1.7209  0.1945
 3270TIP3   OH234004   1.341   5.203  17.308 -0.0214 -0.2844 -0.0155
 3270TIP3    H134005   1.343   5.139  17.379 -0.6237 -0.5553 -0.2411
 3270TIP3    H234006   1.426   5.193  17.265 -0.6096 -1.8927 -0.8854
 3271TIP3   OH234007   0.367   4.045  17.720  0.2657 -0.5581 -0.4581
 3271TIP3    H134008   0.335   4.099  17.648 -1.4032  1.1108  1.3961
 3271TIP3    H234009   0.288   4.013  17.763  1.1995 -1.3581  0.7401
 3272TIP3   OH234010   6.253   4.310  16.637  0.3999 -0.6224 -0.4905
 3272TIP3    H134011   6.343   4.315  16.602  0.4333 -1.1293 -0.4805
 3272TIP3    H234012   6.198   4.335  16.563  0.5505 -0.1989 -0.4672
 3273TIP3   OH234013   5.970   2.135  17.996  0.0542 -0.5347  0.6573
 3273TIP3    H134014   5.927   2.066  17.944  0.2296 -2.2201  2.6479
 3273TIP3    H234015   5.901   2.166  18.055  0.1726  0.5432  0.2491
 3274TIP3   OH234016   0.407   6.672  18.503  0.3518  0.4593 -0.3398
 3274TIP3    H134017   0.425   6.685  18.410 -0.7538 -0.7803 -0.7496
 3274TIP3    H234018   0.412   6.760  18.541  0.7416  0.9891 -1.5788
 3275TIP3   OH234019   6.099   2.749  17.744  0.2185 -0.6176  0.1214
 3275TIP3    H134020   6.119   2.712  17.830 -0.2033 -0.8309  0.1314
 3275TIP3    H234021   6.042   2.685  17.702 -0.4584 -0.0247  0.1056
 3276TIP3   OH234022   1.288   6.043  18.111 -0.0936 -0.2399  0.3862
 3276TIP3    H134023   1.340   6.023  18.033 -1.5138 -0.1353 -0.6228
 3276TIP3    H234024   1.339   6.008  18.183  1.1839 -0.4848 -0.5986
 3277TIP3   OH234025   2.551   0.464  17.926 -0.0897  0.1494  0.0616
 3277TIP3    H134026   2.586   0.380  17.953 -0.0251  0.9412  2.7533
 3277TIP3    H234027   2.628   0.517  17.906  0.0206  0.3614  1.0139
 3278TIP3   OH234028   1.206   4.193  18.778  0.5289 -0.0595  0.8759
 3278TIP3    H134029   1.223   4.282  18.748 -0.6376 -0.0882  0.0632
 3278TIP3    H234030   1.222   4.196  18.873 -0.3667  1.2545  1.0135
 3279TIP3   OH234031   4.532   6.210  17.662  0.0532 -0.7807  0.7325
 3279TIP3    H134032   4.605   6.211  17.599 -0.8427 -0.6513 -0.3314
 3279TIP3    H234033   4.522   6.302  17.687  1.2003 -0.9809  2.0376
 3280TIP3   OH234034   0.222   5.762  16.974  0.1055 -0.3697 -0.6032
 3280TIP3    H134035   0.148   5.703  16.977  0.9750 -1.4833 -0.4012
 3280TIP3    H234036   0.230   5.787  16.882 -1.2420  0.7462 -0.4481
 3281TIP3   OH234037   2.342   5.707  16.354  0.8930 -0.0244  0.2915
 3281TIP3    H134038   2.286   5.783  16.369 -0.1249 -1.0020  1.6700
 3281TIP3    H234039   2.415   5.741  16.302  0.2205  1.7779  0.4586
 3282TIP3   OH234040   7.309   6.385  18.569 -0.6257  0.1640  0.1506
 3282TIP3    H134041   7.402   6.363  18.578 -0.5502 -0.2239 -1.4357
 3282TIP3    H234042   7.271   6.359  18.653  0.6173 -0.0622  0.6698
 3283TIP3   OH234043   6.407   2.954  17.823  0.4738  0.0428  0.7108
 3283TIP3    H134044   6.408   3.037  17.775 -0.4159 -0.0384  0.5486
 3283TIP3    H234045   6.322   2.915  17.803  0.0315  0.0449  2.4246
 3284TIP3   OH234046   3.819   4.165  17.418  0.2238 -0.1172  0.5648
 3284TIP3    H134047   3.854   4.117  17.343 -0.2481 -0.3471  0.4890
 3284TIP3    H234048   3.862   4.251  17.413  0.2636 -0.1597  0.0855
 3285TIP3   OH234049   7.636   1.937  16.855  0.3578 -0.5576 -0.3357
 3285TIP3    H134050   7.692   1.862  16.878  0.3497 -0.1395  1.1421
 3285TIP3    H234051   7.565   1.899  16.804  0.7189 -1.4638 -0.1914
 3286TIP3   OH234052   0.808   6.137  18.033  0.2801 -0.1853 -0.4752
 3286TIP3    H134053   0.759   6.192  18.094  0.0906  1.0131 -1.6482
 3286TIP3    H234054   0.900   6.157  18.050  0.2021  0.8554 -1.1694
 3287TIP3   OH234055   1.849   1.046  16.500  1.0007  0.2279 -0.0075
 3287TIP3    H134056   1.919   1.073  16.559  0.5509 -1.2701  1.2825
 3287TIP3    H234057   1.894   1.007  16.426  1.5556  1.4035 -0.3137
 3288TIP3   OH234058   5.408   2.960  18.232  0.0349 -0.2024 -0.2088
 3288TIP3    H134059   5.358   2.900  18.178  0.7196 -1.0242  0.0557
 3288TIP3    H234060   5.499   2.948  18.204  0.4035 -0.6201  1.0861
 3289TIP3   OH234061   4.089   1.737  16.559 -0.5404 -0.4402 -0.2294
 3289TIP3    H134062   4.067   1.824  16.524  0.7450 -0.1942 -0.4668
 3289TIP3    H234063   4.047   1.676  16.499 -0.0118  0.0059 -1.0724
 3290TIP3   OH234064   7.213   2.744  16.259 -0.1995  0.1389 -0.2157
 3290TIP3    H134065   7.200   2.718  16.351 -0.6872 -0.0579 -0.3362
 3290TIP3    H234066   7.186   2.667  16.209 -0.6380  0.5126 -0.5492
 3291TIP3   OH234067   4.274   0.057  18.031  0.6349  0.1712  0.0529
 3291TIP3    H134068   4.302   0.088  17.945  1.2853 -1.3592 -0.3252
 3291TIP3    H234069   4.189   0.099  18.045 -0.0974 -0.5012 -1.9167
 3292TIP3   OH234070   0.056   1.252  17.912 -0.8375  0.5048 -0.0486
 3292TIP3    H134071  -0.037   1.234  17.902 -0.2805 -2.8975 -0.2783
 3292TIP3    H234072   0.093   1.237  17.825  0.4502 -2.8112  0.9252
 3293TIP3   OH234073   2.725   2.505  17.054 -0.1894 -0.2809 -0.0822
 3293TIP3    H134074   2.802   2.450  17.042  0.4957  0.5511  0.4219
 3293TIP3    H234075   2.739   2.581  16.998 -0.3599  0.1559  0.4540
 3294TIP3   OH234076   2.900   0.906  15.575 -0.0563 -0.3829 -0.3423
 3294TIP3    H134077   2.814   0.866  15.587  0.4727 -1.4428 -0.0047
 3294TIP3    H234078   2.886   0.969  15.504 -1.1079 -0.5346 -0.2970
 3295TIP3   OH234079   3.164   0.013  16.882 -0.1552 -0.0532  0.3001
 3295TIP3    H134080   3.132   0.104  16.881 -1.9989 -0.6514 -0.6904
 3295TIP3    H234081   3.166  -0.011  16.974 -0.6326  0.6809  0.5126
 3296TIP3   OH234082   7.372   4.678  17.082 -0.2455 -0.0205 -0.0423
 3296TIP3    H134083   7.367   4.605  17.145  0.5529  1.1954  1.5038
 3296TIP3    H234084   7.359   4.756  17.135 -0.0319  1.0434 -1.4987
 3297TIP3   OH234085   7.129   5.649  18.417 -0.4306 -0.1880  0.6918
 3297TIP3    H134086   7.192   5.579  18.400  1.4712  1.6052 -0.1060
 3297TIP3    H234087   7.153   5.718  18.355 -1.7935  1.4448  1.8933
 3298TIP3   OH234088   2.228   4.636  18.194  0.9528 -0.3910 -0.0313
 3298TIP3    H134089   2.198   4.552  18.161 -0.5946  0.2840 -0.4112
 3298TIP3    H234090   2.323   4.626  18.203  1.1218 -1.3834 -2.3548
 3299TIP3   OH234091   1.401   6.467  17.808  0.5458 -0.0496 -0.1135
 3299TIP3    H134092   1.321   6.508  17.839  0.4663  1.0298 -1.6049
 3299TIP3    H234093   1.426   6.406  17.877 -0.1236  1.4834  1.5611
 3300TIP3   OH234094   4.662   1.476  17.106 -0.1445 -0.5342  0.0642
 3300TIP3    H134095   4.711   1.519  17.176  0.5380  0.6798 -1.1192
 3300TIP3    H234096   4.659   1.541  17.036  0.3337 -2.1819 -1.5455
 3301TIP3   OH234097   5.215   3.437  17.452  0.5908  0.4700  0.0567
 3301TIP3    H134098   5.269   3.409  17.526  2.0586  1.1092 -0.7183
 3301TIP3    H234099   5.172   3.517  17.483 -0.8989 -0.6943  1.0909
 3302TIP3   OH234100   1.410   1.600  17.161  0.0063 -0.6434 -0.8706
 3302TIP3    H134101   1.355   1.525  17.184 -0.7025 -0.1321 -0.8344
 3302TIP3    H234102   1.395   1.662  17.233  1.6956 -1.0224 -0.1521
 3303TIP3   OH234103   7.306   2.362  17.822 -0.9470 -0.1165 -0.3618
 3303TIP3    H134104   7.330   2.278  17.783 -1.0598 -0.6294  0.6344
 3303TIP3    H234105   7.358   2.427  17.775  0.8084 -0.9808  0.3007
 3304TIP3   OH234106   1.976   1.011  17.039 -0.0846  0.4073 -0.7480
 3304TIP3    H134107   1.973   1.024  16.944 -0.4036 -0.1291 -0.8152
 3304TIP3    H234108   1.974   1.100  17.075 -1.2482  0.5974 -1.2126
 3305TIP3   OH234109   7.668   3.388  18.173  1.2173 -0.5463 -1.0856
 3305TIP3    H134110   7.635   3.298  18.178  0.9109 -0.3597  0.8913
 3305TIP3    H234111   7.590   3.442  18.185  1.6531 -0.0435 -0.4664
 3306TIP3   OH234112   3.652   7.050  17.554  0.0365 -0.0529 -0.6997
 3306TIP3    H134113   3.709   7.050  17.630 -0.9979  0.8822  0.1149
 3306TIP3    H234114   3.705   7.012  17.484  1.6385  0.7844  0.0063
 3307TIP3   OH234115   0.636   6.793  16.635  0.4477 -0.0674 -0.1295
 3307TIP3    H134116   0.708   6.781  16.573 -1.5101 -2.5045 -2.1391
 3307TIP3    H234117   0.584   6.865  16.598  0.3023 -0.2327 -0.2436
 3308TIP3   OH234118   1.248   6.947  18.431 -0.3858  0.2659 -0.4789
 3308TIP3    H134119   1.269   6.854  18.432 -0.2045  0.3085  0.5538
 3308TIP3    H234120   1.333   6.991  18.426 -0.4501  0.3914 -0.4757
 3309TIP3   OH234121   5.490   2.989  18.518 -0.1054  0.3808  0.2164
 3309TIP3    H134122   5.410   2.968  18.565 -1.5984  0.4086 -2.1515
 3309TIP3    H234123   5.461   3.027  18.435  2.3098 -0.5844 -1.2099
 3310TIP3   OH234124   2.217   4.688  16.973  0.4404 -0.1283  0.0641
 3310TIP3    H134125   2.240   4.623  17.039  1.2520 -0.9403 -0.9954
 3310TIP3    H234126   2.126   4.710  16.992  0.3491 -1.0898  0.8150
 3311TIP3   OH234127   5.801   0.030  17.178 -0.3393  0.0231  0.4592
 3311TIP3    H134128   5.782  -0.063  17.172  1.0433 -0.2810  0.4109
 3311TIP3    H234129   5.852   0.049  17.099 -0.8336  0.8783  0.3380
 3312TIP3   OH234130   3.518   4.334  16.305 -0.1750 -0.1414  0.1564
 3312TIP3    H134131   3.610   4.316  16.287 -0.5866 -1.7510 -0.5607
 3312TIP3    H234132   3.489   4.258  16.356 -1.0511  0.4624  0.5867
 3313TIP3   OH234133   0.885   4.892  17.226  0.2225  0.0599  0.3409
 3313TIP3    H134134   0.971   4.934  17.221  0.0498  0.3130 -0.9783
 3313TIP3    H234135   0.887   4.825  17.158 -0.8426  0.5212 -0.1755
 3314TIP3   OH234136   3.124   3.305  18.437 -0.1860  0.6086  0.0584
 3314TIP3    H134137   3.165   3.239  18.382  0.3293  1.2804 -0.3776
 3314TIP3    H234138   3.194   3.334  18.496  0.2870  2.4728 -1.3424
 3315TIP3   OH234139   3.064   0.974  17.770 -0.1558  0.2632 -0.0139
 3315TIP3    H134140   3.072   0.922  17.850  0.4919  0.9336  0.3677
 3315TIP3    H234141   2.970   0.983  17.756 -0.2734 -0.3038  0.3675
 3316TIP3   OH234142   6.689   4.231  18.229  0.1433 -0.0283 -0.2605
 3316TIP3    H134143   6.700   4.253  18.136 -0.6881 -0.7229 -0.5329
 3316TIP3    H234144   6.612   4.280  18.256 -0.2269 -0.6391 -0.2088
 3317TIP3   OH234145   2.716   1.413  17.793 -0.6226 -0.6192 -0.3377
 3317TIP3    H134146   2.657   1.442  17.862 -1.3593 -0.7221 -0.9044
 3317TIP3    H234147   2.657   1.382  17.723  0.1062 -1.1442 -0.7351
 3318TIP3   OH234148   6.627   5.182  16.875  0.5108 -0.3843 -0.1272
 3318TIP3    H134149   6.574   5.257  16.904 -0.3620  0.2854 -3.0900
 3318TIP3    H234150   6.660   5.209  16.789  1.6579 -2.7350 -0.4853
 3319TIP3   OH234151   5.754   5.636  16.269  0.0535 -0.1454 -0.1518
 3319TIP3    H134152   5.746   5.727  16.297  0.6664 -0.9735  3.1173
 3319TIP3    H234153   5.831   5.636  16.212 -0.0367  1.3936 -0.3200
 3320TIP3   OH234154   1.796   5.825  17.640  0.0813  0.2539 -0.0573
 3320TIP3    H134155   1.835   5.759  17.582  1.3302 -0.1287  1.1373
 3320TIP3    H234156   1.706   5.796  17.653 -0.2591  0.3905 -1.8152
 3321TIP3   OH234157   1.301   6.171  17.591  0.3301 -0.3556 -0.2160
 3321TIP3    H134158   1.234   6.195  17.654 -0.1687 -0.9780 -0.4971
 3321TIP3    H234159   1.375   6.141  17.644 -0.5091 -1.9907  0.0772
 3322TIP3   OH234160   0.083   3.558  15.813 -0.1068  0.6794  0.5749
 3322TIP3    H134161   0.006   3.595  15.855  0.5811  0.8940  1.6985
 3322TIP3    H234162   0.138   3.634  15.793 -0.2265  0.5378 -0.3020
 3323TIP3   OH234163   6.837   0.582  16.731  0.2875 -1.0827 -0.0662
 3323TIP3    H134164   6.845   0.671  16.764 -1.3714 -1.0329  0.2843
 3323TIP3    H234165   6.916   0.537  16.762  1.4577  0.4019 -0.7881
 3324TIP3   OH234166   5.945   6.193  17.852  0.2428 -0.1940  0.0146
 3324TIP3    H134167   5.958   6.275  17.804 -0.8055  0.4529  0.7936
 3324TIP3    H234168   5.978   6.211  17.940  2.5180 -1.4954 -0.4791
 3325TIP3   OH234169   5.126   7.541  17.712 -0.0565 -0.1519 -0.2123
 3325TIP3    H134170   5.083   7.505  17.789 -0.2560 -1.0500 -0.7250
 3325TIP3    H234171   5.141   7.466  17.655 -1.3843  0.6878 -1.7645
 3326TIP3   OH234172   0.575   7.045  17.913 -0.4183 -0.3035  0.0882
 3326TIP3    H134173   0.514   6.997  17.970  0.3358  1.0212  2.1484
 3326TIP3    H234174   0.534   7.131  17.901  1.0324  0.6980  1.7083
 3327TIP3   OH234175   1.347   4.412  18.454 -0.1343  0.0034  0.3224
 3327TIP3    H134176   1.403   4.360  18.396 -1.6554  0.1804 -1.3993
 3327TIP3    H234177   1.366   4.503  18.430  1.9840  0.3416  2.8229
 3328TIP3   OH234178   4.948   0.321  16.165 -0.0640 -0.0320 -0.2121
 3328TIP3    H134179   4.950   0.408  16.123  0.1436 -0.1304 -0.4086
 3328TIP3    H234180   5.015   0.326  16.233  0.2785 -0.1929 -0.5350
 3329TIP3   OH234181   2.409   5.685  17.787 -0.1777  0.1167  0.3842
 3329TIP3    H134182   2.441   5.608  17.833  0.3896 -0.6029 -1.1257
 3329TIP3    H234183   2.450   5.759  17.831  1.4692 -0.6369  0.1721
 3330TIP3   OH234184   2.988   5.950  16.514 -0.4719  0.4294 -0.1898
 3330TIP3    H134185   3.070   5.981  16.475 -0.1169 -0.8647 -0.5449
 3330TIP3    H234186   2.921   5.980  16.453 -0.4724  2.8680  0.9123
 3331TIP3   OH234187   4.513   2.483  18.082  0.4260  0.0368  0.2788
 3331TIP3    H134188   4.540   2.408  18.135  1.0167 -0.1561 -0.2830
 3331TIP3    H234189   4.452   2.531  18.138  1.0689 -0.1352  1.1446
 3332TIP3   OH234190   6.319   5.642  16.965 -0.0571  0.3240 -0.3432
 3332TIP3    H134191   6.329   5.737  16.976  0.2275  0.3702 -0.9410
 3332TIP3    H234192   6.276   5.613  17.045  0.7570  0.8166  0.2934
 3333TIP3   OH234193   1.419   0.454  16.724  0.0641 -0.2915  1.0267
 3333TIP3    H134194   1.472   0.530  16.701 -0.3754 -0.1595  0.4096
 3333TIP3    H234195   1.379   0.427  16.641  2.1903 -2.7721  0.6758
 3334TIP3   OH234196   3.895   3.851  18.615  0.7356 -0.0841  0.4997
 3334TIP3    H134197   3.972   3.795  18.610  0.9371  0.3076 -1.6333
 3334TIP3    H234198   3.823   3.796  18.586  0.3231 -0.1949  1.6681
 3335TIP3   OH234199   4.736   7.208  17.839 -0.5832  0.3989  0.5069
 3335TIP3    H134200   4.717   7.156  17.761  0.4485  1.2520 -0.3567
 3335TIP3    H234201   4.758   7.143  17.906 -0.9905 -0.3389 -0.0578
 3336TIP3   OH234202   5.518   3.749  17.934  0.3571  0.2944 -0.3359
 3336TIP3    H134203   5.509   3.803  17.856  1.0141  0.3659 -0.3725
 3336TIP3    H234204   5.612   3.727  17.937 -0.0034 -1.4621 -0.7275
 3337TIP3   OH234205   4.379   2.793  18.399 -0.2441 -0.4384 -0.4270
 3337TIP3    H134206   4.457   2.847  18.388  0.0630 -0.8504 -0.3207
 3337TIP3    H234207   4.325   2.811  18.322 -0.1036 -0.0605 -0.4394
 3338TIP3   OH234208   2.583   4.677  17.982 -0.0590  0.8971 -0.3049
 3338TIP3    H134209   2.560   4.676  18.075  1.6781  0.0885  0.1498
 3338TIP3    H234210   2.640   4.753  17.973 -0.2358  0.9801 -0.7281
 3339TIP3   OH234211   4.622   0.895  16.653 -0.6806 -0.1660  0.3774
 3339TIP3    H134212   4.567   0.911  16.729 -1.6250 -0.8943 -0.1346
 3339TIP3    H234213   4.565   0.909  16.578  0.3483  0.9570 -0.2236
 3340TIP3   OH234214   7.134   6.606  16.979  0.0524 -0.3185  0.4317
 3340TIP3    H134215   7.176   6.568  17.056 -1.2427 -1.5182  0.5792
 3340TIP3    H234216   7.043   6.577  16.984 -0.7103  1.8070 -0.1332
 3341TIP3   OH234217   1.636   1.845  18.588 -0.5336  0.2034 -0.0952
 3341TIP3    H134218   1.635   1.788  18.664  0.5488 -0.1804 -0.3572
 3341TIP3    H234219   1.610   1.788  18.515 -0.5342  0.3127 -0.1801
 3342TIP3   OH234220   2.285   3.549  17.589  0.1993  0.4046 -0.9443
 3342TIP3    H134221   2.281   3.537  17.494  0.5606 -2.1394 -0.7002
 3342TIP3    H234222   2.347   3.483  17.619  0.1678  1.2242  1.0786
 3343TIP3   OH234223   3.705   0.816  18.724  0.1413  0.1015  0.3866
 3343TIP3    H134224   3.661   0.790  18.643 -1.2710 -0.5453  1.3218
 3343TIP3    H234225   3.761   0.741  18.746  2.5545  1.2552 -1.2638
 3344TIP3   OH234226   0.637   6.238  16.765  0.6283  0.2244 -0.1760
 3344TIP3    H134227   0.598   6.259  16.680  0.8321  0.1534 -0.2877
 3344TIP3    H234228   0.571   6.265  16.829  0.1488 -0.4221 -0.3808
 3345TIP3   OH234229   4.866   2.755  16.874 -0.1405  0.5306  0.6211
 3345TIP3    H134230   4.932   2.686  16.868  0.4538  0.9180  2.0831
 3345TIP3    H234231   4.905   2.829  16.828  0.5804  0.8166  1.6344
 3346TIP3   OH234232   2.206   3.711  16.633  0.2116 -0.1212 -0.0806
 3346TIP3    H134233   2.299   3.715  16.653  0.2904 -1.0257 -0.2528
 3346TIP3    H234234   2.194   3.774  16.561  0.4250  1.0299  0.8572
 3347TIP3   OH234235   1.346   5.924  17.841 -0.0880  0.4269  0.0549
 3347TIP3    H134236   1.261   5.899  17.805  0.2577 -1.0549  0.1999
 3347TIP3    H234237   1.357   5.867  17.917  1.3052  0.1640 -0.3259
 3348TIP3   OH234238   4.485   2.013  19.202 -0.3149  0.3995 -0.0548
 3348TIP3    H134239   4.494   2.108  19.196  3.2542  0.1383 -1.3973
 3348TIP3    H234240   4.510   1.981  19.115 -1.8080 -1.8024  0.2441
 3349TIP3   OH234241   4.310   4.769  16.727  0.1123  0.3943  0.2523
 3349TIP3    H134242   4.259   4.694  16.698 -0.2445  0.5262  0.5235
 3349TIP3    H234243   4.301   4.768  16.823 -0.3739  1.1108  0.2212
 3350TIP3   OH234244   2.405   1.061  16.469  0.2119  0.5464  0.3209
 3350TIP3    H134245   2.500   1.063  16.478  0.1420  0.8036  1.1411
 3350TIP3    H234246   2.383   1.148  16.436  0.0836  1.4019  2.4693
 3351TIP3   OH234247   1.805   5.057  16.868  0.0259 -0.1074 -0.7555
 3351TIP3    H134248   1.806   5.076  16.961  1.3997  0.7180 -0.9191
 3351TIP3    H234249   1.826   5.140  16.825  1.5973 -0.9386 -1.6865
 3352TIP3   OH234250   7.622   0.109  17.567 -0.0121  0.0393  0.6253
 3352TIP3    H134251   7.608   0.112  17.661  0.3111  1.2930  0.6557
 3352TIP3    H234252   7.647   0.198  17.544  0.3274 -0.3500 -0.5871
 3353TIP3   OH234253   2.082   6.077  17.116 -0.0082  0.0844  0.0419
 3353TIP3    H134254   2.150   6.112  17.174 -1.0681  1.2011  0.6738
 3353TIP3    H234255   2.078   5.984  17.137  0.2889  0.2928  1.0989
 3354TIP3   OH234256   3.979   0.385  18.489  0.6835 -0.4881 -0.2923
 3354TIP3    H134257   4.003   0.409  18.400  1.8707 -1.8281 -0.3760
 3354TIP3    H234258   4.063   0.374  18.534  0.1147 -0.4238  0.8190
 3355TIP3   OH234259   6.985   0.828  17.248 -0.4008 -0.5486 -0.4500
 3355TIP3    H134260   7.072   0.828  17.289  0.3096  0.9219 -1.8007
 3355TIP3    H234261   6.925   0.847  17.320  0.3408 -1.9191  0.5738
 3356TIP3   OH234262   7.020   7.196  17.841 -0.4016 -0.1199 -0.2869
 3356TIP3    H134263   6.943   7.175  17.894 -0.8677  0.0367 -0.8940
 3356TIP3    H234264   7.094   7.163  17.892 -0.8547 -0.1314  0.3793
 3357TIP3   OH234265   6.805   4.785  17.889  0.0003 -0.3242 -0.5534
 3357TIP3    H134266   6.716   4.804  17.918  0.1687 -1.8577  1.1083
 3357TIP3    H234267   6.829   4.704  17.934  2.4925  0.3955 -0.4150
 3358TIP3   OH234268   4.508   2.734  18.750 -0.5377  0.6469  0.2020
 3358TIP3    H134269   4.420   2.696  18.745 -0.3493  0.3200 -0.8606
 3358TIP3    H234270   4.550   2.686  18.821 -1.2518  0.8844  0.7987
 3359TIP3   OH234271   5.565   3.653  18.334 -0.3695  0.2973  0.8378
 3359TIP3    H134272   5.516   3.629  18.413 -1.3204  1.2220  0.5561
 3359TIP3    H234273   5.657   3.647  18.361 -0.3777 -4.5166  0.4800
 3360TIP3   OH234274   5.170   6.378  18.153 -0.0688  0.3136  0.4525
 3360TIP3    H134275   5.182   6.312  18.221 -1.5071 -0.4213  0.0226
 3360TIP3    H234276   5.161   6.460  18.202  0.1073 -0.0309  1.0755
 3361TIP3   OH234277   7.037   3.689  16.705  0.5692 -0.3448 -0.2047
 3361TIP3    H134278   6.962   3.705  16.649  0.9497  1.8180 -0.1797
 3361TIP3    H234279   7.057   3.774  16.744  2.9279 -0.8613 -0.1090
 3362TIP3   OH234280   7.073   5.852  17.921  0.1262 -0.0344  0.4026
 3362TIP3    H134281   7.105   5.924  17.975 -0.8495  0.3972  0.4279
 3362TIP3    H234282   7.007   5.808  17.975 -1.5916  1.0057 -0.7561
 3363TIP3   OH234283   4.000   6.625  17.944  0.4214  0.5232 -0.6693
 3363TIP3    H134284   3.909   6.597  17.935  0.1728  0.9215  0.4336
 3363TIP3    H234285   4.046   6.578  17.875  0.2437 -3.4552  1.5620
 3364TIP3   OH234286   4.452   4.178  16.886  0.7049 -0.0677  0.1447
 3364TIP3    H134287   4.396   4.191  16.810  1.9832  1.1137 -0.6422
 3364TIP3    H234288   4.487   4.089  16.876  0.5810 -0.0505 -0.4470
 3365TIP3   OH234289   5.827   6.487  18.568  0.0865  0.5585  0.5828
 3365TIP3    H134290   5.835   6.477  18.473  0.1613 -0.0218  0.6455
 3365TIP3    H234291   5.804   6.579  18.580  1.8665  1.1138  0.0932
 3366TIP3   OH234292   4.535   0.242  18.478  0.7647 -0.0342 -0.2444
 3366TIP3    H134293   4.526   0.196  18.561  2.1943 -0.1301 -0.1260
 3366TIP3    H234294   4.536   0.173  18.411  1.6662 -0.1011 -0.1683
 3367TIP3   OH234295   0.019   5.833  18.525  0.7903  0.2410  0.1458
 3367TIP3    H134296  -0.044   5.879  18.580  0.0555  1.3426 -1.5266
 3367TIP3    H234297   0.103   5.873  18.545  0.5303  0.6655  0.4105
 3368TIP3   OH234298   5.640   0.955  18.601  0.4695  0.3145 -0.5971
 3368TIP3    H134299   5.623   0.986  18.512 -1.5527  1.2574  0.0756
 3368TIP3    H234300   5.711   1.012  18.632 -0.3237  1.4845 -0.8523
 3369TIP3   OH234301   5.045   5.712  17.174 -0.2789 -0.4118 -0.0654
 3369TIP3    H134302   4.961   5.740  17.211 -1.0111 -1.2949 -0.9907
 3369TIP3    H234303   5.048   5.753  17.088  1.0438  0.9765  0.5957
 3370TIP3   OH234304   2.197   5.898  16.904  0.3216 -0.5647  0.3467
 3370TIP3    H134305   2.292   5.892  16.911  0.3303  0.3010  1.1657
 3370TIP3    H234306   2.164   5.860  16.986 -0.0845 -1.5701 -0.2548
 3371TIP3   OH234307   3.087   4.720  17.666 -0.4129 -0.0500 -0.0691
 3371TIP3    H134308   3.129   4.637  17.644  0.7074  0.7579 -1.1104
 3371TIP3    H234309   3.054   4.707  17.755 -2.5178 -2.4549 -1.0708
 3372TIP3   OH234310   7.524   1.844  18.716  0.0754  0.0134 -0.3944
 3372TIP3    H134311   7.432   1.825  18.735 -0.7651  1.7321 -2.3638
 3372TIP3    H234312   7.564   1.758  18.703 -1.3042 -0.7552  0.2978
 3373TIP3   OH234313   5.235   6.842  16.301 -0.4702  0.3175  0.2975
 3373TIP3    H134314   5.322   6.827  16.338  0.4694  1.2015 -1.4343
 3373TIP3    H234315   5.215   6.933  16.325 -0.7197  0.2537  0.3301
 3374TIP3   OH234316   2.388   0.953  17.063 -0.4047 -0.2787  0.6484
 3374TIP3    H134317   2.428   1.007  16.995  1.3572 -0.7650  1.2240
 3374TIP3    H234318   2.351   1.016  17.125 -0.8218  0.1887 -0.0573
 3375TIP3   OH234319   5.388   5.713  17.828 -0.1893  0.1696 -0.2156
 3375TIP3    H134320   5.394   5.806  17.807  1.9352 -0.3230 -2.2803
 3375TIP3    H234321   5.316   5.681  17.773  0.3627  0.2779 -1.0310
 3376TIP3   OH234322   4.542   1.257  16.241  0.0181  0.0104 -0.3604
 3376TIP3    H134323   4.634   1.258  16.266 -0.0253  0.6599 -0.2246
 3376TIP3    H234324   4.516   1.165  16.250  0.3749 -0.0031  0.6427
 3377TIP3   OH234325   1.246   6.690  17.636  0.0524 -0.3537  0.2047
 3377TIP3    H134326   1.337   6.713  17.651 -0.2737  1.2576 -0.0591
 3377TIP3    H234327   1.234   6.697  17.542 -0.7136  1.1007  0.3727
 3378TIP3   OH234328   1.399   1.871  18.191 -0.2167 -0.1848  0.6859
 3378TIP3    H134329   1.409   1.776  18.195 -0.7295 -0.4131 -1.7451
 3378TIP3    H234330   1.485   1.902  18.161 -0.6021 -0.0825 -0.3284
 3379TIP3   OH234331   6.551   0.771  17.852 -0.3600  0.5441 -0.5054
 3379TIP3    H134332   6.590   0.829  17.786 -2.7911  0.7178 -1.9143
 3379TIP3    H234333   6.504   0.830  17.911 -2.7001  0.1553 -1.8466
 3380TIP3   OH234334   4.612   6.867  16.839  0.1261 -0.5161  0.6393
 3380TIP3    H134335   4.695   6.847  16.795  1.2518 -0.6117  2.6911
 3380TIP3    H234336   4.594   6.958  16.816 -0.2508 -1.0412 -1.3623
 3381TIP3   OH234337   4.973   6.251  18.579 -0.9009 -0.0185 -0.1412
 3381TIP3    H134338   4.941   6.332  18.538 -1.2983 -0.3333 -0.4691
 3381TIP3    H234339   5.046   6.224  18.523 -0.1049  0.6509  0.5545
 3382TIP3   OH234340   0.617   1.932  17.606  0.5145 -0.4110  0.4607
 3382TIP3    H134341   0.621   1.846  17.566 -0.7787 -1.3438  2.1713
 3382TIP3    H234342   0.694   1.936  17.663 -0.0073 -0.9087  1.2142
 3383TIP3   OH234343   4.042   3.416  18.027  0.4640 -0.1559  0.0426
 3383TIP3    H134344   4.028   3.479  17.956 -0.1714 -0.6025 -0.2324
 3383TIP3    H234345   3.955   3.402  18.065  0.5142 -1.2337 -0.2102
 3384TIP3   OH234346   4.942   5.140  17.309  0.2081 -0.4898 -0.3384
 3384TIP3    H134347   4.865   5.185  17.342  0.9684  1.1551 -0.7057
 3384TIP3    H234348   4.968   5.082  17.381 -1.7327 -1.6129 -0.4773
 3385TIP3   OH234349   7.099   0.459  16.609  0.2452 -0.0145  0.3221
 3385TIP3    H134350   7.125   0.522  16.677 -0.8137  1.4848 -0.5887
 3385TIP3    H234351   7.048   0.394  16.656  0.4207  0.4158  1.1391
 3386TIP3   OH234352   6.624   3.325  18.030 -0.2206 -0.1908 -0.0492
 3386TIP3    H134353   6.586   3.400  17.984 -2.1293  0.0827  1.8103
 3386TIP3    H234354   6.673   3.278  17.963 -1.0619  1.3399 -1.8391
 3387TIP3   OH234355   3.771   7.399  17.300  0.0744 -0.4630 -0.1548
 3387TIP3    H134356   3.808   7.484  17.325 -0.0501 -0.4776  0.0782
 3387TIP3    H234357   3.846   7.349  17.268  0.8494 -1.5260  2.9804
 3388TIP3   OH234358   4.717   0.494  17.076 -0.2872  0.0617  0.6750
 3388TIP3    H134359   4.759   0.463  17.156  2.2321  0.7391 -0.3004
 3388TIP3    H234360   4.765   0.453  17.005 -1.0836  1.1241 -0.5413
 3389TIP3   OH234361   6.169   1.473  18.330  0.0484 -0.0171 -0.8026
 3389TIP3    H134362   6.102   1.501  18.268  0.3241  0.8915 -0.7058
 3389TIP3    H234363   6.202   1.554  18.368 -1.2818 -0.6033  1.8114
 3390TIP3   OH234364   3.057   1.230  18.847  0.0146  0.0211  0.0214
 3390TIP3    H134365   2.988   1.183  18.800 -0.1580 -0.0738  0.3648
 3390TIP3    H234366   3.023   1.319  18.856 -0.6402 -0.3268  1.3049
 3391TIP3   OH234367   7.221   0.161  16.333 -0.6832 -0.1333  0.4110
 3391TIP3    H134368   7.275   0.117  16.267  0.2479 -1.5786  2.0643
 3391TIP3    H234369   7.131   0.148  16.302 -0.2468 -0.3667 -0.8131
 3392TIP3   OH234370   7.489   0.958  18.061 -0.2823  0.9953 -0.2999
 3392TIP3    H134371   7.496   0.988  17.970  0.2169 -0.1540 -0.6675
 3392TIP3    H234372   7.579   0.951  18.091 -0.4675  2.0209  0.5251
 3393TIP3   OH234373   5.154   7.599  16.361 -0.3703 -0.8278  0.0409
 3393TIP3    H134374   5.137   7.505  16.357 -1.1179 -0.6658 -1.7871
 3393TIP3    H234375   5.124   7.632  16.276  0.9830  0.8840  0.1732
 3394TIP3   OH234376   6.933   5.715  16.629  0.8502  0.2783  0.0231
 3394TIP3    H134377   6.959   5.794  16.677 -0.4622  1.3057 -0.8873
 3394TIP3    H234378   6.956   5.733  16.538  2.7532 -1.4045  0.0809
 3395TIP3   OH234379   0.980   4.938  17.609  0.5075  0.0345 -0.3038
 3395TIP3    H134380   0.886   4.920  17.613  0.2809  0.8252 -1.5196
 3395TIP3    H234381   1.020   4.851  17.610 -0.3797 -0.4593 -2.2957
 3396TIP3   OH234382   2.763   4.269  16.913  0.1807 -0.4478 -0.0281
 3396TIP3    H134383   2.777   4.253  16.819  0.9209 -3.9697  0.5496
 3396TIP3    H234384   2.801   4.355  16.928 -0.2677  0.3818 -3.0029
 3397TIP3   OH234385   6.728   3.663  16.266 -0.2077  0.8212  0.1500
 3397TIP3    H134386   6.759   3.753  16.263 -2.2478  1.5761  0.7615
 3397TIP3    H234387   6.732   3.639  16.359  3.7403 -1.0604 -0.2872
 3398TIP3   OH234388   5.033   0.812  18.127  0.0587 -0.1377 -0.3514
 3398TIP3    H134389   5.099   0.746  18.150 -0.2141 -0.9015 -1.6671
 3398TIP3    H234390   5.047   0.827  18.034  0.1345  1.7151 -0.0756
 3399TIP3   OH234391   4.230   2.535  16.522 -0.3163  0.0876  0.0773
 3399TIP3    H134392   4.226   2.627  16.497 -2.3535  0.2395  0.7557
 3399TIP3    H234393   4.234   2.536  16.618 -0.3343 -0.5138  0.0881
 3400TIP3   OH234394   3.916   6.104  17.363  0.4611  0.7405  0.0889
 3400TIP3    H134395   3.915   6.051  17.442  0.3425 -0.1916 -0.5216
 3400TIP3    H234396   3.938   6.042  17.293 -2.3646  0.8961 -1.0496
 3401TIP3   OH234397   1.451   4.021  16.991 -0.1651 -0.8507 -0.3290
 3401TIP3    H134398   1.420   3.944  17.038  1.8528  0.0382  2.7753
 3401TIP3    H234399   1.537   3.997  16.958 -0.9650 -0.9759 -2.5049
 3402TIP3   OH234400   5.361   1.344  19.044  0.1126 -0.1084  0.0550
 3402TIP3    H134401   5.295   1.355  19.113  0.5695 -0.3853  0.5443
 3402TIP3    H234402   5.430   1.407  19.066  0.2886 -0.2403 -0.1119
 3403TIP3   OH234403   5.558   7.289  16.931 -0.1688 -0.0576 -0.5446
 3403TIP3    H134404   5.466   7.292  16.905 -0.5829 -0.6285  0.8118
 3403TIP3    H234405   5.605   7.283  16.848 -1.3942 -0.6568 -1.2313
 3404TIP3   OH234406   1.707   6.706  18.458  0.2249  0.3037 -0.1160
 3404TIP3    H134407   1.727   6.727  18.549 -1.3074 -1.9571  0.8647
 3404TIP3    H234408   1.666   6.785  18.423  0.5480  1.1104  1.2469
 3405TIP3   OH234409   4.486   4.113  16.600  0.2979  0.0417 -0.4682
 3405TIP3    H134410   4.576   4.133  16.571  0.1230  0.9189 -0.4493
 3405TIP3    H234411   4.495   4.036  16.655  1.3849  1.4221  1.3940
 3406TIP3   OH234412   0.261   4.202  17.485  0.3486  0.3587  0.5177
 3406TIP3    H134413   0.176   4.184  17.445  0.5748 -1.2831  0.7207
 3406TIP3    H234414   0.251   4.288  17.525 -1.0556  0.4055  0.1063
 3407TIP3   OH234415   3.450   1.945  18.383 -0.1478  0.5668  0.0727
 3407TIP3    H134416   3.484   1.950  18.472 -0.6153  0.6341  0.2474
 3407TIP3    H234417   3.385   2.015  18.377 -0.1302  0.5546 -0.3163
 3408TIP3   OH234418   5.800   6.558  17.065 -0.2910 -0.4412 -0.0613
 3408TIP3    H134419   5.818   6.519  17.151 -0.5354  1.5786  0.9639
 3408TIP3    H234420   5.844   6.642  17.067 -1.8110  0.4391 -1.2113
 3409TIP3   OH234421   6.244   5.329  17.844  0.1088  0.1928  0.3569
 3409TIP3    H134422   6.158   5.367  17.827 -1.8497 -3.6296  0.4070
 3409TIP3    H234423   6.244   5.247  17.795  2.7289 -1.1515  2.3085
 3410TIP3   OH234424   6.332   5.923  16.931  1.0929  0.6479 -0.1633
 3410TIP3    H134425   6.313   6.002  16.882 -0.9405  0.0074 -0.5163
 3410TIP3    H234426   6.359   5.953  17.018  0.6746  1.7240 -0.4010
 3411TIP3   OH234427   2.802   1.023  17.559 -0.1185  0.2200  0.4617
 3411TIP3    H134428   2.725   1.023  17.615 -0.8832 -4.4438 -0.1779
 3411TIP3    H234429   2.771   1.058  17.476 -0.7595  1.0643  1.0472
 3412TIP3   OH234430   1.818   2.707  17.614  0.2550 -0.2595 -0.4025
 3412TIP3    H134431   1.830   2.771  17.685 -1.0297 -1.1888  0.7095
 3412TIP3    H234432   1.808   2.761  17.535 -1.7837  1.0401  0.6358
 3413TIP3   OH234433   0.652   2.085  17.054  0.6442 -0.1533  0.1658
 3413TIP3    H134434   0.729   2.091  16.997  0.1252  2.1489 -0.4067
 3413TIP3    H234435   0.681   2.031  17.128  3.1408  1.3629  0.4155
 3414TIP3   OH234436   4.598   3.445  17.306  0.2050  0.4746 -0.5086
 3414TIP3    H134437   4.596   3.480  17.217  1.6454  0.0663 -0.7281
 3414TIP3    H234438   4.671   3.491  17.348  0.0393  0.0888  0.2135
 3415TIP3   OH234439   2.239   7.450  16.950  0.0054 -0.1543  0.0558
 3415TIP3    H134440   2.313   7.438  17.009  0.5794 -1.4433 -0.8955
 3415TIP3    H234441   2.272   7.506  16.880 -0.4183  0.6260  0.4578
 3416TIP3   OH234442   7.523   7.537  18.002 -0.6045 -0.3335 -1.1962
 3416TIP3    H134443   7.564   7.462  18.044 -2.0326 -0.9005 -0.7656
 3416TIP3    H234444   7.513   7.511  17.911  1.4521  0.4612 -1.7202
 3417TIP3   OH234445   2.426   0.188  16.422  0.2213  0.2394  0.3355
 3417TIP3    H134446   2.354   0.207  16.362  0.9489 -2.1926 -1.4571
 3417TIP3    H234447   2.384   0.146  16.497 -0.3887  0.4462  0.1189
 3418TIP3   OH234448   6.386   2.430  17.643  0.7656 -0.6423 -0.2649
 3418TIP3    H134449   6.471   2.473  17.636  0.2671  0.5187  0.5540
 3418TIP3    H234450   6.407   2.343  17.677  1.4806  0.5567  2.6672
 3419TIP3   OH234451   6.252   4.596  16.003 -0.2892 -0.0060 -0.8106
 3419TIP3    H134452   6.170   4.638  16.027 -0.2473  0.2765 -1.1555
 3419TIP3    H234453   6.236   4.503  16.014 -0.3568  0.1018  0.0499
 3420TIP3   OH234454   1.326   3.726  16.847 -0.2681  0.0319  0.1990
 3420TIP3    H134455   1.233   3.706  16.852 -0.6523  1.1430 -1.6038
 3420TIP3    H234456   1.349   3.753  16.936 -1.2627 -1.7551  1.0427
 3421TIP3   OH234457   3.402   5.053  16.457 -0.0536  0.4522 -0.1287
 3421TIP3    H134458   3.482   5.082  16.412  0.5556 -0.6562  0.1804
 3421TIP3    H234459   3.338   5.041  16.387  0.1038  1.1583 -0.4022
 3422TIP3   OH234460   1.798   6.156  18.892  0.3732  0.0197  0.1308
 3422TIP3    H134461   1.793   6.245  18.925  0.2530 -0.1558  0.5971
 3422TIP3    H234462   1.889   6.145  18.865  0.2663  0.4531 -0.4310
 3423TIP3   OH234463   6.716   2.530  18.164 -0.4619  0.2755  0.4752
 3423TIP3    H134464   6.649   2.516  18.098  0.7347 -1.5427 -0.4315
 3423TIP3    H234465   6.758   2.612  18.139  1.9478 -1.7558 -2.9516
 3424TIP3   OH234466   1.723   5.576  17.971 -0.3587  0.0039  0.2974
 3424TIP3    H134467   1.734   5.656  17.920  0.9693 -1.2426 -1.4907
 3424TIP3    H234468   1.672   5.518  17.914 -1.3074 -0.4574  1.5643
 3425TIP3   OH234469   2.555   5.856  17.466 -0.2191  0.0498  0.4276
 3425TIP3    H134470   2.612   5.805  17.524 -1.5569  0.4413  2.1441
 3425TIP3    H234471   2.567   5.947  17.494 -1.3434  0.1789  0.5206
 3426TIP3   OH234472   4.995   6.875  18.211  0.6337  0.3225  0.0609
 3426TIP3    H134473   4.941   6.954  18.218  0.5392  0.3829 -1.1045
 3426TIP3    H234474   5.071   6.902  18.160 -0.1726 -0.6724 -1.7924
 3427TIP3   OH234475   2.537   4.408  18.614  0.0905 -0.2823  0.1944
 3427TIP3    H134476   2.603   4.394  18.682 -0.9131 -0.6302  1.1266
 3427TIP3    H234477   2.513   4.500  18.623 -0.2100 -0.3852  0.4844
 3428TIP3   OH234478   4.161   1.467  15.788  0.5672 -0.1556 -0.0508
 3428TIP3    H134479   4.159   1.560  15.768 -1.8207 -0.0523  0.4490
 3428TIP3    H234480   4.115   1.458  15.872  0.8658 -1.7786 -0.0104
 3429TIP3   OH234481   4.176   6.681  17.452  0.1743  0.4311 -0.0198
 3429TIP3    H134482   4.094   6.635  17.431  0.9431 -0.8433 -0.3455
 3429TIP3    H234483   4.245   6.618  17.429  1.2884  1.8281 -0.6438
 3430TIP3   OH234484   7.496   7.184  18.459  0.3680 -0.2845  0.3159
 3430TIP3    H134485   7.459   7.262  18.499 -1.3408 -0.6258 -0.5076
 3430TIP3    H234486   7.440   7.167  18.384  2.4023 -0.7017 -1.1771
 3431TIP3   OH234487   5.218   1.804  16.349 -0.0061  0.1346 -0.6687
 3431TIP3    H134488   5.145   1.761  16.307  0.2768 -0.4419 -0.5764
 3431TIP3    H234489   5.294   1.780  16.296  0.3185 -0.4108  0.0306
 3432TIP3   OH234490   0.483   1.638  18.744 -0.6630  0.2689 -0.4556
 3432TIP3    H134491   0.576   1.621  18.761 -0.9309  0.9118  1.8982
 3432TIP3    H234492   0.439   1.558  18.771 -0.8550  0.0093 -1.4695
 3433TIP3   OH234493   2.413   6.110  18.890 -0.2771  0.1625  0.2612
 3433TIP3    H134494   2.442   6.152  18.970  0.2425  1.5713 -0.6320
 3433TIP3    H234495   2.361   6.176  18.845  0.6316 -0.0874 -1.2266
 3434TIP3   OH234496   7.325   3.895  18.393 -0.4838 -0.1333 -0.3117
 3434TIP3    H134497   7.262   3.958  18.358  0.1743 -0.1876 -1.6520
 3434TIP3    H234498   7.280   3.811  18.387 -1.2772  0.1375  1.2665
 3435TIP3   OH234499   5.500   3.037  16.384  0.2401 -0.3886 -0.1436
 3435TIP3    H134500   5.493   2.969  16.450  0.5433  0.5302  0.8637
 3435TIP3    H234501   5.440   3.010  16.315  0.3999 -1.6950  0.2013
 3436TIP3   OH234502   3.923   6.504  18.168  0.0276 -0.2047  0.2263
 3436TIP3    H134503   4.002   6.479  18.217  1.1083  1.2271 -0.7080
 3436TIP3    H234504   3.954   6.521  18.080 -1.5871 -0.9345 -0.5237
 3437TIP3   OH234505   1.588   1.546  17.748 -0.2256 -0.8811  0.0122
 3437TIP3    H134506   1.559   1.634  17.725 -2.9465 -1.7321 -0.1212
 3437TIP3    H234507   1.622   1.555  17.837 -0.8493  0.2230  0.1567
 3438TIP3   OH234508   6.538   7.061  17.988 -0.1714  0.1549 -0.1119
 3438TIP3    H134509   6.524   6.972  17.958 -2.0677  0.8515 -1.4259
 3438TIP3    H234510   6.464   7.080  18.045  1.7089 -0.0221  2.6409
 3439TIP3   OH234511   3.867   2.044  18.059 -0.0218  0.3666  0.5329
 3439TIP3    H134512   3.845   2.096  17.982  1.6051  0.9142  0.4096
 3439TIP3    H234513   3.891   2.108  18.127  1.6939 -0.1472  0.4740
 3440TIP3   OH234514   2.463   0.286  17.009 -0.3473 -0.3245  0.0901
 3440TIP3    H134515   2.549   0.274  16.967  1.1708  0.1788  2.7912
 3440TIP3    H234516   2.444   0.379  16.998  0.7816  0.1431  1.6187
 3441TIP3   OH234517   5.401   3.638  18.552  0.0271 -0.1713 -0.5085
 3441TIP3    H134518   5.323   3.693  18.562 -0.9148 -1.4215 -0.5668
 3441TIP3    H234519   5.442   3.639  18.638  0.7941  1.6617 -0.8564
 3442TIP3   OH234520   2.838   6.416  18.484 -0.0230  0.3025  0.2390
 3442TIP3    H134521   2.934   6.414  18.482 -0.0413 -0.2053 -1.9391
 3442TIP3    H234522   2.812   6.395  18.395 -2.1988 -0.5850  1.0400
 3443TIP3   OH234523   6.181   2.249  18.713 -0.3320 -0.1801  0.6141
 3443TIP3    H134524   6.187   2.156  18.733  0.5431 -0.0784  0.8714
 3443TIP3    H234525   6.254   2.265  18.653 -0.3567  0.3764  0.7247
 3444TIP3   OH234526   0.966   1.826  18.721  0.2391 -0.0832 -0.2181
 3444TIP3    H134527   1.048   1.777  18.727 -0.2952 -1.0622 -0.7137
 3444TIP3    H234528   0.983   1.893  18.654  1.4466  1.4013  1.5064
 3445TIP3   OH234529   4.036   0.391  16.841  0.4046 -0.1606  0.3425
 3445TIP3    H134530   3.941   0.387  16.831  0.3776  0.8270  0.1405
 3445TIP3    H234531   4.067   0.309  16.801 -0.2387  0.3779 -1.3731
 3446TIP3   OH234532   7.261   4.070  18.695  0.1376 -0.3853  0.2410
 3446TIP3    H134533   7.197   4.049  18.627 -0.6830 -2.6501  1.6045
 3446TIP3    H234534   7.337   4.016  18.674 -0.2294 -1.3253  1.2313
 3447TIP3   OH234535   5.062   0.965  18.408  0.0620  0.2055 -0.2128
 3447TIP3    H134536   5.062   1.057  18.381  1.4555 -0.0658 -1.2614
 3447TIP3    H234537   5.079   0.917  18.327  2.3563 -0.7758  0.7723
 3448TIP3   OH234538   2.622   1.929  18.632 -0.2720 -0.2649  0.4911
 3448TIP3    H134539   2.650   1.838  18.648  0.9479  0.0307  0.1611
 3448TIP3    H234540   2.557   1.922  18.563  0.4855 -0.8312 -0.1950
 3449TIP3   OH234541   7.011   6.775  18.471  0.1786 -0.1564  0.2266
 3449TIP3    H134542   6.948   6.822  18.526 -0.1779 -1.5587  1.0669
 3449TIP3    H234543   6.959   6.741  18.399  0.2518 -0.0951  0.1446
 3450TIP3   OH234544   6.895   0.263  16.603 -0.3015  0.1074 -0.0128
 3450TIP3    H134545   6.826   0.209  16.643  0.9095 -2.4807 -1.1872
 3450TIP3    H234546   6.869   0.271  16.512 -0.3382  1.3444  0.1030
 3451TIP3   OH234547   6.097   5.504  16.018 -0.1266  0.2112  0.1355
 3451TIP3    H134548   6.158   5.441  15.979  0.5255  0.6675  0.3902
 3451TIP3    H234549   6.136   5.589  16.000  0.3456  0.4263  1.9754
 3452TIP3   OH234550   5.164   1.420  16.604  0.0311 -0.4824  0.2186
 3452TIP3    H134551   5.165   1.508  16.643  1.8728 -0.2151 -0.3321
 3452TIP3    H234552   5.191   1.362  16.675  1.2723 -0.2631 -0.0508
 3453TIP3   OH234553   2.588   7.376  18.202 -0.1566 -0.1587  0.3373
 3453TIP3    H134554   2.524   7.445  18.218  0.5267  0.8328 -0.9589
 3453TIP3    H234555   2.672   7.416  18.225  0.2515 -0.5085 -0.5121
 3454TIP3   OH234556   6.584   2.745  17.774  0.3167 -0.6098 -0.0400
 3454TIP3    H134557   6.568   2.679  17.841  1.0972  1.4070  2.2864
 3454TIP3    H234558   6.519   2.814  17.792  0.3084 -0.1596 -1.6128
 3455TIP3   OH234559   6.191   4.770  16.351 -0.0343 -0.2277  0.0787
 3455TIP3    H134560   6.123   4.731  16.405  0.6982 -0.7506  0.6405
 3455TIP3    H234561   6.272   4.730  16.381  0.5309  0.3811 -0.5824
 3456TIP3   OH234562   2.270   4.025  17.945 -0.3177 -0.0937 -0.5361
 3456TIP3    H134563   2.211   4.075  17.888 -0.5398 -1.0112 -1.1329
 3456TIP3    H234564   2.213   3.963  17.991  0.0632 -0.3996 -0.4667
 3457TIP3   OH234565   2.135   7.381  16.484  0.4566 -0.0290 -0.3533
 3457TIP3    H134566   2.198   7.310  16.470 -0.0425 -0.4706 -0.3924
 3457TIP3    H234567   2.049   7.338  16.483  0.2076  0.3987  0.7544
 3458TIP3   OH234568   4.131   6.268  17.491 -0.1557  0.6664  0.6846
 3458TIP3    H134569   4.166   6.179  17.499  0.9884  0.4985 -3.5415
 3458TIP3    H234570   4.037   6.256  17.481 -0.0904 -0.0159  0.8353
 3459TIP3   OH234571   2.469   7.141  17.662  0.2683  0.3193  0.2619
 3459TIP3    H134572   2.456   7.180  17.748  0.1934  0.1621  0.3222
 3459TIP3    H234573   2.487   7.216  17.604  1.6794  0.3113  0.6639
 3460TIP3   OH234574   7.142   4.437  17.904  0.1012 -0.6351 -0.4422
 3460TIP3    H134575   7.165   4.512  17.849 -0.2185 -0.2418 -0.0510
 3460TIP3    H234576   7.079   4.388  17.851 -1.4527  0.5951  0.1482
 3461TIP3   OH234577   5.858   5.437  18.489  0.6339  0.2202 -0.1012
 3461TIP3    H134578   5.786   5.386  18.527  0.5154  0.3530 -0.1467
 3461TIP3    H234579   5.829   5.454  18.399  0.7369  0.2494 -0.1288
 3462TIP3   OH234580   1.463   6.605  18.750  0.1830 -0.2332 -0.3697
 3462TIP3    H134581   1.557   6.625  18.746  0.2701 -0.4654  0.3877
 3462TIP3    H234582   1.460   6.511  18.768 -0.1919 -0.1589 -0.0393
 3463TIP3   OH234583   4.316   6.043  17.571 -0.1858  0.0640 -0.6440
 3463TIP3    H134584   4.252   6.033  17.641 -0.3618 -0.1792 -0.8380
 3463TIP3    H234585   4.380   6.106  17.605  0.6317 -1.2602  0.3830
 3464TIP3   OH234586   3.319   1.085  17.846  0.2972 -0.2492  0.3589
 3464TIP3    H134587   3.294   1.151  17.910 -0.6751  0.2158 -0.4689
 3464TIP3    H234588   3.235   1.054  17.810  0.7534 -1.5612  0.3664
 3465TIP3   OH234589   5.739   5.398  16.006  0.2306 -0.0360 -0.0253
 3465TIP3    H134590   5.667   5.456  16.030 -0.6720 -0.9247 -0.5031
 3465TIP3    H234591   5.696   5.319  15.972  1.4298 -0.6014 -0.2859
 3466TIP3   OH234592   2.657   6.507  17.533 -0.2781 -0.2961 -0.3665
 3466TIP3    H134593   2.596   6.441  17.565 -2.3500  1.9295  0.6323
 3466TIP3    H234594   2.613   6.544  17.456  0.5815  0.3115 -0.5845
 3467TIP3   OH234595   3.643   3.481  18.749 -1.0830  0.2583 -0.2644
 3467TIP3    H134596   3.693   3.513  18.674 -1.0635 -0.2870 -0.4874
 3467TIP3    H234597   3.558   3.525  18.742 -0.2229  2.2846  0.8905
 3468TIP3   OH234598   6.073   5.093  17.617  0.3818  0.2051  0.5043
 3468TIP3    H134599   6.071   5.154  17.543  1.3980 -1.9058 -1.3764
 3468TIP3    H234600   6.165   5.092  17.645  0.1237  0.5049  1.4046
 3469TIP3   OH234601   0.506   3.160  18.459 -0.1460  0.4502 -0.1680
 3469TIP3    H134602   0.441   3.090  18.457  1.2723 -0.9742  0.9222
 3469TIP3    H234603   0.568   3.137  18.390  1.7629 -0.9121  1.8776
 3470TIP3   OH234604   7.107   7.291  18.504 -0.9612 -0.3585  0.1152
 3470TIP3    H134605   7.124   7.197  18.494  0.4257 -0.0814 -0.3870
 3470TIP3    H234606   7.138   7.311  18.593 -2.4081 -0.5874  0.7003
 3471TIP3   OH234607   4.262   6.169  17.143 -0.0792  0.4528  0.6632
 3471TIP3    H134608   4.306   6.154  17.227 -1.5704  0.2561  1.4521
 3471TIP3    H234609   4.211   6.249  17.158  0.7910  1.2692 -0.5617
 3472TIP3   OH234610   0.759   1.328  18.470 -0.0710  0.1503  0.4185
 3472TIP3    H134611   0.672   1.316  18.510 -0.4061 -1.3543 -0.6940
 3472TIP3    H234612   0.808   1.377  18.536 -0.5328 -2.3939  2.8682
 3473TIP3   OH234613   4.542   5.142  16.574  0.1753 -0.1591 -0.3636
 3473TIP3    H134614   4.545   5.051  16.543 -0.1383 -0.1816 -0.3351
 3473TIP3    H234615   4.618   5.150  16.632 -1.1422 -1.1369  1.6097
 3474TIP3   OH234616   5.532   2.910  17.945 -0.2711  0.3976 -0.8135
 3474TIP3    H134617   5.451   2.956  17.970 -0.2322 -0.0405  0.1623
 3474TIP3    H234618   5.602   2.969  17.973 -0.2316  0.8845 -1.8694
 3475TIP3   OH234619   7.400   6.547  17.139  0.3718 -0.1482  0.5255
 3475TIP3    H134620   7.481   6.555  17.087 -0.9386 -0.3424 -1.6970
 3475TIP3    H234621   7.410   6.611  17.210  2.7526 -0.6772  0.7430
 3476TIP3   OH234622   6.101   7.120  17.762 -0.5035 -0.1343 -0.0344
 3476TIP3    H134623   6.175   7.181  17.764  0.1807 -0.8831 -1.4716
 3476TIP3    H234624   6.068   7.124  17.673 -0.3458 -1.9823 -0.2131
 3477TIP3   OH234625   3.786   2.407  16.141 -0.6606  0.6512 -0.8728
 3477TIP3    H134626   3.845   2.451  16.080  1.7443 -0.5094  0.4707
 3477TIP3    H234627   3.793   2.314  16.118 -1.1617  0.3855 -0.0051
 3478TIP3   OH234628   6.536   1.654  16.801 -0.6141  0.4230 -0.3093
 3478TIP3    H134629   6.611   1.652  16.742 -1.4107  0.2189 -1.3353
 3478TIP3    H234630   6.533   1.743  16.834  0.8843  0.0975  0.8239
 3479TIP3   OH234631   0.796   1.358  17.656  0.0267 -0.9047 -0.6803
 3479TIP3    H134632   0.863   1.293  17.677  1.0217  0.0903 -0.6805
 3479TIP3    H234633   0.775   1.399  17.740  0.5183 -0.1996 -0.8917
 3480TIP3   OH234634   4.209   0.479  16.636 -0.1262 -0.5772 -0.4321
 3480TIP3    H134635   4.228   0.389  16.661  0.1725 -0.0341  1.3865
 3480TIP3    H234636   4.117   0.492  16.658 -1.1460 -1.3438 -3.6422
 3481TIP3   OH234637   5.612   4.023  17.411 -0.0822  0.0677 -0.0822
 3481TIP3    H134638   5.700   3.985  17.413 -0.6378 -1.2378  0.8153
 3481TIP3    H234639   5.625   4.111  17.375  1.5516 -0.1768 -0.1730
 3482TIP3   OH234640   7.266   3.973  17.038 -0.1228  0.3654  0.0036
 3482TIP3    H134641   7.195   3.944  16.980 -0.0613  0.4089 -0.0944
 3482TIP3    H234642   7.311   3.893  17.063 -0.5750  0.2755  0.5501
 3483TIP3   OH234643   4.533   0.029  16.938 -0.3033 -0.0714  0.2621
 3483TIP3    H134644   4.478  -0.011  16.870  0.2820  0.0346 -0.2782
 3483TIP3    H234645   4.579  -0.045  16.978  0.8550  0.0347 -0.8037
 3484TIP3   OH234646   1.755   4.249  17.762  0.4107 -0.0381  0.3508
 3484TIP3    H134647   1.747   4.217  17.672  1.2402  0.8813 -0.0662
 3484TIP3    H234648   1.664   4.262  17.791  0.1454 -0.0002 -0.4704
 3485TIP3   OH234649   4.002   2.280  18.712  0.2628  0.0628 -0.2517
 3485TIP3    H134650   3.914   2.317  18.719  1.6553  3.3683  3.7908
 3485TIP3    H234651   4.038   2.320  18.633 -1.4053 -0.4878 -1.3578
 3486TIP3   OH234652   0.125   1.421  16.917  0.1148 -0.1163  0.3203
 3486TIP3    H134653   0.185   1.351  16.893  0.7667  0.9845 -1.5186
 3486TIP3    H234654   0.069   1.433  16.840  1.7593  3.0665 -0.5813
 3487TIP3   OH234655   0.935   1.349  16.404  0.0297  0.1066  0.0031
 3487TIP3    H134656   0.872   1.386  16.466 -0.2476 -0.3311 -0.0205
 3487TIP3    H234657   1.007   1.318  16.460 -0.7063 -1.2872  0.2140
 3488TIP3   OH234658   4.829   5.717  17.532  0.9988 -0.1751 -0.6281
 3488TIP3    H134659   4.743   5.704  17.570  1.6472 -0.0794  0.9634
 3488TIP3    H234660   4.812   5.742  17.441 -0.7077  1.3922  0.0608
 3489TIP3   OH234661   1.012   3.927  16.698 -0.1960  0.0846 -0.2035
 3489TIP3    H134662   0.933   3.948  16.649  0.0464 -0.5869 -0.9021
 3489TIP3    H234663   0.992   3.845  16.742 -0.1558  0.3142  0.2493
 3490TIP3   OH234664   6.545   4.413  18.351 -0.6010 -0.1215  0.2655
 3490TIP3    H134665   6.480   4.454  18.408 -0.2331  0.2193  0.4413
 3490TIP3    H234666   6.590   4.486  18.309 -1.3317 -0.3584 -1.0156
 3491TIP3   OH234667   0.920   1.638  17.518  0.2384  0.1370  0.1526
 3491TIP3    H134668   0.993   1.600  17.468 -0.3294 -0.0191 -0.5750
 3491TIP3    H234669   0.873   1.563  17.553 -0.5688  0.1625 -0.8316
 3492TIP3   OH234670   7.447   1.766  17.106  0.6353 -0.2705 -0.2144
 3492TIP3    H134671   7.386   1.709  17.059 -0.0984  0.8822 -0.6846
 3492TIP3    H234672   7.516   1.706  17.136 -0.5948 -1.5738  0.1546
 3493TIP3   OH234673   2.153   3.089  16.486 -0.2324 -1.0642  0.2578
 3493TIP3    H134674   2.182   3.056  16.572 -0.4621 -1.7405  0.0846
 3493TIP3    H234675   2.083   3.028  16.460 -0.8034 -0.3194  0.0062
 3494TIP3   OH234676   3.318   1.130  17.254  0.4471 -0.0271  0.2691
 3494TIP3    H134677   3.228   1.154  17.273 -0.8731 -3.5781 -0.5928
 3494TIP3    H234678   3.361   1.126  17.339 -0.9572 -0.6759  0.9846
 3495TIP3   OH234679   3.207   4.922  17.493 -0.2336 -0.1539 -0.0148
 3495TIP3    H134680   3.144   4.858  17.526  0.1953 -0.3705  0.4043
 3495TIP3    H234681   3.174   5.007  17.523  0.5406 -0.4043  1.6613
 3496TIP3   OH234682   3.423   5.906  16.645  0.4166 -0.4312 -0.6011
 3496TIP3    H134683   3.446   5.971  16.711 -1.7413  0.0939 -0.2874
 3496TIP3    H234684   3.411   5.957  16.565  0.5807 -0.7128 -0.8047
 3497TIP3   OH234685   0.109   2.573  17.789  0.4934 -0.6166 -0.4308
 3497TIP3    H134686   0.076   2.662  17.778  1.7777  0.0536  0.7616
 3497TIP3    H234687   0.038   2.525  17.831  0.7630  0.6510  1.6331
 3498TIP3   OH234688   5.821   1.139  18.752  0.5134 -0.1137 -0.3788
 3498TIP3    H134689   5.898   1.194  18.739  0.9539 -0.6779 -0.1939
 3498TIP3    H234690   5.826   1.111  18.843 -0.2225  0.3000 -0.2008
 3499TIP3   OH234691   0.798   2.241  18.718 -0.7262 -0.2063 -0.2016
 3499TIP3    H134692   0.775   2.214  18.629  0.7928 -0.9188 -0.4019
 3499TIP3    H234693   0.745   2.185  18.774  0.3767 -1.7792 -0.6550
 3500TIP3   OH234694   0.052   0.536  18.390 -0.3570  0.1435 -0.2100
 3500TIP3    H134695   0.144   0.510  18.388 -0.5106 -0.6859  1.4447
 3500TIP3    H234696   0.045   0.602  18.321  1.1787 -0.6511 -1.2067
 3501TIP3   OH234697   3.821   2.939  16.919  0.1037 -0.0722  0.9681
 3501TIP3    H134698   3.732   2.908  16.936 -0.4688  1.3025  0.6041
 3501TIP3    H234699   3.852   2.883  16.847 -1.5810  1.3039 -0.9380
 3502TIP3   OH234700   4.707   1.395  18.535  0.1093 -0.2476  0.5834
 3502TIP3    H134701   4.734   1.364  18.449  0.4436  1.4527  0.0370
 3502TIP3    H234702   4.693   1.489  18.523  0.5338  0.0913  2.4708
 3503TIP3   OH234703   4.836   6.657  18.030 -0.3928  0.8412 -0.3811
 3503TIP3    H134704   4.838   6.562  18.031 -0.8805  0.8093  1.3515
 3503TIP3    H234705   4.844   6.682  18.122 -0.7687  2.4625 -0.7529
 3504TIP3   OH234706   2.914   6.035  17.610  0.2334  0.1804  0.4536
 3504TIP3    H134707   2.915   6.111  17.669  1.4862 -0.5462  1.4383
 3504TIP3    H234708   2.833   6.044  17.560  0.3371  2.1412  0.5598
 3505TIP3   OH234709   6.515   4.660  17.047  0.0683 -0.3100  0.0883
 3505TIP3    H134710   6.466   4.659  17.129  0.1330  1.3451  0.1796
 3505TIP3    H234711   6.546   4.750  17.038  1.8953 -0.9656 -0.6809
 3506TIP3   OH234712   2.351   1.307  16.828  0.0221  0.2120 -0.1505
 3506TIP3    H134713   2.404   1.372  16.782  0.5543 -0.1551 -0.0553
 3506TIP3    H234714   2.282   1.359  16.870 -0.0620  0.6201 -0.7852
 3507TIP3   OH234715   4.929   4.094  17.566 -0.9714 -0.2350 -0.1918
 3507TIP3    H134716   4.939   4.113  17.660 -0.4592 -0.2539 -0.2391
 3507TIP3    H234717   4.880   4.168  17.532  0.8438  0.9658 -0.3420
 3508TIP3   OH234718   2.871   6.449  18.208  0.1713  0.2977 -0.0893
 3508TIP3    H134719   2.955   6.418  18.174  0.8418 -0.6200  2.1857
 3508TIP3    H234720   2.889   6.538  18.237  0.8218 -0.3351  1.6246
 3509TIP3   OH234721   4.069   5.544  18.454 -0.0102 -0.0065  0.2551
 3509TIP3    H134722   4.029   5.468  18.496 -0.8392  0.1688 -0.1992
 3509TIP3    H234723   4.160   5.543  18.485 -0.3215 -0.4919  1.1924
 3510TIP3   OH234724   3.921   2.227  18.251  0.8015 -0.5187 -0.1422
 3510TIP3    H134725   3.866   2.304  18.251  1.2908 -0.1580 -1.0515
 3510TIP3    H234726   4.009   2.260  18.269  0.7528 -1.0904  1.3661
 3511TIP3   OH234727   4.266   6.128  17.815  0.2055 -0.4130 -0.6807
 3511TIP3    H134728   4.307   6.207  17.850 -0.3171 -0.2651 -0.3981
 3511TIP3    H234729   4.308   6.056  17.862 -0.6589 -0.2067  0.4355
 3512TIP3   OH234730   1.066   1.272  17.479 -0.2119 -0.7828  0.3497
 3512TIP3    H134731   1.031   1.229  17.557 -1.3086 -0.7517 -0.1095
 3512TIP3    H234732   1.123   1.341  17.513 -1.5422 -0.0386  1.1501
 3513TIP3   OH234733   0.399   1.956  18.313  0.1512 -0.3850 -0.3283
 3513TIP3    H134734   0.387   1.920  18.401  1.3766 -0.4216 -0.1613
 3513TIP3    H234735   0.442   1.887  18.263  0.4791  0.0282 -0.6344
 3514TIP3   OH234736   7.173   0.423  16.297  0.1979 -0.6464  0.0775
 3514TIP3    H134737   7.177   0.335  16.334  2.2124 -1.1426 -1.1489
 3514TIP3    H234738   7.241   0.472  16.345  0.2997 -0.2709 -0.4419
 3515TIP3   OH234739   7.130   6.681  17.310  0.1181  0.1933 -0.5581
 3515TIP3    H134740   7.081   6.601  17.329 -0.0844  0.6972  1.1973
 3515TIP3    H234741   7.207   6.676  17.366 -0.1527  1.4562 -0.0485
 3516TIP3   OH234742   2.459   2.296  16.827 -0.2312 -0.0398  0.0725
 3516TIP3    H134743   2.401   2.355  16.877  1.0600 -0.2397  1.9126
 3516TIP3    H234744   2.531   2.278  16.887  1.1566 -0.7364 -1.7361
 3517TIP3   OH234745   1.813   1.215  17.884  0.2188  0.4180 -0.3962
 3517TIP3    H134746   1.848   1.158  17.815 -1.0226  0.5207 -1.1403
 3517TIP3    H234747   1.750   1.161  17.930 -0.1278  0.8416 -0.3672
 3518TIP3   OH234748   6.477   5.082  18.575  0.3063  0.6143  0.5014
 3518TIP3    H134749   6.559   5.071  18.526 -0.0812  2.4600 -0.6976
 3518TIP3    H234750   6.486   5.026  18.651  1.1453 -2.0777 -1.4492
 3519TIP3   OH234751   2.077   3.867  18.068  0.0090  0.3684 -0.2591
 3519TIP3    H134752   2.124   3.785  18.084 -2.0549 -0.7620  0.3593
 3519TIP3    H234753   2.024   3.850  17.990 -1.3052  0.6936  0.5324
 3520TIP3   OH234754   1.887   6.456  16.830  0.2467 -0.8715 -0.7001
 3520TIP3    H134755   1.868   6.381  16.887  0.8268 -0.8221 -0.4321
 3520TIP3    H234756   1.842   6.437  16.748  0.9201 -1.8287 -0.8628
 3521TIP3   OH234757   4.831   3.573  17.429 -0.0074 -0.4688  0.3385
 3521TIP3    H134758   4.910   3.622  17.451 -0.6476  0.8654 -0.2139
 3521TIP3    H234759   4.852   3.482  17.450  1.3159 -0.0012  1.1294
 3522TIP3   OH234760   3.404   0.872  18.436  0.2754  0.7613 -0.2456
 3522TIP3    H134761   3.368   0.958  18.417  0.3086  0.5104 -1.5058
 3522TIP3    H234762   3.390   0.821  18.356  1.7481  0.0976 -0.1147
 3523TIP3   OH234763   5.555   0.220  17.144 -0.6088 -0.3712 -0.1392
 3523TIP3    H134764   5.522   0.188  17.060 -1.3483  0.1632 -0.0572
 3523TIP3    H234765   5.609   0.148  17.177  0.3966 -0.2533 -1.4641
 3524TIP3   OH234766   3.345   7.051  16.521  0.1593 -0.4827  0.1222
 3524TIP3    H134767   3.312   7.080  16.606 -0.6879 -0.0687 -0.3366
 3524TIP3    H234768   3.376   7.131  16.479  2.4625 -0.9271  0.7960
 3525TIP3   OH234769   6.716   5.330  17.703 -0.5023  0.1148 -0.3097
 3525TIP3    H134770   6.648   5.347  17.769 -1.7826  1.5752 -1.9038
 3525TIP3    H234771   6.679   5.260  17.648 -0.4061  0.4070 -0.7522
 3526TIP3   OH234772   2.101   7.352  17.298 -0.1370 -0.5518  0.0324
 3526TIP3    H134773   2.110   7.320  17.209  1.0960 -3.5423  1.1056
 3526TIP3    H234774   2.187   7.389  17.319 -0.8180  1.4097 -0.3638
 3527TIP3   OH234775   1.929   2.464  19.108 -0.1114  0.2106  0.2147
 3527TIP3    H134776   1.897   2.450  19.197 -0.1442 -0.3612  0.1216
 3527TIP3    H234777   1.862   2.425  19.052  1.0718 -1.7399  0.0421
 3528TIP3   OH234778   3.348   3.274  17.075  0.0539 -0.2604 -0.4029
 3528TIP3    H134779   3.269   3.299  17.123  0.9080  2.7702 -0.4207
 3528TIP3    H234780   3.398   3.220  17.137 -0.6514  0.2973  0.6746
 3529TIP3   OH234781   0.265   4.491  17.319  0.0260 -0.7872  0.8239
 3529TIP3    H134782   0.257   4.520  17.410 -1.7864  1.2689  0.1001
 3529TIP3    H234783   0.322   4.556  17.279 -1.7320  0.1844 -0.1863
 3530TIP3   OH234784   4.652   6.315  18.089  0.6677 -0.3765  0.3679
 3530TIP3    H134785   4.603   6.353  18.015  1.5606  0.4462  0.1694
 3530TIP3    H234786   4.624   6.366  18.165 -0.6660 -1.5860  0.7245
 3531TIP3   OH234787   4.380   0.131  17.166 -0.1459  0.3858  0.0473
 3531TIP3    H134788   4.322   0.059  17.188 -0.8803  0.2148 -2.2516
 3531TIP3    H234789   4.418   0.107  17.082  1.6589  1.4776  0.5004
 3532TIP3   OH234790   5.730   1.090  17.992  0.2945 -0.5001  0.1209
 3532TIP3    H134791   5.767   1.071  18.078  0.3895  0.5237  0.3207
 3532TIP3    H234792   5.640   1.057  17.996  0.2739 -0.3862  0.6398
 3533TIP3   OH234793   5.666   6.397  17.950 -0.1160  0.5449 -0.3259
 3533TIP3    H134794   5.707   6.451  17.883  1.1865  0.3038  0.2545
 3533TIP3    H234795   5.618   6.330  17.900  0.6114  0.5299 -1.0195
 3534TIP3   OH234796   4.251   4.955  18.336 -0.1744  0.0839 -0.2525
 3534TIP3    H134797   4.215   4.891  18.398  1.8252 -2.1074 -1.1883
 3534TIP3    H234798   4.281   5.027  18.390 -0.8665 -0.5701  1.0484
 3535TIP3   OH234799   5.388   1.836  17.050 -0.2073  0.5178  0.1715
 3535TIP3    H134800   5.330   1.793  16.987  1.3602 -0.7079 -0.4997
 3535TIP3    H234801   5.429   1.906  17.001 -1.1019  1.4112  0.6595
 3536TIP3   OH234802   1.923   1.572  18.588  0.5451  0.3966 -0.1709
 3536TIP3    H134803   1.995   1.629  18.614  1.8669 -1.7571  1.3116
 3536TIP3    H234804   1.962   1.485  18.582 -1.5910 -0.5879 -1.1191
 3537TIP3   OH234805   5.546   3.323  16.199  0.6072 -0.2540  0.5929
 3537TIP3    H134806   5.478   3.260  16.176  0.6935 -0.3243  0.5285
 3537TIP3    H234807   5.608   3.320  16.126  0.4310  0.1634  0.4235
 3538TIP3   OH234808   4.617   6.772  17.905  0.4384  0.2867  1.0660
 3538TIP3    H134809   4.557   6.716  17.953 -0.3067  0.1667  0.0419
 3538TIP3    H234810   4.685   6.714  17.873 -0.7830 -0.2502 -0.7184
 3539TIP3   OH234811   2.725   6.223  17.273  0.2096  0.3480 -0.4401
 3539TIP3    H134812   2.808   6.192  17.236 -0.0868  0.4010 -1.1615
 3539TIP3    H234813   2.658   6.173  17.227 -0.1385 -0.4016  0.8263
 3540TIP3   OH234814   2.183   5.291  17.932 -0.0576 -0.2859 -0.4529
 3540TIP3    H134815   2.152   5.287  18.022 -1.4361  0.4890 -0.8574
 3540TIP3    H234816   2.273   5.259  17.935  0.2277  0.6149  1.3304
 3541TIP3   OH234817   5.927   1.742  17.340 -0.7015  0.0899  0.3439
 3541TIP3    H134818   5.882   1.729  17.256 -1.3649  0.7011  0.5930
 3541TIP3    H234819   5.881   1.816  17.380  2.0032  2.3337 -0.4077
 3542TIP3   OH234820   6.451   6.340  17.009 -0.5606 -0.8982  0.2970
 3542TIP3    H134821   6.402   6.272  16.963  1.7325 -0.5110 -3.0018
 3542TIP3    H234822   6.542   6.311  17.006  0.5899  2.3328 -1.5723
 3543TIP3   OH234823   5.846   2.513  18.423 -0.1047 -0.2032  0.3557
 3543TIP3    H134824   5.896   2.554  18.494  0.5360  1.5414 -1.0174
 3543TIP3    H234825   5.874   2.421  18.424  0.8929  0.0863  1.5151
 3544TIP3   OH234826   5.757   2.524  17.970 -0.2754 -0.2231 -0.0515
 3544TIP3    H134827   5.760   2.532  17.875 -2.0043  0.9706 -0.0612
 3544TIP3    H234828   5.729   2.434  17.986 -1.1173 -0.0984 -0.7363
 3545TIP3   OH234829   6.859   2.608  16.342  0.4793  0.5424 -0.1146
 3545TIP3    H134830   6.794   2.644  16.281  0.2377 -1.4638 -1.1485
 3545TIP3    H234831   6.917   2.682  16.362  0.7041  1.2974 -3.0018
 3546TIP3   OH234832   2.312   6.830  16.242  0.2338 -1.0490 -0.2639
 3546TIP3    H134833   2.260   6.888  16.297  0.0882  1.0131 -2.4118
 3546TIP3    H234834   2.392   6.879  16.224  1.6097 -2.8996  0.4596
 3547TIP3   OH234835   4.756   5.409  16.317 -0.4205  0.5642  0.1423
 3547TIP3    H134836   4.718   5.358  16.246  0.9381 -2.3660  1.3535
 3547TIP3    H234837   4.851   5.402  16.303 -0.1487  0.4436  1.8512
 3548TIP3   OH234838   7.558   3.871  17.710 -0.2612 -0.2342 -0.6225
 3548TIP3    H134839   7.605   3.819  17.645 -1.3358 -1.8963 -0.1359
 3548TIP3    H234840   7.468   3.876  17.676 -0.8390 -1.1313  0.6998
 3549TIP3   OH234841   1.913   7.178  16.879  0.5113 -0.1972  0.4404
 3549TIP3    H134842   1.988   7.178  16.821  0.3402  0.2484  0.2161
 3549TIP3    H234843   1.898   7.271  16.900  0.0701 -0.2853  0.5394
 3550TIP3   OH234844   7.089   1.812  16.574  0.0265 -0.1336  0.6266
 3550TIP3    H134845   7.038   1.884  16.613 -0.0832  0.8394 -1.1856
 3550TIP3    H234846   7.031   1.775  16.508  0.1779 -1.7860  1.3740
 3551TIP3   OH234847   4.542   2.314  17.358 -0.8609  0.1081 -0.3216
 3551TIP3    H134848   4.542   2.231  17.310  1.4642  0.2062 -0.6210
 3551TIP3    H234849   4.613   2.365  17.318 -2.3128  2.3269 -0.2421
 3552TIP3   OH234850   0.083   2.729  15.721 -0.3032 -0.8761  0.3512
 3552TIP3    H134851   0.043   2.815  15.708  0.5179 -0.6982 -1.3384
 3552TIP3    H234852   0.175   2.747  15.739 -0.1985 -1.3869  0.3509
 3553TIP3   OH234853   0.404   4.062  16.750  0.1229 -0.8646 -0.5789
 3553TIP3    H134854   0.378   4.131  16.689  1.2998  0.9846  0.9207
 3553TIP3    H234855   0.500   4.061  16.746  0.1415 -3.4361 -1.5855
 3554TIP3   OH234856   5.497   5.473  17.959  0.2052 -0.0221 -0.2494
 3554TIP3    H134857   5.529   5.495  18.047 -3.9735  0.7059  1.3347
 3554TIP3    H234858   5.454   5.553  17.929 -0.8717 -1.1085 -1.7300
 3555TIP3   OH234859   3.417   3.507  18.226  0.2127 -0.1783 -0.3767
 3555TIP3    H134860   3.378   3.570  18.286 -0.0825  1.3974 -2.1391
 3555TIP3    H234861   3.347   3.444  18.208 -0.6431  1.0219 -1.3340
 3556TIP3   OH234862   7.311   2.567  17.614  0.0668 -0.4409 -0.0238
 3556TIP3    H134863   7.294   2.510  17.539  1.5101 -0.4240 -0.3898
 3556TIP3    H234864   7.393   2.613  17.592 -0.3272  0.7505  0.8677
 3557TIP3   OH234865   0.895   6.403  16.294 -0.2660  0.4766  0.0394
 3557TIP3    H134866   0.932   6.471  16.351  1.0629 -0.9997  1.0433
 3557TIP3    H234867   0.971   6.367  16.248 -0.6438 -1.4464  0.8148
 3558TIP3   OH234868   7.238   1.178  17.222  0.2890  0.4339  0.3055
 3558TIP3    H134869   7.291   1.120  17.166 -1.9675 -1.5972  0.1221
 3558TIP3    H234870   7.265   1.155  17.311 -0.3948 -0.7405  0.2232
 3559TIP3   OH234871   3.279   3.599  17.677 -0.2070  0.2441 -1.1397
 3559TIP3    H134872   3.319   3.685  17.690 -0.9450  0.6014 -1.1911
 3559TIP3    H234873   3.350   3.537  17.692  0.3327  0.8631 -1.1042
 3560TIP3   OH234874   7.217   5.217  16.096  0.5255 -0.0561 -0.3172
 3560TIP3    H134875   7.257   5.288  16.046  1.8946 -0.2476  0.4688
 3560TIP3    H234876   7.284   5.191  16.159 -0.6949 -0.6726  0.7793
 3561TIP3   OH234877   4.295   0.945  16.663 -0.5502 -0.1499  0.2462
 3561TIP3    H134878   4.340   0.954  16.579 -1.0970 -0.5441 -0.0992
 3561TIP3    H234879   4.205   0.971  16.645 -0.1414  2.1744  1.2951
 3562TIP3   OH234880   2.759   0.614  16.439 -0.1045  0.1987 -0.4506
 3562TIP3    H134881   2.776   0.618  16.345  0.7662 -2.2345 -0.4730
 3562TIP3    H234882   2.837   0.574  16.476 -0.9776 -0.1446  1.1199
 3563TIP3   OH234883   3.201   0.569  18.365 -0.5620 -0.5306  0.9084
 3563TIP3    H134884   3.224   0.567  18.272 -0.6834  1.1331  0.8157
 3563TIP3    H234885   3.113   0.531  18.369 -1.2089  0.8009  0.0984
 3564TIP3   OH234886   7.256   2.640  16.503 -0.0681 -0.0421 -0.5766
 3564TIP3    H134887   7.185   2.652  16.565 -1.1707 -0.2664 -1.7548
 3564TIP3    H234888   7.335   2.637  16.557 -1.1492 -2.3856  1.0076
 3565TIP3   OH234889   0.881   3.310  18.602  0.4449 -0.1036 -0.2711
 3565TIP3    H134890   0.803   3.268  18.639  0.7450 -0.1059  0.3695
 3565TIP3    H234891   0.942   3.238  18.588  1.2874  0.1853  1.6450
 3566TIP3   OH234892   6.180   0.870  18.602 -0.2743  0.5081  0.3277
 3566TIP3    H134893   6.239   0.835  18.669  0.7840 -0.4751 -1.0659
 3566TIP3    H234894   6.120   0.797  18.583 -0.1428  0.5452 -0.2523
 3567TIP3   OH234895   6.526   5.919  17.519 -0.2511 -0.3093 -0.0809
 3567TIP3    H134896   6.452   5.899  17.461 -0.0278 -1.6902  0.0893
 3567TIP3    H234897   6.568   5.995  17.478 -1.2721 -0.0181 -0.6330
 3568TIP3   OH234898   5.160   6.850  17.710 -0.0650 -0.3073 -0.2172
 3568TIP3    H134899   5.071   6.848  17.747 -0.1639 -1.0762 -0.4768
 3568TIP3    H234900   5.148   6.822  17.619  0.5610 -1.3716  0.0130
 3569TIP3   OH234901   7.607   1.749  17.585 -0.0900  0.5176  0.5717
 3569TIP3    H134902   7.528   1.797  17.609 -1.9861 -1.4488 -1.1476
 3569TIP3    H234903   7.639   1.793  17.506 -0.9965 -0.1304 -0.1844
 3570TIP3   OH234904   2.076   4.219  17.160 -0.6824  0.1988 -1.0771
 3570TIP3    H134905   2.003   4.265  17.201 -0.1698  0.3695 -0.3311
 3570TIP3    H234906   2.089   4.264  17.076 -1.7253 -0.1398 -1.4287
 3571TIP3   OH234907   0.061   5.077  18.082  0.2698  0.1933  0.0742
 3571TIP3    H134908   0.117   5.102  18.156  2.0148 -0.1084 -1.1049
 3571TIP3    H234909   0.093   5.130  18.009  0.3228 -1.3859 -1.1033
 3572TIP3   OH234910   5.233   5.403  16.597  0.5260 -0.2216  0.0935
 3572TIP3    H134911   5.172   5.332  16.611 -0.3562  0.5539  0.2477
 3572TIP3    H234912   5.191   5.480  16.635  1.8707  0.2131  0.7700
 3573TIP3   OH234913   0.958   4.077  17.531  0.2501  0.3164  0.5166
 3573TIP3    H134914   0.866   4.063  17.553 -0.4968 -2.1071 -3.1819
 3573TIP3    H234915   0.958   4.158  17.479 -0.2808 -0.8126 -1.3336
 3574TIP3   OH234916   0.792   2.464  17.266 -0.0608 -0.2027  0.4650
 3574TIP3    H134917   0.809   2.370  17.259  1.4245  0.1609 -1.6207
 3574TIP3    H234918   0.879   2.504  17.265 -0.7266  1.3305 -1.7725
 3575TIP3   OH234919   2.564   3.245  17.011 -0.3701 -0.1907  0.1976
 3575TIP3    H134920   2.506   3.169  17.017 -1.7219  0.9165  2.1384
 3575TIP3    H234921   2.506   3.320  17.017  0.6221  1.2253 -4.1201
 3576TIP3   OH234922   0.699   4.930  17.620 -0.0451  0.1253 -0.4872
 3576TIP3    H134923   0.690   4.909  17.527 -0.0314  0.2898 -0.5264
 3576TIP3    H234924   0.699   5.026  17.623 -1.2166  0.1296 -0.2005
 3577TIP3   OH234925   4.990   3.287  18.166 -0.2860 -0.0964 -0.0673
 3577TIP3    H134926   4.911   3.239  18.140 -0.0701 -0.1982 -0.5584
 3577TIP3    H234927   5.054   3.219  18.185 -0.5677 -0.0346  1.2018
 3578TIP3   OH234928   3.543   6.091  18.126 -0.1506 -0.4165  0.9414
 3578TIP3    H134929   3.607   6.140  18.074  0.4741  0.2394  2.2854
 3578TIP3    H234930   3.596   6.041  18.188 -0.8686 -1.3908  0.7836
 3579TIP3   OH234931   7.308   3.517  18.400  0.2534 -0.3180 -0.0813
 3579TIP3    H134932   7.238   3.555  18.346  0.5111 -1.5511 -1.3560
 3579TIP3    H234933   7.388   3.539  18.353  0.5743 -0.5015  0.3773
 3580TIP3   OH234934   3.517   1.067  16.167 -0.3388  0.4299 -0.7274
 3580TIP3    H134935   3.442   1.124  16.179  0.2573  0.9523  0.7619
 3580TIP3    H234936   3.513   1.041  16.075 -0.5589  2.9680 -1.5207
 3581TIP3   OH234937   3.248   4.076  17.442 -0.1196  0.5642  0.2312
 3581TIP3    H134938   3.238   4.098  17.535  2.9494  1.5642  0.4546
 3581TIP3    H234939   3.204   4.147  17.395 -1.5473  0.1429  0.8809
 3582TIP3   OH234940   7.266   2.221  18.341  0.4970 -0.2544 -0.0655
 3582TIP3    H134941   7.266   2.189  18.251 -1.9453 -1.5306  0.3060
 3582TIP3    H234942   7.212   2.158  18.389  0.6856  1.0813  2.0385
 3583TIP3   OH234943   7.168   6.534  16.571 -0.0115 -0.3231 -0.4635
 3583TIP3    H134944   7.177   6.487  16.487  0.5671 -0.8619 -0.1101
 3583TIP3    H234945   7.125   6.470  16.628  1.3867 -0.6859  0.2183
 3584TIP3   OH234946   5.168   4.600  18.330 -0.0351  0.1815 -0.3002
 3584TIP3    H134947   5.078   4.608  18.299 -0.3382  2.7458  0.9789
 3584TIP3    H234948   5.220   4.645  18.263  0.0999  0.0658 -0.2739
 3585TIP3   OH234949   6.192   2.014  18.109 -0.0641  0.7777 -0.0318
 3585TIP3    H134950   6.231   2.031  18.194  0.6037  0.1373 -0.1956
 3585TIP3    H234951   6.104   2.050  18.115 -0.1894  0.3204  1.0957
 3586TIP3   OH234952   5.385   0.450  17.192 -0.1092 -0.4406 -0.3353
 3586TIP3    H134953   5.414   0.495  17.112 -0.4432  0.9034  0.2820
 3586TIP3    H234954   5.443   0.373  17.198 -1.9652 -2.3197 -3.4581
 3587TIP3   OH234955   2.323   6.661  16.734 -0.4236 -0.4793 -0.7038
 3587TIP3    H134956   2.251   6.612  16.773 -1.1110  0.0548 -1.2578
 3587TIP3    H234957   2.401   6.611  16.755 -1.0550 -1.5572 -0.8703
 3588TIP3   OH234958   0.681   0.695  16.479 -0.1713  0.1871 -0.3754
 3588TIP3    H134959   0.773   0.709  16.459  0.0724  1.1043  1.2389
 3588TIP3    H234960   0.680   0.624  16.543 -0.6110 -0.0819 -0.6771
 3589TIP3   OH234961   2.594   1.860  17.242  0.0771 -0.1250 -0.0380
 3589TIP3    H134962   2.662   1.923  17.265 -1.4190  1.4742  0.2673
 3589TIP3    H234963   2.575   1.877  17.150  0.4820 -0.9679 -0.2844
 3590TIP3   OH234964   7.474   3.513  17.802 -0.0371  0.3163  0.5235
 3590TIP3    H134965   7.555   3.532  17.851  0.2437  0.5322 -0.0211
 3590TIP3    H234966   7.488   3.551  17.716 -0.3260 -0.5002  0.1008
 3591TIP3   OH234967   5.084   1.557  18.751  0.5399 -0.0824  0.0799
 3591TIP3    H134968   5.071   1.553  18.846 -0.1085  0.1656  0.0077
 3591TIP3    H234969   5.151   1.624  18.739  2.3708 -1.7384  0.5026
 3592TIP3   OH234970   3.436   2.081  17.638  0.0120 -0.4629 -0.0183
 3592TIP3    H134971   3.470   1.992  17.647  1.9193 -0.2191 -3.2867
 3592TIP3    H234972   3.513   2.137  17.632 -1.0979  1.1086 -0.5507
 3593TIP3   OH234973   3.960   6.064  18.474  0.2080 -0.0454  0.4927
 3593TIP3    H134974   4.004   6.084  18.556  0.1402  1.6913  0.1481
 3593TIP3    H234975   3.908   6.143  18.454  0.2352 -0.4106 -1.2069
 3594TIP3   OH234976   2.738   1.119  18.202 -0.2056  0.4003  0.1022
 3594TIP3    H134977   2.678   1.046  18.218 -0.8318  0.5959 -1.2421
 3594TIP3    H234978   2.758   1.114  18.109  1.7850  0.4200  0.4785
 3595TIP3   OH234979   2.398   2.389  18.045  0.3588 -0.5456 -0.3359
 3595TIP3    H134980   2.308   2.400  18.077  0.4434  0.2322 -0.3382
 3595TIP3    H234981   2.439   2.330  18.108 -0.1828 -0.9831 -0.3881
 3596TIP3   OH234982   1.075   5.194  17.658 -0.0524  0.6819 -0.3802
 3596TIP3    H134983   1.018   5.246  17.601 -0.9591  1.8681  1.4846
 3596TIP3    H234984   1.038   5.106  17.655 -0.5736  0.9162 -0.9957
 3597TIP3   OH234985   7.387   2.816  17.884 -0.0296 -0.2638 -0.0219
 3597TIP3    H134986   7.309   2.788  17.837 -0.9423  0.0857  1.2195
 3597TIP3    H234987   7.398   2.750  17.953  1.2136 -0.7155 -0.6248
 3598TIP3   OH234988   0.011   5.074  17.279  0.6652  0.1136 -0.1223
 3598TIP3    H134989   0.053   5.136  17.339 -1.4791  0.2582  1.3529
 3598TIP3    H234990   0.032   4.988  17.314  0.2249  0.1599  0.2526
 3599TIP3   OH234991   3.224   6.373  17.155 -0.0821  0.6817 -0.2537
 3599TIP3    H134992   3.252   6.284  17.177  0.3009  1.1844  1.4422
 3599TIP3    H234993   3.298   6.410  17.107  0.1044  0.3445 -0.2248
 3600TIP3   OH234994   2.714   3.887  17.641 -0.0403 -0.3564  0.2935
 3600TIP3    H134995   2.657   3.848  17.575 -2.0845  0.8926  1.2295
 3600TIP3    H234996   2.757   3.959  17.596 -0.4612 -0.2927 -0.0148
 3601TIP3   OH234997   5.535   1.181  17.465  0.3528 -0.4651  0.3546
 3601TIP3    H134998   5.445   1.201  17.439  0.8872  0.7443 -0.6683
 3601TIP3    H234999   5.549   1.229  17.546  0.3659  0.1034  0.0177
 3602TIP3   OH235000   7.180   4.664  17.700  0.1695  0.0432 -0.5943
 3602TIP3    H135001   7.248   4.688  17.638  0.1317  1.2866 -0.1786
 3602TIP3    H235002   7.109   4.727  17.686 -0.4216 -0.5136 -0.2332
 3603TIP3   OH235003   4.317   2.510  18.893 -0.0784 -0.6346  0.1124
 3603TIP3    H135004   4.235   2.464  18.911  1.0287 -2.3031  1.1813
 3603TIP3    H235005   4.304   2.551  18.807 -2.2789 -0.1904  0.6012
 3604TIP3   OH235006   2.249   1.832  16.982 -0.2163 -0.3108  0.2699
 3604TIP3    H135007   2.288   1.793  16.904  0.1039  0.3316  0.1025
 3604TIP3    H235008   2.192   1.763  17.017 -1.1226 -0.2881 -1.0738
 3605TIP3   OH235009   7.680   1.239  18.723  0.0564 -0.1215  0.6131
 3605TIP3    H135010   7.613   1.186  18.767 -0.0825 -0.1033  0.4258
 3605TIP3    H235011   7.631   1.288  18.657  0.5587 -1.6792 -0.9708
 3606TIP3   OH235012   1.973   3.086  18.608  0.4901 -0.4421  0.1058
 3606TIP3    H135013   1.979   3.007  18.553  0.1144 -0.6623  0.3704
 3606TIP3    H235014   2.061   3.123  18.607  0.2203  0.2063 -1.5892
 3607TIP3   OH235015   3.720   6.712  16.154  0.4706 -0.5066 -0.2482
 3607TIP3    H135016   3.687   6.794  16.190  0.9867 -0.3072 -0.2159
 3607TIP3    H235017   3.809   6.734  16.124  0.4518 -0.9448 -0.6245
 3608TIP3   OH235018   0.361   4.084  18.350 -0.1365  0.5655 -0.1162
 3608TIP3    H135019   0.299   4.134  18.403  0.4307  3.0203 -1.6274
 3608TIP3    H235020   0.307   4.015  18.309 -0.8386 -0.4815  2.3823
 3609TIP3   OH235021   2.112   4.054  16.819  0.6915 -0.0569 -0.1157
 3609TIP3    H135022   2.132   4.147  16.821 -0.8051  0.3433 -1.8135
 3609TIP3    H235023   2.090   4.032  16.909  0.5938  1.3291  0.2169
 3610TIP3   OH235024   4.138   4.442  18.139  0.0717 -0.2604 -0.1163
 3610TIP3    H135025   4.101   4.358  18.111  0.3192 -0.6126  0.5988
 3610TIP3    H235026   4.233   4.431  18.129  0.2718 -0.8784  2.1165
 3611TIP3   OH235027   0.214   5.336  17.239  0.1914 -0.1170  0.3887
 3611TIP3    H135028   0.215   5.397  17.165  2.7489 -0.5844 -0.0758
 3611TIP3    H235029   0.279   5.270  17.215  1.0249 -0.3351  3.0070
 3612TIP3   OH235030   0.623   4.493  17.021 -1.0015 -0.1822 -0.1222
 3612TIP3    H135031   0.591   4.542  17.097  0.4837 -1.5059  1.4099
 3612TIP3    H235032   0.594   4.403  17.036  0.2420 -0.6783 -0.5527
 3613TIP3   OH235033   0.174   4.223  18.479 -0.1880 -0.2963 -0.5288
 3613TIP3    H135034   0.096   4.219  18.535 -1.2129  1.0092 -1.8061
 3613TIP3    H235035   0.206   4.313  18.488  0.6269 -0.5472 -0.7802
 3614TIP3   OH235036   4.093   5.535  17.831  0.0801  0.6751  0.1361
 3614TIP3    H135037   4.050   5.471  17.888  1.3905 -0.6366 -0.2657
 3614TIP3    H235038   4.187   5.519  17.845  0.4282  1.3345 -1.2804
 3615TIP3   OH235039   2.103   4.722  17.758 -0.6153 -0.0397 -0.1688
 3615TIP3    H135040   2.158   4.800  17.769 -0.0589 -0.4590  0.1023
 3615TIP3    H235041   2.039   4.727  17.828 -0.9939  0.5041 -0.5421
 3616TIP3   OH235042   2.607   1.144  17.838  0.1736  0.0259  0.5537
 3616TIP3    H135043   2.561   1.221  17.872 -1.9838 -1.3886  1.0973
 3616TIP3    H235044   2.547   1.108  17.773  1.1102 -1.2080  0.3380
 3617TIP3   OH235045   6.282   6.533  16.796  0.5555  0.2754 -0.3832
 3617TIP3    H135046   6.341   6.459  16.786  2.6007  1.4989  1.6971
 3617TIP3    H235047   6.216   6.503  16.859  2.2628  0.6144  1.6592
 3618TIP3   OH235048   2.594   5.604  18.309  0.0756  0.4655  0.1361
 3618TIP3    H135049   2.629   5.530  18.260  0.1330  0.0466  0.7943
 3618TIP3    H235050   2.499   5.598  18.297  0.0436 -0.0232  0.6085
 3619TIP3   OH235051   7.565   3.003  18.563  0.2530 -0.5886  0.5558
 3619TIP3    H135052   7.518   3.082  18.590 -0.8002 -0.6842 -0.9188
 3619TIP3    H235053   7.520   2.932  18.608 -0.9760 -0.6642 -0.7375
 3620TIP3   OH235054   4.382   5.053  16.822 -0.0677 -0.0584 -0.2798
 3620TIP3    H135055   4.441   5.057  16.747 -1.6760 -0.7936 -1.6586
 3620TIP3    H235056   4.433   5.087  16.895  1.7591  0.1088 -1.5736
 3621TIP3   OH235057   3.337   4.794  16.566  0.1893 -0.0257  0.3577
 3621TIP3    H135058   3.374   4.791  16.654 -0.3635 -0.4398  0.5811
 3621TIP3    H235059   3.379   4.870  16.525  0.5645  0.0783  0.9203
 3622TIP3   OH235060   7.279   2.134  16.871  0.0459  0.2180  0.0321
 3622TIP3    H135061   7.315   2.209  16.916  0.1961  0.4085 -0.3975
 3622TIP3    H235062   7.305   2.146  16.779 -0.0370 -0.2869 -0.0633
 3623TIP3   OH235063   3.435   3.692  16.187  0.9414 -1.1207 -0.4145
 3623TIP3    H135064   3.462   3.616  16.237  1.8958 -0.0254  0.8196
 3623TIP3    H235065   3.380   3.742  16.248  0.9100 -0.4699 -0.9625
 3624TIP3   OH235066   4.431   5.284  15.782  0.5245 -0.4387  0.3984
 3624TIP3    H135067   4.372   5.280  15.707 -0.4954 -1.1049  1.2126
 3624TIP3    H235068   4.380   5.250  15.855  1.6616 -0.2777  1.3020
 3625TIP3   OH235069   3.883   5.851  17.301 -0.4897  0.4972 -0.3768
 3625TIP3    H135070   3.803   5.895  17.329  0.5099  1.2095  1.4553
 3625TIP3    H235071   3.925   5.823  17.382  0.0365 -1.8786 -1.3838
 3626TIP3   OH235072   6.808   2.203  18.477 -0.0520 -0.5704  0.3916
 3626TIP3    H135073   6.754   2.124  18.469  0.7100 -1.2313  1.4399
 3626TIP3    H235074   6.758   2.261  18.534 -0.3015 -0.5817  0.1865
 3627TIP3   OH235075   3.040   7.655  16.002 -0.0950  0.0411  0.3573
 3627TIP3    H135076   3.001   7.737  16.033 -1.4244 -0.4792  0.1169
 3627TIP3    H235077   3.120   7.645  16.055 -1.3091  0.1276  2.3182
 3628TIP3   OH235078   0.305   2.474  17.624  0.1794 -0.2518 -0.0888
 3628TIP3    H135079   0.264   2.516  17.700 -2.1717  0.2244 -1.5385
 3628TIP3    H235080   0.280   2.528  17.550  1.1598 -1.5492 -1.4297
 3629TIP3   OH235081   6.944   0.634  17.011  0.8730 -0.2069 -0.2218
 3629TIP3    H135082   6.921   0.716  16.967 -0.5594  0.4903  1.6910
 3629TIP3    H235083   6.972   0.662  17.099 -0.7816 -1.8082  0.8725
 3630TIP3   OH235084   4.014   3.189  17.839 -0.2312 -0.0273 -0.1006
 3630TIP3    H135085   4.011   3.228  17.752 -2.2117  0.0263 -0.0626
 3630TIP3    H235086   4.054   3.257  17.894 -0.0200  0.3901 -0.7580
 3631TIP3   OH235087   3.591   7.097  17.139  0.0570 -0.0388  0.2656
 3631TIP3    H135088   3.636   7.072  17.220 -0.6337  0.0228  0.6774
 3631TIP3    H235089   3.624   7.036  17.073  2.7505  1.6402 -0.0925
 3632TIP3   OH235090   4.306   0.764  17.514 -0.2388 -0.1894 -0.3787
 3632TIP3    H135091   4.316   0.850  17.473 -1.0755  0.0631 -0.0753
 3632TIP3    H235092   4.233   0.723  17.467  1.2911 -1.4955 -1.7505
 3633TIP3   OH235093   3.983   3.570  18.379 -0.2869  0.2204 -0.3863
 3633TIP3    H135094   3.989   3.665  18.371  2.1232 -0.0069 -2.3200
 3633TIP3    H235095   3.910   3.546  18.321 -0.6090  0.8377 -0.2464
 3634TIP3   OH235096   5.957   7.214  18.275 -0.2333 -0.6568  0.4756
 3634TIP3    H135097   5.883   7.156  18.256 -1.0432 -0.3797  2.4456
 3634TIP3    H235098   5.938   7.248  18.363  0.6302  1.9477 -0.2565
 3635TIP3   OH235099   5.081   4.329  16.683 -0.2433  0.2636 -0.2228
 3635TIP3    H135100   5.115   4.335  16.773  1.5736  1.9712 -0.9611
 3635TIP3    H235101   5.092   4.237  16.659  1.6928  0.2723  0.4379
 3636TIP3   OH235102   4.810   4.480  17.889 -0.6993 -0.2421 -0.1811
 3636TIP3    H135103   4.879   4.545  17.900 -1.2745  0.1572  1.2098
 3636TIP3    H235104   4.779   4.493  17.799  0.1933  0.3824 -0.4142
 3637TIP3   OH235105   2.037   4.924  16.704 -0.6037 -0.2894 -0.4571
 3637TIP3    H135106   1.984   4.913  16.783 -1.6941 -1.3813 -1.3018
 3637TIP3    H235107   1.973   4.926  16.632  0.2645  1.9189 -1.2532
 3638TIP3   OH235108   6.959   5.685  18.152 -0.2420 -0.0063 -0.3169
 3638TIP3    H135109   6.887   5.673  18.089 -0.9519 -2.5674  0.8320
 3638TIP3    H235110   6.916   5.680  18.238  1.2514 -1.2832  0.3941
 3639TIP3   OH235111   0.313   6.572  16.855 -0.1072 -0.2057  0.0956
 3639TIP3    H135112   0.335   6.510  16.786 -0.3761  0.5132 -0.6560
 3639TIP3    H235113   0.390   6.628  16.863  0.2092 -0.7330  0.9039
 3640TIP3   OH235114   2.539   3.706  16.906  0.1995  0.3454 -0.6293
 3640TIP3    H135115   2.486   3.647  16.959  3.0439 -1.3685  0.5394
 3640TIP3    H235116   2.494   3.709  16.821 -0.9680 -2.1668 -0.1974
 3641TIP3   OH235117   0.038   5.752  18.040  0.0559 -0.0915 -0.0446
 3641TIP3    H135118   0.133   5.753  18.042  0.0418  1.1133  0.3156
 3641TIP3    H235119   0.011   5.837  18.074 -1.1534 -0.4122 -0.1300
 3642TIP3   OH235120   3.641   3.976  18.661  0.3515 -0.4810  0.3676
 3642TIP3    H135121   3.728   3.960  18.626 -0.0001  2.8543 -2.6484
 3642TIP3    H235122   3.656   4.010  18.749  2.0867 -0.4635  0.0975
 3643TIP3   OH235123   6.309   3.519  18.129  0.3664  0.1469 -0.0656
 3643TIP3    H135124   6.336   3.435  18.092 -0.4817 -0.3316  0.3775
 3643TIP3    H235125   6.384   3.545  18.183  1.6527  0.9057 -2.1304
 3644TIP3   OH235126   2.416   2.008  17.845 -0.0965  0.5708 -0.1021
 3644TIP3    H135127   2.421   1.919  17.810 -1.7389  2.0519 -4.8053
 3644TIP3    H235128   2.326   2.018  17.874 -0.0323  0.8394  0.0135
 3645TIP3   OH235129   4.345   3.706  17.304  0.0241  0.7127 -0.6605
 3645TIP3    H135130   4.352   3.691  17.398 -0.5955 -1.3952 -0.9020
 3645TIP3    H235131   4.422   3.662  17.267 -0.9654 -0.5422 -1.3002
 3646TIP3   OH235132   3.793   3.591  18.100 -0.2041 -0.7147 -0.1256
 3646TIP3    H135133   3.802   3.684  18.121 -0.1919 -0.9147  0.7989
 3646TIP3    H235134   3.829   3.583  18.012 -0.8867  0.2783 -0.5178
 3647TIP3   OH235135   5.912   3.247  16.950 -0.1453 -0.0478  0.6210
 3647TIP3    H135136   5.877   3.298  17.023 -0.3745 -1.2884  1.4089
 3647TIP3    H235137   5.858   3.168  16.947 -1.3568  0.7451 -2.0895
 3648TIP3   OH235138   0.420   0.279  16.812 -0.0006 -0.6950 -0.3134
 3648TIP3    H135139   0.515   0.291  16.806 -0.2023  0.2812 -2.0442
 3648TIP3    H235140   0.397   0.234  16.731 -0.9709 -1.4287  0.3473
 3649TIP3   OH235141   5.321   2.007  17.883  0.3307  0.0134 -0.4362
 3649TIP3    H135142   5.350   2.014  17.974  1.2111 -0.2488 -0.6908
 3649TIP3    H235143   5.335   2.095  17.847  1.7023 -0.3373 -0.8077
 3650TIP3   OH235144   2.422   4.255  17.315  0.0779  0.0128  0.1897
 3650TIP3    H135145   2.377   4.288  17.238  0.9554  0.2003 -0.2570
 3650TIP3    H235146   2.486   4.192  17.282  1.4350  1.1157  0.5833
 3651TIP3   OH235147   5.903   0.727  17.835  0.0677  0.0522  0.2909
 3651TIP3    H135148   5.818   0.727  17.878 -1.0051 -1.2113 -1.6778
 3651TIP3    H235149   5.950   0.801  17.875 -1.5046  0.1084  2.2026
 3652TIP3   OH235150   6.330   3.523  17.121 -0.2258 -0.2740 -0.0150
 3652TIP3    H135151   6.379   3.500  17.042  0.7082 -0.0430  0.4874
 3652TIP3    H235152   6.284   3.603  17.097  0.1385 -0.1428 -0.2880
 3653TIP3   OH235153   4.570   0.629  17.418 -0.3973  0.2127 -0.9211
 3653TIP3    H135154   4.626   0.690  17.370 -0.2135  2.1397  1.5311
 3653TIP3    H235155   4.483   0.667  17.412 -0.4887  0.1001 -0.3115
 3654TIP3   OH235156   3.430   2.346  17.295  0.0370 -0.2377 -0.7565
 3654TIP3    H135157   3.474   2.427  17.321  0.0056 -0.5165  0.1857
 3654TIP3    H235158   3.341   2.356  17.329  1.1979 -2.6348  3.7692
 3655TIP3   OH235159   4.280   3.719  16.295 -0.0545 -0.1141 -0.6319
 3655TIP3    H135160   4.232   3.654  16.346 -0.4786  0.5503 -0.1645
 3655TIP3    H235161   4.369   3.685  16.289 -0.1857 -0.5544 -0.0865
 3656TIP3   OH235162   0.502   7.271  18.226 -0.3483  0.6323 -0.8973
 3656TIP3    H135163   0.538   7.344  18.276  0.1883  0.1365 -0.5504
 3656TIP3    H235164   0.418   7.252  18.267  0.5525 -0.4611  0.5372
 3657TIP3   OH235165   1.153   2.226  18.390  0.3563 -0.3491  0.6641
 3657TIP3    H135166   1.147   2.245  18.483  0.8935  0.0655  0.6212
 3657TIP3    H235167   1.111   2.301  18.348 -1.6767 -1.4450  0.6100
 3658TIP3   OH235168   1.380   0.428  17.379  0.1775 -0.4104 -0.3215
 3658TIP3    H135169   1.415   0.515  17.399  0.1276 -0.2166 -1.0694
 3658TIP3    H235170   1.300   0.445  17.329  1.6374 -0.8734 -3.0018
 3659TIP3   OH235171   4.358   0.243  16.750  0.2621  0.0367  0.3987
 3659TIP3    H135172   4.405   0.176  16.700  0.3540  0.9534 -0.7866
 3659TIP3    H235173   4.287   0.196  16.793  0.0557 -0.7533 -0.7669
 3660TIP3   OH235174   1.969   2.172  16.407  0.2936  0.2962  0.7878
 3660TIP3    H135175   1.877   2.170  16.436 -0.0348  1.4275 -0.1109
 3660TIP3    H235176   2.003   2.087  16.433 -0.6602  0.3100  2.2576
 3661TIP3   OH235177   7.059   2.525  16.144  0.2138 -0.5400 -0.7387
 3661TIP3    H135178   7.098   2.445  16.108  0.7623 -0.9434  0.7116
 3661TIP3    H235179   6.981   2.495  16.190  0.6005 -0.2971  0.0948
 3662TIP3   OH235180   0.888   0.095  17.300 -0.1993  0.0537  0.5191
 3662TIP3    H135181   0.801   0.057  17.314  0.5586 -1.3253  1.7550
 3662TIP3    H235182   0.947   0.041  17.353  1.3775  1.1570 -0.0285
 3663TIP3   OH235183   2.253   4.458  18.722 -0.3665 -0.7717  0.3768
 3663TIP3    H135184   2.226   4.462  18.630 -2.2804 -1.2972  0.8596
 3663TIP3    H235185   2.314   4.531  18.733 -0.0584 -0.7522 -1.3212
 3664TIP3   OH235186   1.346   0.282  18.180  0.3869 -0.2473 -0.0608
 3664TIP3    H135187   1.411   0.347  18.205  0.0091  0.4993 -0.9466
 3664TIP3    H235188   1.262   0.324  18.199  0.1004  0.0932 -1.8198
 3665TIP3   OH235189   6.551   3.250  18.499 -0.0232 -0.0539 -0.3025
 3665TIP3    H135190   6.537   3.169  18.548 -0.5620 -0.3728 -0.9626
 3665TIP3    H235191   6.549   3.222  18.407  1.0203  0.5205 -0.5078
 3666TIP3   OH235192   7.680   6.742  18.900  0.1415 -0.0305 -0.2842
 3666TIP3    H135193   7.702   6.834  18.915 -0.3854  0.4979 -2.4700
 3666TIP3    H235194   7.765   6.698  18.889  0.4917 -0.1898  2.2718
 3667TIP3   OH235195   4.024   6.500  16.776  0.0413 -0.1123  0.2259
 3667TIP3    H135196   3.938   6.464  16.754  0.2913  0.3352 -1.6618
 3667TIP3    H235197   4.032   6.579  16.722  0.7152  1.1850  2.0870
 3668TIP3   OH235198   3.667   5.456  16.757  0.4314  0.6543 -0.3676
 3668TIP3    H135199   3.628   5.378  16.718  0.3848  0.4101  0.1604
 3668TIP3    H235200   3.593   5.506  16.792  0.6424 -0.4692  1.8560
 3669TIP3   OH235201   7.373   6.558  16.306  0.2233  0.0329  0.5328
 3669TIP3    H135202   7.316   6.634  16.319  0.7911  0.2078  2.3411
 3669TIP3    H235203   7.312   6.486  16.287 -0.9267 -0.1625  4.0459
 3670TIP3   OH235204   6.674   7.353  16.714 -0.2113 -0.8908 -0.1749
 3670TIP3    H135205   6.651   7.299  16.789 -2.4115  1.5058  1.0198
 3670TIP3    H235206   6.593   7.363  16.665  0.7322 -0.7093 -1.7832
 3671TIP3   OH235207   3.344   2.471  17.610 -0.1411 -0.9569  0.9317
 3671TIP3    H135208   3.287   2.548  17.617  0.3192 -0.4878 -0.3476
 3671TIP3    H235209   3.303   2.418  17.542  0.8864 -0.6745  0.0879
 3672TIP3   OH235210   7.404   6.289  18.223 -0.0542  0.3182  0.2166
 3672TIP3    H135211   7.414   6.221  18.291  1.0615 -1.2566 -1.4230
 3672TIP3    H235212   7.462   6.359  18.251  2.0833 -1.2190 -0.1069
 3673TIP3   OH235213   2.986   1.101  18.368  0.3520 -0.2134  0.6900
 3673TIP3    H135214   2.970   1.017  18.411 -1.4727  0.0093  0.5587
 3673TIP3    H235215   2.907   1.115  18.314  1.9095  0.1752 -1.6405
 3674TIP3   OH235216   0.858   1.765  18.448  0.2730 -0.2138  0.0671
 3674TIP3    H135217   0.887   1.847  18.488  1.2554  0.2320 -1.4592
 3674TIP3    H235218   0.773   1.786  18.410  0.0381 -0.2098  0.5892
 3675TIP3   OH235219   0.535   0.224  18.328 -0.0228  0.5900  0.0701
 3675TIP3    H135220   0.602   0.211  18.261 -0.6936  0.8577 -0.6625
 3675TIP3    H235221   0.529   0.319  18.338 -1.2620  0.6415 -0.8890
 3676TIP3   OH235222   2.015   3.097  17.549 -0.2855 -0.0415 -0.5792
 3676TIP3    H135223   2.032   3.172  17.605 -0.6347 -0.0920 -0.4073
 3676TIP3    H235224   2.102   3.068  17.521 -0.1191  0.0488 -0.1544
 3677TIP3   OH235225   2.637   0.204  17.955 -0.4205 -0.0621 -0.1718
 3677TIP3    H135226   2.639   0.137  18.023 -0.8129 -0.4843 -0.5631
 3677TIP3    H235227   2.680   0.163  17.880 -1.7318 -0.3385 -0.8036
 3678TIP3   OH235228   0.597   4.738  18.515  0.1128  0.0879 -0.4395
 3678TIP3    H135229   0.559   4.813  18.469 -1.1789 -1.5516 -2.2540
 3678TIP3    H235230   0.574   4.663  18.460  2.2000 -1.5423  0.7684
 3679TIP3   OH235231   2.922   4.032  17.426  0.4533  0.0725  0.1723
 3679TIP3    H135232   2.992   4.083  17.384 -2.1133  2.3058 -1.7071
 3679TIP3    H235233   2.861   4.097  17.459 -2.5634 -1.6771 -1.5462
 3680TIP3   OH235234   2.515   5.238  18.365  0.6282  0.1971 -0.2933
 3680TIP3    H135235   2.580   5.172  18.389  0.4792 -0.2977 -1.1830
 3680TIP3    H235236   2.469   5.259  18.446  0.6245 -0.8689 -0.0078
 3681TIP3   OH235237   1.486   6.571  17.434 -0.2731 -0.6392 -0.4772
 3681TIP3    H135238   1.507   6.524  17.514  0.3003 -0.0256 -0.2640
 3681TIP3    H235239   1.422   6.515  17.390 -0.5126 -1.0314  0.3498
 3682TIP3   OH235240   7.061   7.258  17.401  0.0121 -0.2099 -0.4507
 3682TIP3    H135241   7.110   7.179  17.424 -0.2378  0.0732  1.1578
 3682TIP3    H235242   7.053   7.306  17.483 -0.2515  1.2732 -1.3064
 3683TIP3   OH235243   5.016   3.574  17.998  0.2536  0.1245 -0.1166
 3683TIP3    H135244   4.925   3.560  18.021  0.3597  0.0080  0.2426
 3683TIP3    H235245   5.044   3.647  18.054  0.0737  0.8997 -1.0142
 3684TIP3   OH235246   2.779   1.428  16.786 -0.2458  0.3325 -0.2575
 3684TIP3    H135247   2.814   1.340  16.773 -1.4358 -0.1415 -0.3707
 3684TIP3    H235248   2.853   1.478  16.819  0.0857 -1.0471  1.2005
 3685TIP3   OH235249   1.934   7.445  16.970  0.1212 -0.5107 -0.0341
 3685TIP3    H135250   2.025   7.416  16.980  0.3329  0.2918  0.4649
 3685TIP3    H235251   1.940   7.539  16.956 -0.5970 -0.5799 -0.8851
 3686TIP3   OH235252   6.622   5.087  17.588 -0.9902 -0.0941 -0.1566
 3686TIP3    H135253   6.711   5.085  17.552 -0.6745 -2.7468  0.5217
 3686TIP3    H235254   6.569   5.037  17.526 -0.6182 -3.9187  2.2510
 3687TIP3   OH235255   5.548   7.593  18.243  0.2611 -0.0465 -0.0838
 3687TIP3    H135256   5.460   7.619  18.270  0.3810 -1.3415  1.7205
 3687TIP3    H235257   5.548   7.604  18.148 -2.5016 -1.8715 -0.4146
 3688TIP3   OH235258   6.161   2.374  17.804  0.0931 -0.6366  0.0158
 3688TIP3    H135259   6.230   2.428  17.764  1.4467 -1.4617  1.1465
 3688TIP3    H235260   6.086   2.384  17.745  0.9560  0.8156 -0.9076
 3689TIP3   OH235261   1.351   0.266  18.565 -0.2490 -0.0982  0.7580
 3689TIP3    H135262   1.298   0.202  18.517  0.2575  1.2288 -1.7805
 3689TIP3    H235263   1.435   0.221  18.579 -0.2416 -0.3844 -0.0953
 3690TIP3   OH235264   2.303   7.336  18.482 -0.1179 -0.2671 -0.4156
 3690TIP3    H135265   2.241   7.277  18.440  0.7025 -3.1463  2.0421
 3690TIP3    H235266   2.363   7.278  18.529  2.0016  2.5160  0.5728
 3691TIP3   OH235267   0.455   5.968  17.714 -0.0133 -0.2625  1.0731
 3691TIP3    H135268   0.425   5.984  17.803 -1.1014  1.3542  0.4531
 3691TIP3    H235269   0.396   5.902  17.679  1.2478 -1.9260  1.9375
 3692TIP3   OH235270   4.565   3.672  16.643 -0.2298  0.3375 -0.1677
 3692TIP3    H135271   4.522   3.606  16.588 -2.4151  1.9650 -0.5579
 3692TIP3    H235272   4.604   3.733  16.581 -0.9146  1.0668  0.1045
 3693TIP3   OH235273   2.580   2.509  17.870  0.4181  0.1210 -0.3734
 3693TIP3    H135274   2.664   2.466  17.885  0.0693 -0.0151  1.3283
 3693TIP3    H235275   2.515   2.447  17.902 -0.4117 -0.0469 -2.2527
 3694TIP3   OH235276   1.920   5.982  16.835  0.2152  0.2240  0.0948
 3694TIP3    H135277   1.901   5.936  16.753  0.2905  1.6172 -0.7246
 3694TIP3    H235278   2.015   5.973  16.844  0.1698 -0.1935  0.2014
 3695TIP3   OH235279   5.851   6.809  17.041 -0.4781 -1.0073  0.2744
 3695TIP3    H135280   5.887   6.877  17.099  0.1872 -2.6488  1.8977
 3695TIP3    H235281   5.926   6.781  16.988 -0.4605 -1.2875  0.4459
 3696TIP3   OH235282   7.554   3.104  17.501  0.1243 -0.7414 -0.2953
 3696TIP3    H135283   7.578   3.011  17.497  0.5851 -0.7676  1.9317
 3696TIP3    H235284   7.578   3.131  17.590 -0.3751  1.4162 -0.7693
 3697TIP3   OH235285   0.022   3.490  17.179 -0.3752 -0.6089  0.6059
 3697TIP3    H135286   0.028   3.412  17.236  2.5337 -1.8136 -1.0915
 3697TIP3    H235287   0.098   3.543  17.204 -0.6843  0.2447 -0.2202
 3698TIP3   OH235288   3.902   2.774  17.358 -0.1813 -0.4058 -0.0599
 3698TIP3    H135289   3.971   2.838  17.375  0.7148 -1.7336  1.6320
 3698TIP3    H235290   3.837   2.790  17.426 -0.6556 -0.3556 -0.5201
 3699TIP3   OH235291   1.380   7.579  17.387  0.1918  0.3956 -0.3671
 3699TIP3    H135292   1.415   7.617  17.307  2.5768  1.0502  0.8892
 3699TIP3    H235293   1.298   7.537  17.360  0.0017  2.0995 -2.7721
 3700TIP3   OH235294   3.326   6.407  18.017 -0.0431 -0.1645 -0.0103
 3700TIP3    H135295   3.281   6.440  18.095  0.0888  0.6854 -0.2748
 3700TIP3    H235296   3.277   6.445  17.943  0.2746 -0.3542 -0.3244
 3701TIP3   OH235297   6.261   4.255  17.257  0.5796 -0.2518 -0.2208
 3701TIP3    H135298   6.285   4.246  17.349  2.5784  0.0214 -0.6716
 3701TIP3    H235299   6.223   4.343  17.250  0.1278 -0.3912  0.3759
 3702TIP3   OH235300   3.344   3.784  16.801 -0.5639  0.1764 -0.4471
 3702TIP3    H135301   3.258   3.802  16.763  0.0813  0.6648 -1.7505
 3702TIP3    H235302   3.405   3.790  16.727  0.5333 -0.7065  0.3362
 3703TIP3   OH235303   5.784   4.997  17.304 -0.0847  0.1630 -0.4462
 3703TIP3    H135304   5.853   5.057  17.333 -0.5750  0.1595  0.7762
 3703TIP3    H235305   5.708   5.054  17.289 -0.3817 -0.0788  0.1398
 3704TIP3   OH235306   1.366   1.603  17.489 -0.0144 -0.2941 -0.1704
 3704TIP3    H135307   1.369   1.594  17.584 -0.4902 -0.0717 -0.1321
 3704TIP3    H235308   1.385   1.696  17.473  1.8197 -0.6687 -0.3972
 3705TIP3   OH235309   0.855   0.815  16.784 -0.6733  0.7720  0.2669
 3705TIP3    H135310   0.851   0.725  16.817  0.6605  1.1366  1.5313
 3705TIP3    H235311   0.768   0.830  16.745 -1.0588 -0.9103  0.3843
 3706TIP3   OH235312   4.340   5.541  18.544 -0.1940  0.1750  0.7339
 3706TIP3    H135313   4.410   5.566  18.484  0.4862 -2.1868  0.4396
 3706TIP3    H235314   4.376   5.554  18.631 -0.2177  1.0624  0.6201
 3707TIP3   OH235315   3.965   4.020  16.914 -0.3334 -0.0423  0.1389
 3707TIP3    H135316   4.011   3.999  16.995  2.5064 -1.2433 -1.6421
 3707TIP3    H235317   3.965   4.116  16.911 -0.0971  0.0147  1.3016
 3708TIP3   OH235318   7.190   1.761  17.251 -0.0803  0.2393  0.6858
 3708TIP3    H135319   7.273   1.722  17.223  0.6184  0.6153  2.1255
 3708TIP3    H235320   7.129   1.741  17.180  1.3427  0.3375 -0.6170
 3709TIP3   OH235321   5.954   5.241  17.371 -0.8001  0.1186  0.1139
 3709TIP3    H135322   5.924   5.327  17.339 -1.2737 -0.7628 -1.9405
 3709TIP3    H235323   6.044   5.235  17.341 -0.2802  0.4625  1.5256
 3710TIP3   OH235324   7.138   5.190  18.481 -0.5570  0.3241 -0.3077
 3710TIP3    H135325   7.207   5.125  18.477  0.5752  1.4341  0.5186
 3710TIP3    H235326   7.057   5.140  18.465  0.5137 -0.7595 -2.7532
 3711TIP3   OH235327   1.057   0.166  18.522 -0.4351 -0.3520  0.0326
 3711TIP3    H135328   1.049   0.157  18.428 -1.1260  0.2597  0.0259
 3711TIP3    H235329   1.023   0.254  18.541  0.2804 -0.2195  0.7768
 3712TIP3   OH235330   2.808   6.849  17.240  0.5022  0.6988 -0.0189
 3712TIP3    H135331   2.820   6.757  17.218 -2.9445  0.2337 -0.5376
 3712TIP3    H235332   2.894   6.889  17.229  2.2719 -2.5644  0.9287
 3713TIP3   OH235333   3.835   1.775  18.220 -0.5141  0.6756  0.4141
 3713TIP3    H135334   3.920   1.734  18.202 -1.3976 -0.8679 -0.4098
 3713TIP3    H235335   3.836   1.855  18.167 -0.1306 -0.0727 -0.7586
 3714TIP3   OH235336   7.175   3.796  17.725  0.0918  0.4733 -0.5113
 3714TIP3    H135337   7.157   3.735  17.654  2.2281 -2.2824  1.1001
 3714TIP3    H235338   7.243   3.854  17.690  0.2018 -0.0248 -1.1312
 3715TIP3   OH235339   5.088   3.195  17.912 -0.3568  0.4245  0.1206
 3715TIP3    H135340   5.065   3.272  17.860  0.6489  1.7785  1.5892
 3715TIP3    H235341   5.085   3.225  18.002 -0.6344 -1.4753  0.7878
 3716TIP3   OH235342   2.597   2.830  16.622 -0.0011 -0.0051 -0.0558
 3716TIP3    H135343   2.621   2.889  16.551  0.1722 -0.6128 -0.5119
 3716TIP3    H235344   2.672   2.832  16.681 -0.9164  2.0020  1.1476
 3717TIP3   OH235345   6.815   4.980  16.894  0.3516 -0.3868 -0.1268
 3717TIP3    H135346   6.840   4.954  16.983 -2.4504 -2.6854  0.1304
 3717TIP3    H235347   6.746   5.045  16.907 -0.0237 -0.6899 -0.5822
 3718TIP3   OH235348   4.487   6.153  16.805 -0.0536  0.5937  0.4757
 3718TIP3    H135349   4.470   6.121  16.893 -1.1333  0.0127  0.0684
 3718TIP3    H235350   4.482   6.248  16.812  2.1147  0.6881  1.4807
 3719TIP3   OH235351   6.510   1.881  18.220  0.0124 -0.6172  0.4579
 3719TIP3    H135352   6.594   1.920  18.245  0.1885 -0.4752 -0.3322
 3719TIP3    H235353   6.490   1.920  18.135 -0.7071 -0.8801  0.5031
 3720TIP3   OH235354   5.963   0.314  17.062 -0.5767 -0.3460  0.1291
 3720TIP3    H135355   5.876   0.354  17.070 -0.0142  0.7853  0.7814
 3720TIP3    H235356   6.004   0.361  16.989 -1.4919 -2.8075 -2.1240
 3721TIP3   OH235357   5.650   0.657  18.023  0.4572  0.3278  0.3934
 3721TIP3    H135358   5.726   0.618  18.066 -0.1929 -0.1010  1.1682
 3721TIP3    H235359   5.625   0.730  18.081  0.2781  0.4744  0.1342
 3722TIP3   OH235360   0.010   2.788  18.407  0.2125 -0.1228 -0.1362
 3722TIP3    H135361  -0.047   2.712  18.418 -0.0862  0.0141 -0.7210
 3722TIP3    H235362  -0.033   2.857  18.459 -0.1755 -0.0102 -0.6037
 3723TIP3   OH235363   1.908   3.538  18.498 -0.0617  0.5408 -0.3143
 3723TIP3    H135364   1.907   3.458  18.445 -0.3115  0.5972 -0.3976
 3723TIP3    H235365   1.842   3.594  18.457  0.0254  0.7386 -0.1803
 3724TIP3   OH235366   0.475   5.467  18.347 -0.4071 -0.1224  0.2495
 3724TIP3    H135367   0.525   5.386  18.337 -0.8844 -0.4694  0.6723
 3724TIP3    H235368   0.427   5.456  18.429  0.7555  1.2494  1.1727
 3725TIP3   OH235369   4.295   5.713  17.063 -0.7373 -0.2971 -0.2070
 3725TIP3    H135370   4.254   5.733  16.978 -0.3729  1.3730 -0.0147
 3725TIP3    H235371   4.221   5.694  17.121 -1.0474 -0.4320 -0.6376
 3726TIP3   OH235372   3.287   3.603  18.442 -0.1281 -0.6892  0.2400
 3726TIP3    H135373   3.309   3.522  18.488 -2.8836 -0.7346  1.7000
 3726TIP3    H235374   3.192   3.597  18.428 -0.4867  2.3909  0.6815
 3727TIP3   OH235375   3.760   6.403  16.904  0.0033 -0.1185  0.5196
 3727TIP3    H135376   3.722   6.321  16.938 -0.9971  0.8054  1.7544
 3727TIP3    H235377   3.689   6.443  16.855  0.0609  0.6138  1.0226
 3728TIP3   OH235378   0.809   5.061  18.058  0.6104 -0.4566 -0.0485
 3728TIP3    H135379   0.811   5.048  18.153  0.3287  1.0941  0.2070
 3728TIP3    H235380   0.723   5.028  18.031  0.8759 -1.3376  0.1444
 3729TIP3   OH235381   2.011   1.261  17.152  0.1748  0.2487  0.3706
 3729TIP3    H135382   1.988   1.339  17.101 -0.6957 -0.1778  0.0912
 3729TIP3    H235383   1.974   1.278  17.239  1.3428  0.8159  0.7810
 3730TIP3   OH235384   3.196   1.691  17.609 -0.7185  0.2762  0.0365
 3730TIP3    H135385   3.262   1.634  17.647  0.1160  1.0331 -0.2524
 3730TIP3    H235386   3.183   1.760  17.675 -0.2567  0.8415 -0.4464
 3731TIP3   OH235387   0.699   6.506  17.999 -0.2398  0.2392 -0.2525
 3731TIP3    H135388   0.693   6.446  18.073  0.7063 -0.6462 -0.8748
 3731TIP3    H235389   0.790   6.501  17.971 -0.5459  0.6855 -1.3907
 3732TIP3   OH235390   4.406   3.235  17.131  0.0548  0.0890  0.2519
 3732TIP3    H135391   4.445   3.199  17.051  0.7894  0.7511  0.2969
 3732TIP3    H235392   4.481   3.264  17.183 -0.4967  2.1463 -0.0091
 3733TIP3   OH235393   7.285   3.702  17.123  0.6607 -1.2368 -0.1283
 3733TIP3    H135394   7.285   3.616  17.083 -0.1314 -0.7341 -1.2735
 3733TIP3    H235395   7.217   3.698  17.190  0.3768 -1.4050 -0.4237
 3734TIP3   OH235396   5.062   1.367  17.280  0.4375 -0.3792 -0.1768
 3734TIP3    H135397   4.997   1.350  17.349  0.0272 -0.7781 -0.6435
 3734TIP3    H235398   5.078   1.461  17.284 -0.8987 -0.1064 -0.6667
 3735TIP3   OH235399   2.258   5.332  16.171 -0.2883 -0.1640 -0.0804
 3735TIP3    H135400   2.238   5.379  16.090  0.0273 -0.5405 -0.3775
 3735TIP3    H235401   2.175   5.295  16.199 -0.4141  0.0382 -0.1874
 3736TIP3   OH235402   6.328   2.695  17.998  0.2888 -0.5650 -0.5103
 3736TIP3    H135403   6.354   2.779  18.038  1.8794 -1.7758  1.1531
 3736TIP3    H235404   6.234   2.689  18.014  0.0962  0.9653 -0.8393
 3737TIP3   OH235405   2.857   3.455  17.892 -0.0608 -0.3875 -0.1997
 3737TIP3    H135406   2.819   3.438  17.806  0.3844  1.4778 -0.7941
 3737TIP3    H235407   2.785   3.493  17.943 -0.5821 -2.2891  0.6023
 3738TIP3   OH235408   3.392   4.378  17.881  0.3993  0.9741 -0.4340
 3738TIP3    H135409   3.427   4.320  17.949 -1.3194  0.9443  0.4973
 3738TIP3    H235410   3.440   4.355  17.802  0.2929 -1.2234  0.0823
 3739TIP3   OH235411   7.233   2.332  16.086  0.4891  0.2210  0.1573
 3739TIP3    H135412   7.230   2.284  16.169  0.0434 -0.2235 -0.1104
 3739TIP3    H235413   7.299   2.285  16.034  1.6792  1.2373  0.6975
 3740TIP3   OH235414   0.476   7.321  17.340 -0.3169  0.2759  0.0817
 3740TIP3    H135415   0.390   7.318  17.382 -0.2772  0.6415  0.1931
 3740TIP3    H235416   0.538   7.325  17.412 -0.2178  0.3058 -0.0038
 3741TIP3   OH235417   4.710   4.463  18.159 -0.0215 -0.4711  0.3042
 3741TIP3    H135418   4.741   4.549  18.187  0.1451  0.4806 -2.4448
 3741TIP3    H235419   4.711   4.468  18.063 -0.8888 -3.2422  0.0717
 3742TIP3   OH235420   0.680   3.017  17.903  0.0200 -0.2740  0.0772
 3742TIP3    H135421   0.727   2.991  17.982  0.7147 -1.7647 -0.7941
 3742TIP3    H235422   0.732   3.090  17.868  0.8032 -0.8586 -0.0097
 3743TIP3   OH235423   0.372   5.945  17.166  0.3344 -0.1587  0.1894
 3743TIP3    H135424   0.289   5.990  17.180 -0.0141 -0.4438 -0.8353
 3743TIP3    H235425   0.347   5.860  17.130  1.0901  0.0291 -0.8308
 3744TIP3   OH235426   3.435   4.511  17.392  0.4662  0.4783 -0.6820
 3744TIP3    H135427   3.445   4.508  17.297  1.0686 -2.1951 -0.6083
 3744TIP3    H235428   3.524   4.516  17.426  0.5119 -1.7375 -0.2934
 3745TIP3   OH235429   2.572   3.002  17.262  0.5451  0.4092 -0.2251
 3745TIP3    H135430   2.634   2.934  17.288  0.4613 -1.0351 -3.3565
 3745TIP3    H235431   2.627   3.068  17.219  0.4117  1.5574  1.2843
 3746TIP3   OH235432   0.010   1.544  17.918  0.2251  0.1657 -0.0556
 3746TIP3    H135433   0.039   1.559  18.008  2.2983 -0.3124 -0.5847
 3746TIP3    H235434   0.005   1.449  17.910 -1.4474  0.2270 -0.0385
 3747TIP3   OH235435   4.263   2.031  18.266 -0.4126  0.3678  0.4384
 3747TIP3    H135436   4.256   2.119  18.228  1.2860  0.0043 -0.7906
 3747TIP3    H235437   4.353   2.025  18.297 -0.1473 -1.3247 -0.5224
 3748TIP3   OH235438   1.393   7.210  17.562  0.3436 -0.5190  0.1709
 3748TIP3    H135439   1.315   7.218  17.507  0.5772 -0.0696 -0.0998
 3748TIP3    H235440   1.427   7.123  17.544 -1.5618 -1.8226  2.2407
 3749TIP3   OH235441   0.839   5.098  16.704  0.2039  0.1991 -0.4728
 3749TIP3    H135442   0.925   5.068  16.674  0.3626  0.3572 -0.1854
 3749TIP3    H235443   0.808   5.156  16.634 -0.5003 -1.3087 -1.4515
 3750TIP3   OH235444   1.168   4.351  18.109 -0.3459 -0.2881  0.4107
 3750TIP3    H135445   1.248   4.305  18.136  0.3691  0.2644 -0.6720
 3750TIP3    H235446   1.164   4.338  18.014 -2.0915 -1.1260  0.5535
 3751TIP3   OH235447   2.864   0.005  18.505  0.0126 -0.1445 -0.5934
 3751TIP3    H135448   2.793   0.037  18.561  1.0482  0.7020  0.2743
 3751TIP3    H235449   2.913  -0.056  18.561  1.3549  1.0935 -0.3473
 3752TIP3   OH235450   1.131   2.759  16.687 -0.1113  0.7680  0.3890
 3752TIP3    H135451   1.104   2.707  16.763 -1.2451  0.6895 -0.0337
 3752TIP3    H235452   1.137   2.849  16.720 -0.2745  0.6858  0.6477
 3753TIP3   OH235453   1.594   4.616  16.397 -0.3660 -0.5379 -0.1903
 3753TIP3    H135454   1.548   4.621  16.313 -1.0343 -0.5426  0.1654
 3753TIP3    H235455   1.605   4.707  16.424 -2.0582 -0.5447  0.7111
 3754TIP3   OH235456   0.607   5.741  17.207 -0.2335  0.0929 -0.6626
 3754TIP3    H135457   0.676   5.807  17.214 -0.7166  0.5689 -0.3050
 3754TIP3    H235458   0.529   5.791  17.182 -1.1913  0.0737  1.9219
 3755TIP3   OH235459   0.946   3.253  18.013  0.7683 -0.9742 -0.4814
 3755TIP3    H135460   0.986   3.294  18.089  1.2309  0.4460 -1.4556
 3755TIP3    H235461   0.852   3.259  18.029  0.8288  0.3499 -0.5288
 3756TIP3   OH235462   7.042   5.779  17.584 -0.6252  0.2013 -0.4509
 3756TIP3    H135463   7.129   5.744  17.566  0.0695  1.4484  0.3046
 3756TIP3    H235464   6.996   5.709  17.630  0.7148  0.2209  1.0047
 3757TIP3   OH235465   5.319   7.015  17.346  0.2988  0.3740 -0.4264
 3757TIP3    H135466   5.371   6.978  17.417  1.2050 -0.3666 -1.4241
 3757TIP3    H235467   5.370   7.091  17.316  1.0005 -0.5070 -1.5795
 3758TIP3   OH235468   2.664   3.414  18.263 -0.8246 -0.0214  0.0289
 3758TIP3    H135469   2.569   3.425  18.262 -1.1248 -1.6443 -3.1121
 3758TIP3    H235470   2.696   3.475  18.196  0.1392 -0.7216 -0.1739
 3759TIP3   OH235471   6.995   4.467  17.406 -0.1428 -0.3490  0.0611
 3759TIP3    H135472   6.932   4.398  17.427 -2.2228  1.4434  0.0529
 3759TIP3    H235473   7.011   4.511  17.490  1.5387 -1.0463  0.1574
 3760TIP3   OH235474   4.442   1.967  17.549  0.0970 -0.0273  0.3387
 3760TIP3    H135475   4.452   1.895  17.611  0.4962  1.7766  2.5140
 3760TIP3    H235476   4.350   1.964  17.523  0.1023 -1.2892  0.3899
 3761TIP3   OH235477   4.816   2.554  17.750  0.4216 -0.5392 -0.3577
 3761TIP3    H135478   4.807   2.609  17.672 -0.4232 -1.5926 -1.0406
 3761TIP3    H235479   4.754   2.591  17.813  1.8712  0.9697  0.2514
 3762TIP3   OH235480   0.848   2.433  16.828  0.0709  0.2843  0.2957
 3762TIP3    H135481   0.864   2.339  16.834 -1.3465 -0.0732 -0.8405
 3762TIP3    H235482   0.916   2.466  16.770 -0.0626 -0.2322 -0.1603
 3763TIP3   OH235483   5.600   4.305  17.445 -0.0065 -0.0234  0.3119
 3763TIP3    H135484   5.581   4.373  17.381 -1.1717  0.6891  1.3790
 3763TIP3    H235485   5.599   4.350  17.530  0.5102 -1.1297  0.9327
 3764TIP3   OH235486   3.425   0.713  16.574 -0.6238 -0.4983  0.0821
 3764TIP3    H135487   3.426   0.723  16.479  2.9397  1.6001  0.1308
 3764TIP3    H235488   3.364   0.780  16.604  0.8609  1.3265 -0.7274
 3765TIP3   OH235489   1.265   4.601  17.340  0.0629  0.1021  0.4340
 3765TIP3    H135490   1.254   4.622  17.247 -0.1308  0.5384  0.5519
 3765TIP3    H235491   1.300   4.681  17.378  2.4317 -0.7910  0.3289
 3766TIP3   OH235492   3.360   2.117  17.895  0.4100 -0.2028  0.2457
 3766TIP3    H135493   3.422   2.091  17.827  0.6677  0.7173  0.1088
 3766TIP3    H235494   3.344   2.210  17.877 -0.8234 -0.3742  0.4228
 3767TIP3   OH235495   7.310   5.428  15.949 -0.9350 -0.0682  0.5099
 3767TIP3    H135496   7.363   5.472  15.883 -1.7769 -1.3018 -1.0683
 3767TIP3    H235497   7.244   5.493  15.974  0.5588  1.0783  1.6489
 3768TIP3   OH235498   0.427   3.454  16.310  0.2515  0.3026 -0.7878
 3768TIP3    H135499   0.351   3.419  16.355 -0.1036  1.1155 -0.7286
 3768TIP3    H235500   0.502   3.410  16.349 -0.2301 -1.1398 -1.4345
 3769TIP3   OH235501   7.070   4.024  18.472  0.0714  0.1929  0.0728
 3769TIP3    H135502   7.065   3.937  18.510  0.3336  0.7835  1.5208
 3769TIP3    H235503   7.000   4.026  18.407 -1.6270 -0.2954  1.7797
 3770TIP3   OH235504   2.599   5.065  17.893  0.1398  0.3959  0.1797
 3770TIP3    H135505   2.686   5.069  17.933 -0.4844  0.9031  1.5309
 3770TIP3    H235506   2.542   5.032  17.962 -0.6122 -0.7252 -0.9414
 3771TIP3   OH235507   1.395   0.971  16.216 -0.1765  0.0464 -0.0080
 3771TIP3    H135508   1.388   0.968  16.311  1.5147 -0.7459  0.1231
 3771TIP3    H235509   1.489   0.971  16.198 -0.4389 -1.1430 -1.7031
 3772TIP3   OH235510   6.671   1.635  18.259  0.3978  0.1931  0.2989
 3772TIP3    H135511   6.643   1.711  18.208  1.4291  0.6161  0.3249
 3772TIP3    H235512   6.594   1.579  18.266  0.0294  0.5246 -1.0234
 3773TIP3   OH235513   2.835   1.837  16.462  0.1226 -0.1717  0.3697
 3773TIP3    H135514   2.903   1.884  16.414 -1.7126  1.1483 -1.0898
 3773TIP3    H235515   2.841   1.872  16.551  0.2250  1.2526 -0.1685
 3774TIP3   OH235516   7.556   7.296  18.138 -0.5619  0.6838  0.2622
 3774TIP3    H135517   7.611   7.226  18.102 -0.6479  0.5420  0.4039
 3774TIP3    H235518   7.485   7.250  18.184  0.2445  0.8246  1.7286
 3775TIP3   OH235519   3.988   1.854  17.872  0.5642 -0.0839  0.5344
 3775TIP3    H135520   3.938   1.860  17.790 -0.7767 -1.5257  1.1742
 3775TIP3    H235521   3.947   1.918  17.930  1.7560  1.2053  0.0061
 3776TIP3   OH235522   3.421   6.892  17.405  0.1416  0.0036 -0.7117
 3776TIP3    H135523   3.456   6.815  17.452 -1.1070  0.1631  0.5329
 3776TIP3    H235524   3.463   6.967  17.448 -0.2138  0.1040 -0.5376
 3777TIP3   OH235525   0.843   1.551  16.648  0.3572 -0.2910  0.0454
 3777TIP3    H135526   0.775   1.526  16.710 -1.6442  0.4268 -1.7406
 3777TIP3    H235527   0.816   1.638  16.617  0.8478 -0.9143 -2.3273
 3778TIP3   OH235528   4.438   7.552  17.365  0.7870 -0.2203  0.0418
 3778TIP3    H135529   4.492   7.625  17.396  0.1073  0.2654  0.1029
 3778TIP3    H235530   4.467   7.478  17.418  1.8479 -0.1258 -0.3770
 3779TIP3   OH235531   0.266   1.894  17.237 -0.2413 -0.3990  0.4876
 3779TIP3    H135532   0.290   1.873  17.327  0.6217  1.6885  0.7937
 3779TIP3    H235533   0.317   1.971  17.215 -0.6022 -0.7152 -1.7419
 3780TIP3   OH235534   0.276   4.679  16.952  0.3463 -1.0204 -0.2979
 3780TIP3    H135535   0.219   4.607  16.979  0.2396 -0.2498  1.6759
 3780TIP3    H235536   0.357   4.666  17.001  0.9581 -0.7001 -1.1848
 3781TIP3   OH235537   1.085   7.677  18.288 -0.8534 -0.0980 -0.3905
 3781TIP3    H135538   1.169   7.676  18.333 -1.6229 -0.1642  1.1149
 3781TIP3    H235539   1.065   7.584  18.272  0.1067 -0.0261 -2.2940
 3782TIP3   OH235540   5.056   1.737  19.058 -0.2073 -0.1724 -0.4975
 3782TIP3    H135541   5.092   1.739  19.146  1.9122  0.6062 -1.2899
 3782TIP3    H235542   4.971   1.780  19.065 -0.2193 -0.4368  1.2124
 3783TIP3   OH235543   0.599   7.252  17.572 -0.6713 -0.0282  0.1512
 3783TIP3    H135544   0.549   7.196  17.632 -1.6500  0.4959 -0.1557
 3783TIP3    H235545   0.647   7.312  17.630  2.1840 -2.4828  0.6509
 3784TIP3   OH235546   5.489   6.063  16.332 -1.0020 -0.1668 -0.6236
 3784TIP3    H135547   5.421   6.001  16.303 -0.7391 -0.3882 -0.7771
 3784TIP3    H235548   5.550   6.009  16.383 -0.5801 -0.1096 -1.0566
 3785TIP3   OH235549   6.879   0.192  17.396 -0.1653 -0.1846  0.2424
 3785TIP3    H135550   6.886   0.102  17.366 -2.5451  0.1742 -1.6600
 3785TIP3    H235551   6.932   0.242  17.334 -2.1773  0.1283 -1.3337
 3786TIP3   OH235552   3.453   1.524  16.120  0.0738  0.4758  0.0492
 3786TIP3    H135553   3.450   1.599  16.061  1.5276  0.5597  0.0405
 3786TIP3    H235554   3.521   1.546  16.183  0.5196 -0.8195  0.0501
 3787TIP3   OH235555   5.139   2.018  16.937  0.2722  0.5723 -0.2278
 3787TIP3    H135556   5.198   2.076  16.984  0.0283  1.4526 -0.9732
 3787TIP3    H235557   5.152   1.932  16.977  0.3407  1.2107  1.1836
 3788TIP3   OH235558   3.627   1.556  17.578  0.2710 -0.3353  0.0879
 3788TIP3    H135559   3.695   1.598  17.631  0.2884  1.1624 -1.0570
 3788TIP3    H235560   3.663   1.470  17.558  0.5151 -0.7325  1.9811
 3789TIP3   OH235561   2.753   7.078  17.760 -0.4503 -0.3883 -0.1543
 3789TIP3    H135562   2.822   7.035  17.811  1.0877  1.7751 -0.2624
 3789TIP3    H235563   2.724   7.150  17.816 -2.6889 -1.2426 -0.1303
 3790TIP3   OH235564   1.487   7.431  18.620  0.1440 -0.7446 -0.1416
 3790TIP3    H135565   1.436   7.400  18.695 -0.3664 -1.3237 -0.7029
 3790TIP3    H235566   1.548   7.495  18.656  0.7404 -1.8925  0.9627
 3791TIP3   OH235567   6.591   6.606  16.859  0.1041  0.1666 -0.2294
 3791TIP3    H135568   6.602   6.648  16.945 -1.9496  0.5267 -0.0827
 3791TIP3    H235569   6.514   6.550  16.871 -1.7060  1.9948 -2.4318
 3792TIP3   OH235570   2.296   2.605  17.741 -0.0397 -0.0087  0.0333
 3792TIP3    H135571   2.293   2.699  17.721  1.2219  0.4454  1.6899
 3792TIP3    H235572   2.356   2.599  17.815 -0.6110 -2.0748  0.3822
 3793TIP3   OH235573   6.795   2.772  18.164  0.4611  0.1923 -0.2491
 3793TIP3    H135574   6.830   2.800  18.079 -1.1132 -0.0046 -1.0004
 3793TIP3    H235575   6.863   2.794  18.226  1.6302  0.4140 -1.5597
 3794TIP3   OH235576   4.322   7.566  17.711  0.0855 -0.1700  0.2414
 3794TIP3    H135577   4.338   7.541  17.802  0.8776 -0.5807  0.0009
 3794TIP3    H235578   4.274   7.492  17.674  0.2217 -0.2314  0.1874
 3795TIP3   OH235579   2.360   4.881  17.422 -0.4901 -0.2259 -0.3469
 3795TIP3    H135580   2.321   4.885  17.335  1.2853  0.8559 -1.1536
 3795TIP3    H235581   2.325   4.958  17.467 -1.7751 -1.0379  0.1080
 3796TIP3   OH235582   6.113   4.002  17.684  0.4348  0.5182 -0.3967
 3796TIP3    H135583   6.043   4.067  17.691 -0.7376 -0.5591 -1.4490
 3796TIP3    H235584   6.109   3.973  17.593  1.4467 -0.4502 -0.1523
 3797TIP3   OH235585   5.020   7.563  18.299 -0.9378 -0.3794 -0.2095
 3797TIP3    H135586   4.924   7.561  18.293 -0.8969  0.5019 -1.6937
 3797TIP3    H235587   5.045   7.638  18.245  0.6437 -1.2415 -0.7234
 3798TIP3   OH235588   2.195   1.237  18.184  0.0476 -0.3202 -0.3297
 3798TIP3    H135589   2.211   1.316  18.133  1.6984 -1.1093 -1.1115
 3798TIP3    H235590   2.187   1.267  18.274  2.1199  0.6369 -0.4132
 3799TIP3   OH235591   1.849   6.955  17.561  0.1584  0.2723 -0.3858
 3799TIP3    H135592   1.823   7.030  17.507  0.2660  0.3744 -0.2982
 3799TIP3    H235593   1.807   6.880  17.520  1.4226  0.1334 -1.4910
 3800TIP3   OH235594   0.214   1.794  16.958  0.2045  0.1239 -0.1905
 3800TIP3    H135595   0.283   1.823  16.899  0.7923 -0.0531  0.4079
 3800TIP3    H235596   0.237   1.831  17.043 -0.4985  0.1568 -0.0010
 3801TIP3   OH235597   5.572   6.362  18.551  0.4501  0.3298  0.2824
 3801TIP3    H135598   5.648   6.409  18.585 -0.4476  1.2671  1.0773
 3801TIP3    H235599   5.499   6.393  18.604 -0.5239 -0.4191 -0.5703
 3802TIP3   OH235600   6.046   4.672  17.365  0.2778 -0.0972 -0.3311
 3802TIP3    H135601   6.074   4.702  17.451  2.4729 -0.4882 -0.8511
 3802TIP3    H235602   6.029   4.753  17.316 -0.4220  0.1346  0.2932
 3803TIP3   OH235603   5.201   5.726  16.038 -0.0635  0.5064  0.3538
 3803TIP3    H135604   5.227   5.688  15.954 -1.2724 -1.2403  0.7188
 3803TIP3    H235605   5.107   5.711  16.043 -0.4940  3.0214  0.8550
 3804TIP3   OH235606   3.776   1.824  17.397  0.3062 -0.3170  0.3574
 3804TIP3    H135607   3.777   1.809  17.303 -0.0850  0.6113  0.2023
 3804TIP3    H235608   3.684   1.811  17.423  0.0085  1.3755  0.2707
 3805TIP3   OH235609   0.084   3.295  17.932  0.0867 -0.1460  0.4581
 3805TIP3    H135610   0.127   3.352  17.868  2.4504 -1.0153  1.1529
 3805TIP3    H235611   0.060   3.353  18.004 -3.8412  1.1086 -1.5738
 3806TIP3   OH235612   7.677   0.176  19.142  0.2855 -0.3898 -0.5932
 3806TIP3    H135613   7.651   0.212  19.226  0.1428 -0.3280 -0.6652
 3806TIP3    H235614   7.668   0.248  19.080 -3.2020 -1.3476 -1.3943
 3807TIP3   OH235615   5.382   5.088  17.465 -0.2147  0.3221  0.1710
 3807TIP3    H135616   5.315   5.140  17.420 -1.5206 -1.7676 -0.4714
 3807TIP3    H235617   5.463   5.108  17.418 -1.1635 -0.1887 -1.8363
 3808TIP3   OH235618   1.428   0.831  16.851  0.0210 -0.2908 -0.1733
 3808TIP3    H135619   1.461   0.771  16.918 -1.5359 -0.0356  0.8793
 3808TIP3    H235620   1.506   0.877  16.819  1.2351 -2.7070 -0.9117
 3809TIP3   OH235621   6.463   6.284  16.681  0.0456  0.0397 -0.4324
 3809TIP3    H135622   6.457   6.202  16.632 -0.9637 -0.1654  0.0149
 3809TIP3    H235623   6.554   6.287  16.712  0.6088 -0.0116 -1.9521
 3810TIP3   OH235624   0.919   2.426  17.648  0.0333 -0.5026  0.2832
 3810TIP3    H135625   0.893   2.431  17.740  1.1831  1.9494  0.5407
 3810TIP3    H235626   0.997   2.369  17.648 -0.7770 -1.6524  0.5757
 3811TIP3   OH235627   3.592   0.172  18.351 -0.0172 -0.3479 -0.1204
 3811TIP3    H135628   3.524   0.167  18.418  0.2831 -2.4437  0.0941
 3811TIP3    H235629   3.675   0.173  18.400  0.1669  0.2582 -0.4286
 3812TIP3   OH235630   6.908   1.085  18.305  0.4281  0.3641  0.9172
 3812TIP3    H135631   6.893   0.992  18.323  1.7443 -0.0999 -0.2454
 3812TIP3    H235632   6.829   1.113  18.258  1.9827 -1.5009 -3.2917
 3813TIP3   OH235633   5.776   7.199  17.491 -0.0132  0.0942  0.1026
 3813TIP3    H135634   5.732   7.157  17.565  0.6269 -1.3680 -0.3011
 3813TIP3    H235635   5.736   7.159  17.414  0.4944  0.3669 -0.3082
 3814TIP3   OH235636   5.706   4.653  17.719  0.0555 -0.6121  0.5744
 3814TIP3    H135637   5.727   4.701  17.638  0.0302 -1.4284  0.0753
 3814TIP3    H235638   5.762   4.575  17.715  1.6237  0.3407  2.3768
 3815TIP3   OH235639   5.158   4.931  18.070  0.2558 -0.0445 -0.0442
 3815TIP3    H135640   5.241   4.957  18.031 -0.3011  1.6185 -0.1959
 3815TIP3    H235641   5.181   4.863  18.134  1.6483  0.0266 -0.4562
 3816TIP3   OH235642   3.104   2.528  16.326  0.6126  0.3533 -0.0430
 3816TIP3    H135643   3.089   2.434  16.315 -0.9397  0.4327  1.0626
 3816TIP3    H235644   3.071   2.567  16.244 -1.1186  0.1041  0.4903
 3817TIP3   OH235645   1.670   6.171  17.978 -0.0919 -0.2745 -0.4950
 3817TIP3    H135646   1.728   6.182  17.903 -0.6308  0.5930 -0.8021
 3817TIP3    H235647   1.678   6.078  18.002  0.5506 -0.4170 -1.2377
 3818TIP3   OH235648   2.929   2.091  17.043  0.0345  0.0135 -0.4129
 3818TIP3    H135649   2.971   2.071  16.959  0.2421 -0.1685 -0.2666
 3818TIP3    H235650   2.835   2.083  17.026  0.0822 -0.1639 -0.5896
 3819TIP3   OH235651   3.803   3.502  17.152 -0.0555 -0.2749 -0.5413
 3819TIP3    H135652   3.830   3.510  17.061 -1.1109 -1.0599 -0.9497
 3819TIP3    H235653   3.717   3.543  17.156 -1.0814 -2.2721 -0.4709
 3820TIP3   OH235654   2.943   4.586  17.900 -0.4205 -0.1206 -0.1053
 3820TIP3    H135655   3.006   4.538  17.953  0.5256 -0.4166 -1.4533
 3820TIP3    H235656   2.873   4.523  17.883  0.7919 -1.1166 -1.8293
 3821TIP3   OH235657   7.564   2.570  18.435  0.3987  0.5493 -0.7710
 3821TIP3    H135658   7.485   2.527  18.401  1.1259 -2.0381  0.5103
 3821TIP3    H235659   7.620   2.497  18.462  1.4433  2.3634  2.3638
 3822TIP3   OH235660   0.322   4.461  18.476  0.3079  0.2345  0.4001
 3822TIP3    H135661   0.415   4.475  18.457  0.7087 -0.9972  1.3113
 3822TIP3    H235662   0.297   4.535  18.531  0.8446  0.3736  0.4583
 3823TIP3   OH235663   0.189   5.094  18.324 -0.0671  0.0260  0.9947
 3823TIP3    H135664   0.212   5.176  18.367  0.5605  0.4401 -0.0783
 3823TIP3    H235665   0.115   5.060  18.374 -0.3781  1.2809  1.4186
 3824TIP3   OH235666   7.221   3.003  18.276  0.2202  0.2227  0.0311
 3824TIP3    H135667   7.259   3.030  18.193  0.5107  0.2930  0.1834
 3824TIP3    H235668   7.208   3.085  18.325 -4.0939  0.7667 -1.5972
 3825TIP3   OH235669   5.499   6.543  18.102  0.4249  0.9553  0.7714
 3825TIP3    H135670   5.489   6.470  18.164 -0.3862  0.0903 -0.3499
 3825TIP3    H235671   5.561   6.511  18.037 -1.5257  0.4145 -0.9002
 3826TIP3   OH235672   7.406   7.372  18.895  0.0562  0.2310 -0.2279
 3826TIP3    H135673   7.495   7.406  18.895  0.7589 -1.5328 -0.2701
 3826TIP3    H235674   7.414   7.282  18.864 -1.9549  0.5274 -1.8837
 3827TIP3   OH235675   2.900   2.116  18.806  0.1201 -0.1262 -0.1597
 3827TIP3    H135676   2.944   2.183  18.858  0.5502  0.0267 -0.7119
 3827TIP3    H235677   2.885   2.157  18.721  0.5127 -0.7768 -0.5518
 3828TIP3   OH235678   1.581   3.522  17.535 -0.0192 -0.5621  0.3561
 3828TIP3    H135679   1.626   3.472  17.467 -1.4712 -0.7186 -0.5219
 3828TIP3    H235680   1.514   3.463  17.569 -3.0013  1.2061 -1.9590
 3829TIP3   OH235681   4.298   0.889  17.175  0.3621 -1.0878  0.5098
 3829TIP3    H135682   4.256   0.841  17.103 -0.2841 -0.0719  0.1949
 3829TIP3    H235683   4.262   0.849  17.254 -0.5826 -0.7891  0.2467
 3830TIP3   OH235684   0.544   4.236  17.362 -0.0592  0.4460 -0.1019
 3830TIP3    H135685   0.523   4.209  17.273 -2.1860 -0.5140  0.6126
 3830TIP3    H235686   0.466   4.283  17.391 -0.0483 -0.5607  1.7189
 3831TIP3   OH235687   1.052   5.554  18.394 -0.0723  0.4768  0.0203
 3831TIP3    H135688   1.000   5.631  18.417  1.0088  0.8878  1.2384
 3831TIP3    H235689   1.122   5.587  18.337  0.7123  0.5363  0.9780
 3832TIP3   OH235690   5.887   5.577  15.796  0.2025 -0.4070 -0.3280
 3832TIP3    H135691   5.938   5.547  15.872  1.5337 -1.8474 -1.7181
 3832TIP3    H235692   5.796   5.557  15.819  0.4963 -0.1726  1.1561
 3833TIP3   OH235693   1.673   5.099  18.392 -0.2642  0.4607  0.1206
 3833TIP3    H135694   1.760   5.064  18.411 -0.1909 -0.2271 -1.3136
 3833TIP3    H235695   1.617   5.062  18.460 -0.2456 -2.7917 -1.3966
 3834TIP3   OH235696   3.091   0.782  17.990  0.0242 -0.4932 -0.1406
 3834TIP3    H135697   3.129   0.706  18.034  0.0257 -1.5116 -1.8195
 3834TIP3    H235698   2.997   0.763  17.986 -0.1582  0.2023  0.5422
 3835TIP3   OH235699   6.030   0.166  16.413  0.4710 -0.5771  0.5430
 3835TIP3    H135700   5.958   0.124  16.366  1.2663 -1.4806  0.0996
 3835TIP3    H235701   5.989   0.203  16.491 -0.3573 -1.6739  0.6575
 3836TIP3   OH235702   5.454   1.723  16.232 -0.2178  0.2150  0.5203
 3836TIP3    H135703   5.532   1.753  16.280  0.3457  1.3468 -1.0087
 3836TIP3    H235704   5.489   1.678  16.156 -1.0880 -0.3444  0.4395
 3837TIP3   OH235705   6.186   5.662  18.347  0.4818 -0.2943  0.5129
 3837TIP3    H135706   6.169   5.584  18.400  1.2450 -0.6984  0.1829
 3837TIP3    H235707   6.268   5.643  18.302  0.4779  0.5460  0.1252
 3838TIP3   OH235708   7.445   6.656  18.195 -0.1717 -0.2563 -0.3858
 3838TIP3    H135709   7.456   6.750  18.209  0.5284 -0.3272 -0.4594
 3838TIP3    H235710   7.390   6.627  18.268 -0.6297  0.2567 -0.5170
 3839TIP3   OH235711   7.655   3.867  17.188  0.4110  0.2183 -0.5344
 3839TIP3    H135712   7.742   3.888  17.155  0.7725  1.4631  1.0840
 3839TIP3    H235713   7.613   3.818  17.117  1.8105  1.0876 -2.0173
 3840TIP3   OH235714   4.759   4.890  17.895  0.0380 -0.2568  0.0446
 3840TIP3    H135715   4.742   4.872  17.987  0.6600 -1.9371 -0.1446
 3840TIP3    H235716   4.676   4.871  17.851  0.2823 -1.3649  0.0340
 3841TIP3   OH235717   3.705   0.119  16.339 -0.3094 -0.0831  0.8397
 3841TIP3    H135718   3.796   0.144  16.326  0.1890 -2.4575 -0.9140
 3841TIP3    H235719   3.659   0.155  16.262 -0.0936 -2.0430 -0.2537
 3842TIP3   OH235720   1.826   2.047  16.168  0.0018 -0.0216 -0.5269
 3842TIP3    H135721   1.789   1.971  16.213  2.6504 -0.8728  0.3566
 3842TIP3    H235722   1.825   2.116  16.234  0.4127 -0.1732 -0.3631
 3843TIP3   OH235723   6.520   5.350  17.902  0.6010 -0.0480  0.4123
 3843TIP3    H135724   6.511   5.444  17.920 -1.9096 -0.2090  0.4338
 3843TIP3    H235725   6.438   5.327  17.858  0.3400 -2.5709  2.0001
 3844TIP3   OH235726   0.565   2.902  17.571 -0.1364 -0.9710 -0.1809
 3844TIP3    H135727   0.593   2.871  17.657 -0.2719 -0.5639  0.0128
 3844TIP3    H235728   0.493   2.962  17.590  1.0210  0.5612 -0.4486
 3845TIP3   OH235729   5.460   0.146  18.977  0.1314 -0.2506 -0.4170
 3845TIP3    H135730   5.399   0.134  19.049  0.8266 -3.2199 -0.1725
 3845TIP3    H235731   5.405   0.151  18.899 -0.5271  0.3614  0.0747
 3846TIP3   OH235732   5.723   1.340  18.186 -0.3760  0.4686 -0.0191
 3846TIP3    H135733   5.669   1.323  18.263 -1.0699 -0.2001 -0.6344
 3846TIP3    H235734   5.664   1.329  18.112  0.9701 -2.1581 -0.8283
 3847TIP3   OH235735   0.472   4.354  16.217  0.5757 -0.1123  0.1702
 3847TIP3    H135736   0.565   4.367  16.196 -0.0204  0.9426 -2.2097
 3847TIP3    H235737   0.450   4.271  16.174  0.2382  0.0727 -0.0139
 3848TIP3   OH235738   2.659   3.309  17.688 -0.5947  0.3386  0.4297
 3848TIP3    H135739   2.683   3.224  17.651 -1.5191 -0.4968  1.6625
 3848TIP3    H235740   2.607   3.350  17.619 -0.1961 -0.1286 -0.1609
 3849TIP3   OH235741   5.411   5.806  18.172 -0.5451 -0.0445 -0.2859
 3849TIP3    H135742   5.406   5.712  18.189  0.1253  0.1755  1.2486
 3849TIP3    H235743   5.488   5.816  18.116  1.0690 -0.1598  1.8163
 3850TIP3   OH235744   4.848   2.106  17.315 -0.2265  0.4606 -0.1634
 3850TIP3    H135745   4.893   2.059  17.245  0.1040 -0.0545  0.3797
 3850TIP3    H235746   4.787   2.164  17.270 -0.7786 -0.6207 -0.8477
 3851TIP3   OH235747   1.337   0.965  18.129 -0.3038 -0.4146 -0.1055
 3851TIP3    H135748   1.358   0.897  18.066  2.0755 -0.5685  0.7501
 3851TIP3    H235749   1.416   1.018  18.135 -1.1512  0.7936  1.2693
 3852TIP3   OH235750   5.780   1.618  18.076  0.1268 -0.0199 -0.2924
 3852TIP3    H135751   5.785   1.550  18.143 -0.7429  0.7627  0.6046
 3852TIP3    H235752   5.833   1.585  18.004  1.3885 -0.7290  0.9159
 3853TIP3   OH235753   0.511   4.707  16.264 -0.0829  0.3594 -0.0732
 3853TIP3    H135754   0.574   4.773  16.292  0.1058 -0.4569  1.5052
 3853TIP3    H235755   0.554   4.662  16.191  0.8718  0.2725  0.5336
 3854TIP3   OH235756   4.460   2.237  18.806 -0.2425 -0.0093  0.0308
 3854TIP3    H135757   4.464   2.149  18.768  0.5584 -0.5642  1.3196
 3854TIP3    H235758   4.367   2.259  18.806 -0.2361  0.5103 -3.1968
 3855TIP3   OH235759   4.811   4.989  17.065 -0.1806  0.1470  0.4077
 3855TIP3    H135760   4.817   5.079  17.096  0.2411  0.7524 -1.2854
 3855TIP3    H235761   4.893   4.975  17.018 -0.0901 -1.2563  0.9405
 3856TIP3   OH235762   5.400   0.051  16.379 -0.4752 -0.2950 -0.2538
 3856TIP3    H135763   5.436   0.028  16.293  1.3275  0.7155  0.1783
 3856TIP3    H235764   5.333  -0.016  16.396  2.0191 -3.1209 -0.5924
 3857TIP3   OH235765   7.571   5.070  16.834 -0.3582  0.7469  0.1261
 3857TIP3    H135766   7.487   5.062  16.878  0.0795 -2.3450  0.5970
 3857TIP3    H235767   7.553   5.052  16.742 -0.2157 -0.1548  0.2647
 3858TIP3   OH235768   6.327   7.187  18.167  0.1130  0.1839 -0.0433
 3858TIP3    H135769   6.402   7.245  18.177 -0.4308  0.7165  1.1248
 3858TIP3    H235770   6.251   7.244  18.173 -0.4887 -0.7217  2.4805
 3859TIP3   OH235771   4.825   0.964  18.627 -0.0890  0.2879  0.1321
 3859TIP3    H135772   4.851   0.978  18.537  0.0313  2.0370  0.4087
 3859TIP3    H235773   4.899   0.997  18.679 -0.9400  1.0955  0.8679
 3860TIP3   OH235774   6.893   7.568  17.745 -0.0061  0.0773  0.2411
 3860TIP3    H135775   6.947   7.506  17.696 -1.6295  0.8887 -2.8378
 3860TIP3    H235776   6.931   7.653  17.726 -1.4524  0.5300 -0.8452
 3861TIP3   OH235777   4.872   1.633  18.121 -0.3974  0.2191  0.2307
 3861TIP3    H135778   4.936   1.673  18.179  0.0880  0.5352 -0.5049
 3861TIP3    H235779   4.917   1.626  18.036 -2.5327  4.1230 -1.4803
 3862TIP3   OH235780   1.010   1.046  16.692  0.1614  0.9627  0.2891
 3862TIP3    H135781   1.106   1.045  16.690  0.1562  1.0320 -0.0957
 3862TIP3    H235782   0.986   0.963  16.733  0.3028 -1.6463 -4.2267
 3863TIP3   OH235783   0.613   2.350  16.971 -0.0371  0.5598 -0.4494
 3863TIP3    H135784   0.621   2.263  17.008 -0.3970  1.3864  1.7218
 3863TIP3    H235785   0.703   2.377  16.952  0.0050 -0.6674 -2.2557
 3864TIP3   OH235786   1.829   7.665  17.231  0.1556  0.0732 -0.5800
 3864TIP3    H135787   1.861   7.596  17.172 -0.6118 -1.3247  0.5709
 3864TIP3    H235788   1.798   7.734  17.173  2.9250  0.4375 -1.7655
 3865TIP3   OH235789   1.271   5.318  17.823  0.5045  0.0332  0.3353
 3865TIP3    H135790   1.236   5.314  17.912  2.0563 -4.0036  0.9828
 3865TIP3    H235791   1.208   5.269  17.771  0.4310  0.9809 -0.4891
 3866TIP3   OH235792   6.857   4.556  18.051  0.0797  0.0784  0.2203
 3866TIP3    H135793   6.948   4.580  18.066 -0.0158  0.7428 -0.2215
 3866TIP3    H235794   6.860   4.463  18.029  0.6259  0.0438  0.4304
 3867TIP3   OH235795   1.350   3.782  17.824 -0.3851 -0.0612  0.3227
 3867TIP3    H135796   1.431   3.815  17.786 -0.5516 -0.6098 -0.5403
 3867TIP3    H235797   1.282   3.842  17.791 -0.5689 -0.7083 -0.5246
 3868TIP3   OH235798   3.800   2.558  17.618 -0.2877  0.5007  0.2074
 3868TIP3    H135799   3.826   2.649  17.608  2.6386 -0.3772 -1.2552
 3868TIP3    H235800   3.856   2.524  17.687 -0.6023 -0.4598  0.0138
 3869TIP3   OH235801   3.137   6.226  17.497  0.1627 -0.0990  0.1373
 3869TIP3    H135802   3.064   6.164  17.498 -0.4868  0.6423  1.1118
 3869TIP3    H235803   3.097   6.311  17.482  1.1394  0.0259 -2.1049
 3870TIP3   OH235804   5.211   3.196  16.566 -0.2402 -0.1708 -0.1890
 3870TIP3    H135805   5.226   3.119  16.622 -1.6949  0.2233  0.8239
 3870TIP3    H235806   5.298   3.232  16.551  0.2559 -0.5537  1.4834
 3871TIP3   OH235807   6.869   6.688  18.254 -0.2937 -0.4592  0.0705
 3871TIP3    H135808   6.873   6.685  18.158  0.5016  0.7080  0.0442
 3871TIP3    H235809   6.853   6.598  18.280 -0.5329 -0.7942 -1.1657
 3872TIP3   OH235810   3.784   6.823  18.178  0.4075 -0.5025  0.3446
 3872TIP3    H135811   3.841   6.836  18.102  0.3325 -1.5576  0.0867
 3872TIP3    H235812   3.715   6.765  18.146 -0.3121  0.0371  0.8972
 3873TIP3   OH235813   6.086   3.299  18.578  0.0225  0.1904 -0.0897
 3873TIP3    H135814   6.071   3.237  18.650 -2.0083 -0.2114 -0.7862
 3873TIP3    H235815   6.163   3.348  18.605  0.5131 -1.2912  1.4277
 3874TIP3   OH235816   1.090   4.646  17.565 -0.6420  0.5024  0.1706
 3874TIP3    H135817   1.052   4.578  17.620  0.1246 -1.5520 -1.6585
 3874TIP3    H235818   1.179   4.614  17.546 -0.8406  1.1194 -2.1143
 3875TIP3   OH235819   4.245   0.063  17.495 -0.0699  0.0973  0.0544
 3875TIP3    H135820   4.287   0.047  17.580  2.8626  0.7388 -1.1459
 3875TIP3    H235821   4.268  -0.014  17.443 -1.3486 -0.0137 -0.3850
 3876TIP3   OH235822   4.615   1.800  18.251  0.4125 -0.0547  0.2355
 3876TIP3    H135823   4.572   1.716  18.265  0.9606 -0.3166  0.3919
 3876TIP3    H235824   4.689   1.780  18.194 -0.4358  0.6130 -1.1722
 3877TIP3   OH235825   1.377   5.552  18.779 -0.5355  0.4770 -0.2889
 3877TIP3    H135826   1.359   5.496  18.703  1.0369 -0.5738  0.0554
 3877TIP3    H235827   1.472   5.550  18.787 -0.5387  2.2237  0.5083
 3878TIP3   OH235828   7.105   3.951  16.801  0.0403 -0.5595  0.7181
 3878TIP3    H135829   7.135   3.996  16.721  2.5245  0.3325  2.0237
 3878TIP3    H235830   7.056   4.018  16.849  0.9573 -0.1919  1.1759
 3879TIP3   OH235831   5.720   3.024  16.927  0.1542 -0.1965  0.5228
 3879TIP3    H135832   5.648   3.029  16.988  0.0363  0.0177  0.3671
 3879TIP3    H235833   5.679   3.027  16.840  0.3270 -0.3579  0.4335
 3880TIP3   OH235834   3.615   6.707  17.174  0.1342  0.5057 -0.0156
 3880TIP3    H135835   3.686   6.643  17.178  0.4156  0.8680  1.3708
 3880TIP3    H235836   3.643   6.771  17.109 -0.1841 -0.7743 -1.4776
 3881TIP3   OH235837   2.907   5.270  17.955  0.3248  0.6205 -0.2143
 3881TIP3    H135838   2.993   5.234  17.930  0.0424  0.9522 -1.7223
 3881TIP3    H235839   2.864   5.198  18.001  1.5571  0.5829  0.9487
 3882TIP3   OH235840   6.757   5.636  18.371 -0.1829 -0.6108 -0.3343
 3882TIP3    H135841   6.723   5.718  18.409 -0.6790 -1.4027  0.9932
 3882TIP3    H235842   6.777   5.582  18.447 -1.6807 -2.4600 -1.1886
 3883TIP3   OH235843   6.327   6.377  18.261  0.1782 -0.1045 -0.5392
 3883TIP3    H135844   6.377   6.329  18.327 -0.5929  0.1627  0.2578
 3883TIP3    H235845   6.268   6.433  18.312  0.5637  1.1736 -1.4331
 3884TIP3   OH235846   5.430   0.195  18.481 -0.5447 -0.0329 -0.1416
 3884TIP3    H135847   5.488   0.253  18.432 -0.9565 -1.6768 -2.8211
 3884TIP3    H235848   5.489   0.135  18.526 -0.1241  0.1315 -0.4665
 3885TIP3   OH235849   7.055   0.905  18.086  0.3176  0.3013 -0.3482
 3885TIP3    H135850   6.998   0.863  18.151  0.1489  0.2062 -0.5596
 3885TIP3    H235851   7.136   0.854  18.089  1.2073  1.7036  1.4833
 3886TIP3   OH235852   3.328   5.852  17.764  0.0707 -0.0164 -0.6385
 3886TIP3    H135853   3.363   5.766  17.785  2.4696  1.8323  4.8794
 3886TIP3    H235854   3.257   5.865  17.827  0.5390  2.3866 -0.5058
 3887TIP3   OH235855   2.344   2.312  17.741 -0.1411  0.5528  0.0763
 3887TIP3    H135856   2.435   2.289  17.760 -0.1090 -0.4757 -1.1867
 3887TIP3    H235857   2.344   2.407  17.732  1.1215  0.4517 -1.3548
 3888TIP3   OH235858   5.998   1.298  18.142 -0.1220 -0.2094 -0.1813
 3888TIP3    H135859   5.908   1.310  18.175 -0.1773 -1.4985  0.1986
 3888TIP3    H235860   6.053   1.312  18.219 -0.0459 -0.2491 -0.2290
 3889TIP3   OH235861   0.809   4.343  18.326  0.0155 -0.3347 -0.4628
 3889TIP3    H135862   0.901   4.330  18.303  0.6237 -0.7391  1.9436
 3889TIP3    H235863   0.763   4.271  18.283  1.0042 -0.8162 -0.7381
 3890TIP3   OH235864   0.706   0.428  18.658  0.5764  0.1350 -0.0724
 3890TIP3    H135865   0.763   0.455  18.586  1.8991 -0.1821  0.8180
 3890TIP3    H235866   0.723   0.335  18.670  0.8924  0.3226  1.0847
 3891TIP3   OH235867   3.375   6.251  18.249 -0.0296  0.3120  0.1682
 3891TIP3    H135868   3.413   6.188  18.188 -0.4534  0.8955 -0.7112
 3891TIP3    H235869   3.451   6.292  18.291  0.2721  0.0885 -0.1531
 3892TIP3   OH235870   7.538   0.628  16.981 -0.3362  0.3459  0.0419
 3892TIP3    H135871   7.617   0.639  17.034 -0.4223 -2.4871  0.8832
 3892TIP3    H235872   7.556   0.552  16.926 -2.1676  0.1562 -0.3488
 3893TIP3   OH235873   6.563   1.556  17.855  0.4636 -0.5712 -0.8313
 3893TIP3    H135874   6.556   1.570  17.760  0.2789  2.6608 -0.4407
 3893TIP3    H235875   6.475   1.529  17.881 -0.2299  1.0946 -1.2896
 3894TIP3   OH235876   1.177   6.694  16.842  0.2706  0.1927  0.1375
 3894TIP3    H135877   1.262   6.678  16.800  0.7701  0.4802  1.0130
 3894TIP3    H235878   1.130   6.750  16.780  0.6948 -0.0288 -0.3906
 3895TIP3   OH235879   4.868   5.342  18.329  0.1881 -0.0385 -0.1799
 3895TIP3    H135880   4.797   5.293  18.370 -0.1684  0.1920 -0.5233
 3895TIP3    H235881   4.841   5.353  18.238  0.4413  0.4643 -0.1987
 3896TIP3   OH235882   1.074   5.863  17.697 -0.2916  0.3636  0.5581
 3896TIP3    H135883   1.005   5.926  17.719  0.3430  1.3085 -0.0797
 3896TIP3    H235884   1.086   5.874  17.602  0.6473  0.1270  0.6432
 3897TIP3   OH235885   5.978   0.965  17.253  0.2914  0.5562 -0.1567
 3897TIP3    H135886   6.023   0.927  17.329  1.7280  1.3072 -0.6150
 3897TIP3    H235887   5.885   0.952  17.273  0.6615 -0.2971  1.1908
 3898TIP3   OH235888   3.064   6.128  18.602 -0.3185 -0.1451  0.6628
 3898TIP3    H135889   3.089   6.050  18.651  1.2281 -1.5069 -2.0916
 3898TIP3    H235890   3.146   6.166  18.572 -0.9431  3.1803  2.5988
 3899TIP3   OH235891   2.726   0.865  16.515 -0.1353  0.7876  0.0116
 3899TIP3    H135892   2.684   0.894  16.596 -1.0971 -0.0351 -0.1652
 3899TIP3    H235893   2.716   0.770  16.516 -1.0989  0.8313 -1.5495
 3900TIP3   OH235894   5.554   4.481  17.241 -0.2487  0.3026  0.3611
 3900TIP3    H135895   5.590   4.568  17.261 -0.7718  0.8844 -1.0934
 3900TIP3    H235896   5.540   4.482  17.146 -0.6896 -1.2184  0.3838
 3901TIP3   OH235897   3.464   7.510  16.844  0.2704 -0.0749 -0.2930
 3901TIP3    H135898   3.460   7.605  16.832  1.7858  0.1231  0.5123
 3901TIP3    H235899   3.377   7.486  16.876 -0.4322  0.8857 -1.4073
 3902TIP3   OH235900   5.798   3.818  17.610 -0.1066  0.0653 -0.0129
 3902TIP3    H135901   5.829   3.901  17.648  2.2708 -1.2970  1.2813
 3902TIP3    H235902   5.817   3.826  17.517  1.9160  0.3339  0.3622
 3903TIP3   OH235903   5.683   4.734  16.751 -0.4045 -0.2161  0.2689
 3903TIP3    H135904   5.662   4.683  16.673  0.0678 -0.1965  0.1223
 3903TIP3    H235905   5.629   4.812  16.745 -0.1564 -0.0765 -0.1921
 3904TIP3   OH235906   4.424   4.416  16.545 -0.4212  0.5321  0.0084
 3904TIP3    H135907   4.336   4.455  16.539 -0.4518  0.3375 -1.1423
 3904TIP3    H235908   4.409   4.322  16.537 -0.1379  0.4772  0.1192
 3905TIP3   OH235909   1.360   3.946  17.351  0.1994  0.4297  0.0705
 3905TIP3    H135910   1.376   4.026  17.402 -1.3036  0.2074  0.9357
 3905TIP3    H235911   1.268   3.951  17.326  0.1591 -0.8975 -0.1032
 3906TIP3   OH235912   3.229   5.824  17.285 -0.0678  0.2950 -0.0002
 3906TIP3    H135913   3.265   5.763  17.220 -0.8763  0.2787 -0.4495
 3906TIP3    H235914   3.138   5.838  17.257  0.8606  4.0867 -1.7095
 3907TIP3   OH235915   6.939   5.337  18.639 -0.0197 -0.1614  0.0527
 3907TIP3    H135916   6.932   5.425  18.602 -1.9582  1.0973  3.0053
 3907TIP3    H235917   7.030   5.329  18.665  0.1293  1.0831 -0.0202
 3908TIP3   OH235918   2.763   1.080  19.092  0.8427  0.4301  0.1274
 3908TIP3    H135919   2.836   1.026  19.062  1.9557  1.8825  0.1261
 3908TIP3    H235920   2.804   1.155  19.135 -0.5860  1.9892 -1.0786
 3909TIP3   OH235921   6.367   5.750  16.695 -0.0870 -0.0108 -0.5782
 3909TIP3    H135922   6.462   5.739  16.699 -0.2609 -1.2461  0.8508
 3909TIP3    H235923   6.344   5.790  16.779 -0.9047 -0.4127 -0.6018
 3910TIP3   OH235924   2.717   7.582  17.630  0.0511 -0.1718  0.1216
 3910TIP3    H135925   2.662   7.556  17.704  1.1567 -1.3187  0.5657
 3910TIP3    H235926   2.714   7.508  17.570  0.5460  0.0534 -0.1871
 3911TIP3   OH235927   3.236   4.564  18.050  0.3885 -0.0301 -0.0801
 3911TIP3    H135928   3.164   4.505  18.071 -0.6452  0.1843 -2.5772
 3911TIP3    H235929   3.290   4.514  17.988  1.6472  0.3002  0.7265
 3912TIP3   OH235930   5.054   1.917  17.663  0.1502  0.8917  0.0790
 3912TIP3    H135931   5.041   1.919  17.758  0.4742  1.3589  0.1174
 3912TIP3    H235932   5.027   2.003  17.633 -0.5209  0.5427 -0.3342
 3913TIP3   OH235933   0.436   6.318  16.947  0.3094 -0.2473 -0.4322
 3913TIP3    H135934   0.407   6.323  17.038  0.1804 -0.4317 -0.4633
 3913TIP3    H235935   0.386   6.246  16.909  0.7769 -0.5451 -0.4999
 3914TIP3   OH235936   4.125   1.943  16.340 -0.3029  0.3050  0.2661
 3914TIP3    H135937   4.083   2.009  16.395 -1.9328 -0.1724 -0.3498
 3914TIP3    H235938   4.087   1.958  16.253 -2.3331 -2.6979  0.4791
 3915TIP3   OH235939   1.792   7.186  17.183  0.2428 -0.6169  0.2275
 3915TIP3    H135940   1.887   7.191  17.181  0.3094 -0.9205  1.5126
 3915TIP3    H235941   1.770   7.179  17.276 -1.0822  0.2901  0.0207
 3916TIP3   OH235942   2.915   1.933  17.893  0.8460  0.1450 -0.5980
 3916TIP3    H135943   2.854   1.919  17.821  2.1932 -1.0208 -1.5591
 3916TIP3    H235944   3.001   1.909  17.858  1.7670  0.9819  0.9491
 3917TIP3   OH235945   2.889   2.328  17.187  0.0791 -0.0857 -0.1876
 3917TIP3    H135946   2.929   2.248  17.152  0.1313 -0.3578  0.4893
 3917TIP3    H235947   2.946   2.356  17.258  1.1656  1.6920 -1.6637
 3918TIP3   OH235948   0.449   1.131  16.622  0.3412 -0.2713 -0.0016
 3918TIP3    H135949   0.420   1.104  16.535 -0.4966  1.0660 -0.1713
 3918TIP3    H235950   0.544   1.139  16.615  0.3658 -1.0118 -0.5465
 3919TIP3   OH235951   7.531   6.845  17.091 -0.0993 -0.2454  0.4616
 3919TIP3    H135952   7.546   6.755  17.061 -0.1873 -0.2479  0.4254
 3919TIP3    H235953   7.499   6.891  17.014 -1.8388 -0.6276  0.9084
 3920TIP3   OH235954   1.581   2.084  17.924  0.0121  0.4403  0.5699
 3920TIP3    H135955   1.612   2.148  17.988  1.2482  1.2296 -0.7566
 3920TIP3    H235956   1.618   2.000  17.954  1.8909  1.0448  0.1276
 3921TIP3   OH235957   6.944   4.883  18.226  0.5166  0.2731 -0.0326
 3921TIP3    H135958   6.955   4.833  18.307  1.1612  0.5511  0.0619
 3921TIP3    H235959   6.990   4.831  18.160 -1.5158 -0.8564 -0.6173
 3922TIP3   OH235960   4.044   4.197  18.038  0.0975 -0.0622 -0.6548
 3922TIP3    H135961   3.954   4.168  18.054  1.1204 -2.8506  0.5946
 3922TIP3    H235962   4.062   4.171  17.948 -0.8806  2.2666 -1.6090
 3923TIP3   OH235963   2.120   1.923  17.482 -0.8417  0.7335  0.0721
 3923TIP3    H135964   2.079   1.975  17.412 -0.1455 -0.0802 -0.9794
 3923TIP3    H235965   2.195   1.882  17.439  1.3316  2.4515  1.9995
 3924TIP3   OH235966   1.643   5.328  18.211  0.2410  0.1877  0.3326
 3924TIP3    H135967   1.659   5.262  18.279  0.2527  0.2219  0.3622
 3924TIP3    H235968   1.692   5.296  18.135  0.9501  0.5998  0.6039
 3925TIP3   OH235969   4.501   5.516  17.565  0.5184  0.4189  0.1466
 3925TIP3    H135970   4.502   5.606  17.596 -0.0876  0.4722  0.0188
 3925TIP3    H235971   4.410   5.499  17.541  0.5008 -0.4399  0.7783
 3926TIP3   OH235972   2.603   6.382  18.737  0.1544  0.6127 -0.0613
 3926TIP3    H135973   2.661   6.311  18.708 -0.0468 -0.7692  2.5668
 3926TIP3    H235974   2.660   6.442  18.785 -0.2855 -0.0323  1.3400
 3927TIP3   OH235975   0.746   1.949  16.815  0.1975  0.2587 -0.1911
 3927TIP3    H135976   0.800   1.892  16.761  0.1964  2.2314 -2.3904
 3927TIP3    H235977   0.803   2.021  16.839 -0.8055  1.2055 -0.5917
 3928TIP3   OH235978   2.808   5.335  16.023 -0.1478  0.1646  0.0569
 3928TIP3    H135979   2.743   5.277  15.981  0.2625  0.6030 -1.2345
 3928TIP3    H235980   2.783   5.423  15.994  1.2428  0.3022 -0.7945
 3929TIP3   OH235981   6.163   0.036  17.859 -0.2702  0.6387 -0.3488
 3929TIP3    H135982   6.128   0.088  17.786 -0.2207  1.6413  0.3220
 3929TIP3    H235983   6.175   0.099  17.930  0.1244 -0.2366  0.3838
 3930TIP3   OH235984   6.703   4.483  17.480 -0.0928  0.2701 -0.2120
 3930TIP3    H135985   6.701   4.394  17.517 -0.4277  0.6042  0.6060
 3930TIP3    H235986   6.735   4.538  17.552 -1.7432  1.1010 -0.0830
 3931TIP3   OH235987   1.554   0.901  15.905  0.5224  0.0422 -0.0281
 3931TIP3    H135988   1.540   0.820  15.954 -1.5542  0.4400  0.0985
 3931TIP3    H235989   1.470   0.946  15.907  1.2677  1.5939 -1.2366
 3932TIP3   OH235990   4.552   1.727  18.759  0.0429 -0.2703  0.0563
 3932TIP3    H135991   4.622   1.679  18.802  0.3383  0.8804  0.9096
 3932TIP3    H235992   4.586   1.746  18.672  1.0512  0.7322  0.6306
 3933TIP3   OH235993   1.652   0.941  16.755  0.2580 -0.4029  0.0971
 3933TIP3    H135994   1.626   1.033  16.748  0.2326 -0.4598 -0.5905
 3933TIP3    H235995   1.693   0.921  16.671 -1.0180 -1.4211 -0.3291
 3934TIP3   OH235996   1.490   2.975  17.553  0.6407 -0.4032 -0.4395
 3934TIP3    H135997   1.541   3.002  17.477  0.3317  0.7679 -0.2509
 3934TIP3    H235998   1.401   3.005  17.535  0.5412 -0.2126  0.3218
 3935TIP3   OH235999   0.972   3.252  17.133 -0.5675  0.2302  0.8437
 3935TIP3    H136000   1.017   3.265  17.050 -1.3725  0.4199  0.4262
 3935TIP3    H236001   0.940   3.162  17.130 -0.3143  0.1322  1.0870
 3936TIP3   OH236002   4.189   5.779  16.828  0.0972 -0.4903 -0.0238
 3936TIP3    H136003   4.127   5.772  16.756 -0.1402 -0.8519  0.2116
 3936TIP3    H236004   4.164   5.859  16.873  0.2320 -0.2758 -0.3287
 3937TIP3   OH236005   1.559   0.874  17.265 -0.2292  0.0469  0.1140
 3937TIP3    H136006   1.636   0.829  17.300  0.8553  1.4079 -0.4452
 3937TIP3    H236007   1.588   0.912  17.183 -1.4019  0.8755  0.0526
 3938TIP3   OH236008   2.119   2.474  17.427 -0.2264  0.3338 -0.0372
 3938TIP3    H136009   2.173   2.397  17.447 -0.3272  0.1002 -0.6543
 3938TIP3    H236010   2.037   2.457  17.472  1.0511  1.9143  3.2111
 3939TIP3   OH236011   7.081   4.709  18.447 -0.0379 -0.3400 -0.2144
 3939TIP3    H136012   7.041   4.622  18.457  1.4034 -0.9330  0.6429
 3939TIP3    H236013   7.039   4.762  18.515  0.3675 -0.8621  0.4557
 3940TIP3   OH236014   3.418   5.772  17.500  0.2332  0.0559  0.4964
 3940TIP3    H136015   3.393   5.810  17.584 -0.9389 -0.8127  0.5612
 3940TIP3    H236016   3.344   5.789  17.443 -0.1262 -1.6714  0.3984
 3941TIP3   OH236017   7.071   3.403  16.785  0.4588  0.4809  0.0178
 3941TIP3    H136018   7.105   3.320  16.752  1.6586  0.6110  0.8789
 3941TIP3    H236019   7.121   3.469  16.739 -0.8294  0.7665 -1.0263
 3942TIP3   OH236020   3.311   7.136  17.114  0.0845 -0.0741  0.3351
 3942TIP3    H136021   3.272   7.142  17.202 -0.0563  0.3526  0.2461
 3942TIP3    H236022   3.405   7.132  17.130  0.1213  0.9897  0.4766
 3943TIP3   OH236023   7.607   2.393  16.538  0.2193 -0.5621  0.2039
 3943TIP3    H136024   7.623   2.307  16.498  0.4446 -0.3037 -0.2620
 3943TIP3    H236025   7.516   2.413  16.516  0.1820 -0.6611  0.2706
 3944TIP3   OH236026   6.346   3.673  18.431 -0.1564 -0.3911  0.1857
 3944TIP3    H136027   6.359   3.768  18.435 -0.9647 -0.3094  3.0368
 3944TIP3    H236028   6.428   3.639  18.395  0.2888  1.3336 -0.5471
 3945TIP3   OH236029   2.881   0.085  18.046  0.0800 -0.0798  0.3381
 3945TIP3    H136030   2.938   0.009  18.047 -0.4716 -0.5069 -0.0835
 3945TIP3    H236031   2.852   0.093  17.955 -0.2893  0.3136  0.4832
 3946TIP3   OH236032   2.013   5.519  17.200  0.3312  0.4917 -0.3118
 3946TIP3    H136033   1.964   5.551  17.125 -0.0786  0.5026 -0.0463
 3946TIP3    H236034   1.949   5.466  17.249  0.6668  0.2645 -0.1188
 3947TIP3   OH236035   6.286   7.211  18.697 -0.4209  0.5735 -0.5605
 3947TIP3    H136036   6.213   7.151  18.714  0.0921  0.1816  0.3483
 3947TIP3    H236037   6.333   7.172  18.624  0.4438 -0.6712  0.6120
 3948TIP3   OH236038   6.803   0.768  18.588  0.0898  0.4949  0.6422
 3948TIP3    H136039   6.824   0.707  18.518 -2.0984  3.0126 -2.5196
 3948TIP3    H236040   6.709   0.757  18.603 -0.2529  2.5807  0.3824
 3949TIP3   OH236041   1.499   5.258  16.399  0.5330  1.0846 -0.9700
 3949TIP3    H136042   1.568   5.195  16.380  0.7294  1.1140 -0.3831
 3949TIP3    H236043   1.418   5.215  16.371  0.0787 -1.2846  3.1686
 3950TIP3   OH236044   1.130   1.149  16.223 -0.6934  0.1028  0.1123
 3950TIP3    H136045   1.157   1.075  16.169  0.4054  0.0122  0.7409
 3950TIP3    H236046   1.070   1.111  16.287 -1.7126  0.1462 -0.8031
 3951TIP3   OH236047   5.840   2.336  17.368 -0.2652  0.1726 -0.1368
 3951TIP3    H136048   5.832   2.241  17.378 -0.5114  0.3182  1.2473
 3951TIP3    H236049   5.896   2.363  17.441 -0.2079  1.0958 -0.5107
 3952TIP3   OH236050   2.485   5.507  17.025 -0.5929 -0.1849 -0.6608
 3952TIP3    H136051   2.552   5.532  17.089  1.0101 -0.2508 -2.2214
 3952TIP3    H236052   2.444   5.429  17.062 -1.3848  1.1213  1.3647
 3953TIP3   OH236053   2.500   3.204  17.885 -1.0450 -1.0553 -0.6897
 3953TIP3    H136054   2.528   3.204  17.976 -0.7320  0.7570 -0.7474
 3953TIP3    H236055   2.568   3.252  17.838 -1.5438 -1.3471 -1.7594
 3954TIP3   OH236056   1.203   1.795  18.017  0.8595  0.3309 -0.0755
 3954TIP3    H136057   1.278   1.822  18.069 -0.0948  1.3857  0.8311
 3954TIP3    H236058   1.134   1.777  18.081  0.7907 -2.2732 -0.7777
 3955TIP3   OH236059   1.948   0.772  17.660  0.0770 -0.5790 -0.1993
 3955TIP3    H136060   1.895   0.702  17.622  0.6551 -1.2945  0.2769
 3955TIP3    H236061   2.032   0.764  17.615  0.4290 -0.7693  0.4796
 3956TIP3   OH236062   1.568   3.041  17.799 -0.4353  0.5328 -0.2455
 3956TIP3    H136063   1.655   3.001  17.801  0.2999  2.0440  1.0194
 3956TIP3    H236064   1.530   3.014  17.716  0.9863 -0.6925 -0.5329
 3957TIP3   OH236065   1.646   3.639  18.416 -0.4056 -0.4110 -0.1411
 3957TIP3    H136066   1.600   3.570  18.464  1.4504 -0.1375  2.2513
 3957TIP3    H236067   1.624   3.719  18.464  0.9469 -0.0203 -0.1501
 3958TIP3   OH236068   4.325   3.664  17.578 -0.0848  0.2393  0.1597
 3958TIP3    H136069   4.389   3.708  17.633  0.7734 -0.5269 -0.2086
 3958TIP3    H236070   4.241   3.681  17.621  0.6006 -0.8014  2.0656
 3959TIP3   OH236071   0.305   6.735  16.351 -0.1202  0.7183  0.7735
 3959TIP3    H136072   0.319   6.699  16.264 -0.1737  2.1743  0.1426
 3959TIP3    H236073   0.227   6.690  16.383  1.4339 -1.8769  1.2430
 3960TIP3   OH236074   4.712   6.613  18.274  0.5848 -0.3194 -0.0929
 3960TIP3    H136075   4.623   6.599  18.242  0.6893  0.5578 -0.8385
 3960TIP3    H236076   4.708   6.593  18.367 -0.5140  0.1602 -0.0171
 3961TIP3   OH236077   1.532   1.802  17.641  0.0358 -0.7105  0.0280
 3961TIP3    H136078   1.595   1.844  17.582  0.7397 -0.8059  0.7036
 3961TIP3    H236079   1.494   1.874  17.691 -1.9111 -0.3897 -1.7428
 3962TIP3   OH236080   2.778   2.160  16.029  0.4635  0.5591 -0.2380
 3962TIP3    H136081   2.831   2.093  15.986 -0.2787 -0.5052  0.4630
 3962TIP3    H236082   2.813   2.243  15.996  1.9232 -0.1369 -0.5201
 3963TIP3   OH236083   1.713   0.907  17.047 -0.2742 -0.4844  0.4134
 3963TIP3    H136084   1.808   0.905  17.041 -0.2483 -0.9460  0.9588
 3963TIP3    H236085   1.685   0.946  16.964  0.4672  1.3062  0.9389
 3964TIP3   OH236086   0.997   5.644  16.394  0.1049  0.2325 -0.2713
 3964TIP3    H136087   1.007   5.710  16.463 -0.5691  1.3813 -1.2135
 3964TIP3    H236088   0.942   5.688  16.329 -0.9171 -1.5224 -0.6340
 3965TIP3   OH236089   7.666   2.641  16.504  0.1267  0.6847 -0.1081
 3965TIP3    H136090   7.651   2.689  16.585  0.9594 -0.3233  0.6639
 3965TIP3    H236091   7.652   2.549  16.527  0.4849  0.3689 -1.0836
 3966TIP3   OH236092   3.980   5.005  18.360  0.2436 -0.2598 -0.1245
 3966TIP3    H136093   3.977   4.948  18.283  0.5443  1.6166 -1.6114
 3966TIP3    H236094   4.062   5.053  18.351 -0.3882  1.0024  0.5801
 3967TIP3   OH236095   4.246   6.889  17.306  0.3740 -0.0173  0.1062
 3967TIP3    H136096   4.276   6.949  17.374 -0.9433  0.6494  0.1325
 3967TIP3    H236097   4.242   6.804  17.349 -0.7486  0.4506  0.9976
 3968TIP3   OH236098   4.580   7.282  15.974 -0.4239  0.0133 -0.1331
 3968TIP3    H136099   4.553   7.373  15.967  0.9480  0.3746 -1.2191
 3968TIP3    H236100   4.658   7.284  16.030 -0.6587 -0.5556  0.2250
 3969TIP3   OH236101   6.969   6.199  17.337  0.3406 -0.0736 -0.1532
 3969TIP3    H136102   7.055   6.162  17.320 -0.1848 -1.1616 -0.5814
 3969TIP3    H236103   6.912   6.123  17.348 -0.2024  0.5935  2.2166
 3970TIP3   OH236104   3.131   0.937  18.861 -0.1677 -0.3333 -0.3096
 3970TIP3    H136105   3.224   0.923  18.877 -0.2403  1.2280  2.0298
 3970TIP3    H236106   3.124   1.026  18.829 -0.7571 -1.0179 -2.1960
 3971TIP3   OH236107   4.301   7.076  17.492  0.5230 -0.0397 -0.1308
 3971TIP3    H136108   4.390   7.111  17.485  0.7882 -0.9493 -1.8595
 3971TIP3    H236109   4.245   7.153  17.497  1.4374  0.5620  2.2815
 3972TIP3   OH236110   1.455   2.437  16.962  0.1297  0.4173  0.0218
 3972TIP3    H136111   1.408   2.414  16.882  1.6051 -0.5284 -0.6193
 3972TIP3    H236112   1.468   2.531  16.957  0.3003  0.3484 -0.9014
 3973TIP3   OH236113   4.126   0.637  17.320  0.0153  0.3558  0.2520
 3973TIP3    H136114   4.134   0.587  17.239 -0.4317  0.5398  0.0897
 3973TIP3    H236115   4.036   0.668  17.320  0.8794  3.1209 -0.7701
 3974TIP3   OH236116   3.965   6.217  16.880 -0.2028  0.6894 -0.4170
 3974TIP3    H136117   3.902   6.289  16.875  0.5428  1.2816 -1.7953
 3974TIP3    H236118   4.046   6.253  16.844  0.5874 -0.4227  0.1948
 3975TIP3   OH236119   7.282   0.309  18.447  0.5034  0.3112  0.9423
 3975TIP3    H136120   7.275   0.356  18.364  1.0946 -0.8179  0.2337
 3975TIP3    H236121   7.214   0.242  18.443  0.4407  0.3421  1.4391
 3976TIP3   OH236122   7.377   4.031  18.026  0.4598 -0.2732 -0.5229
 3976TIP3    H136123   7.380   3.937  18.009 -0.5801 -0.0690 -1.9765
 3976TIP3    H236124   7.308   4.042  18.091  1.2074 -0.5753  0.3547
 3977TIP3   OH236125   2.178   0.021  16.059 -0.0348  0.4020 -0.2685
 3977TIP3    H136126   2.215  -0.032  16.129 -2.0217 -1.2111 -0.3665
 3977TIP3    H236127   2.085   0.001  16.059 -0.8737  3.6290 -0.5818
 3978TIP3   OH236128   3.342   5.459  16.443 -0.1472  0.6188  0.3078
 3978TIP3    H136129   3.410   5.395  16.423  1.7801  2.5510  0.3962
 3978TIP3    H236130   3.359   5.485  16.534  0.0863  2.3687 -0.2082
 3979TIP3   OH236131   6.114   4.816  17.580 -0.1568 -0.0726 -0.3067
 3979TIP3    H136132   6.113   4.783  17.670 -1.6251  0.5426 -0.0647
 3979TIP3    H236133   6.091   4.909  17.589 -0.2753  0.0070 -1.3103
 3980TIP3   OH236134   0.477   0.869  17.837  0.1230 -0.0850  0.3863
 3980TIP3    H136135   0.447   0.778  17.840  2.6760 -1.0285 -0.1574
 3980TIP3    H236136   0.484   0.895  17.929 -0.8728 -0.3236  0.5415
 3981TIP3   OH236137   1.238   5.394  16.887  0.0544  0.2094  0.4056
 3981TIP3    H136138   1.237   5.412  16.793 -1.7494  1.8263  0.6608
 3981TIP3    H236139   1.303   5.455  16.922  2.2369 -1.7628  0.0793
 3982TIP3   OH236140   3.089   1.171  15.585  0.0305  0.6560  0.0552
 3982TIP3    H136141   3.000   1.171  15.549 -0.5486  0.8331  1.4047
 3982TIP3    H236142   3.146   1.149  15.511 -1.3162 -1.7340 -0.3529
 3983TIP3   OH236143   2.673   2.822  17.996 -0.1804  0.0372  0.5785
 3983TIP3    H136144   2.717   2.760  17.938  0.0868 -0.6124  1.4582
 3983TIP3    H236145   2.612   2.768  18.047 -1.0108  0.7197  0.3360
 3984TIP3   OH236146   5.803   0.485  18.483 -0.1460  0.3404  0.1546
 3984TIP3    H136147   5.811   0.562  18.539  0.8597 -0.9803  1.9687
 3984TIP3    H236148   5.779   0.414  18.544 -2.1040 -0.6154 -1.5962
 3985TIP3   OH236149   4.835   3.838  16.750 -0.2666 -0.2628 -0.2833
 3985TIP3    H136150   4.923   3.832  16.714 -0.7140 -1.6295 -1.2194
 3985TIP3    H236151   4.834   3.772  16.820 -0.3521  0.2318  0.1922
 3986TIP3   OH236152   7.263   1.567  17.007  0.4353 -0.3813  0.2656
 3986TIP3    H136153   7.213   1.572  16.925  0.8215 -2.8601 -0.2111
 3986TIP3    H236154   7.340   1.516  16.984 -0.4975 -3.0783  2.6178
 3987TIP3   OH236155   2.739   6.893  18.342 -0.3270 -0.1018 -0.3177
 3987TIP3    H136156   2.711   6.969  18.291  1.5484  0.8366 -0.0457
 3987TIP3    H236157   2.718   6.916  18.433 -1.5927 -0.8119 -0.3986
 3988TIP3   OH236158   4.065   4.050  18.543 -0.0900  0.5323 -0.1337
 3988TIP3    H136159   4.019   4.123  18.502  0.1808 -0.2045 -1.8352
 3988TIP3    H236160   3.996   3.995  18.580 -0.3890  0.7975 -0.2975
 3989TIP3   OH236161   5.874   5.784  18.451  0.5243 -0.0040  0.1094
 3989TIP3    H136162   5.956   5.780  18.499  0.8181 -1.2747 -0.4457
 3989TIP3    H236163   5.899   5.768  18.360 -0.2770  0.1406 -0.1464
 3990TIP3   OH236164   5.002   7.120  17.613  0.3603  0.1336 -0.5512
 3990TIP3    H136165   4.982   7.034  17.578 -1.7210 -1.0673  2.9920
 3990TIP3    H236166   5.068   7.104  17.681 -0.6403  1.1627  0.7162
 3991TIP3   OH236167   6.632   4.649  18.209 -0.5600 -0.0147  0.0725
 3991TIP3    H136168   6.626   4.733  18.163  1.7854  0.4926  0.5375
 3991TIP3    H236169   6.706   4.605  18.169 -0.4898 -0.9717  1.2015
 3992TIP3   OH236170   2.721   1.550  16.386  0.4413 -0.4482 -0.7262
 3992TIP3    H136171   2.785   1.546  16.314 -0.8681 -0.2174 -1.9529
 3992TIP3    H236172   2.656   1.613  16.356 -0.4373 -0.7743  0.4376
 3993TIP3   OH236173   5.458   7.110  16.253 -0.1954 -0.0241  0.3200
 3993TIP3    H136174   5.380   7.155  16.221 -0.3335 -0.6256 -0.2167
 3993TIP3    H236175   5.458   7.124  16.347  0.9376  2.9741 -0.0189
 3994TIP3   OH236176   2.314   0.710  17.268 -0.2193 -0.2338 -0.5575
 3994TIP3    H136177   2.400   0.710  17.227  0.4242 -0.7937  0.7193
 3994TIP3    H236178   2.254   0.741  17.200  1.1409  1.3035 -1.1134
 3995TIP3   OH236179   6.477   4.987  16.662  0.2873 -0.7815 -0.0762
 3995TIP3    H136180   6.468   5.068  16.714 -0.1520  0.4003 -1.9049
 3995TIP3    H236181   6.390   4.947  16.666  0.3509 -0.8869  0.3677
 3996TIP3   OH236182   2.501   5.206  17.683 -0.7009 -0.2043 -0.4502
 3996TIP3    H136183   2.558   5.190  17.608 -1.3268 -0.0839 -0.9578
 3996TIP3    H236184   2.532   5.146  17.751  1.0335  0.9352 -0.1756
 3997TIP3   OH236185   4.541   2.772  17.406  0.2299 -0.5358  0.2484
 3997TIP3    H136186   4.600   2.840  17.373  1.5388 -2.1948 -0.9924
 3997TIP3    H236187   4.455   2.795  17.371  0.9922 -0.5051 -1.7108
 3998TIP3   OH236188   2.263   0.079  17.961 -0.1618 -0.7360  0.1599
 3998TIP3    H136189   2.317   0.158  17.973  2.2416 -2.5484  2.2925
 3998TIP3    H236190   2.174   0.107  17.984  0.6023  1.3364  0.8183
 3999TIP3   OH236191   6.470   1.825  18.586  0.2034  0.0915  0.4325
 3999TIP3    H136192   6.556   1.794  18.612  0.5187 -2.1243 -2.6996
 3999TIP3    H236193   6.412   1.749  18.596 -0.5279  0.4096 -1.0408
 4000TIP3   OH236194   0.999   2.017  18.518 -0.2672 -0.1312  0.2542
 4000TIP3    H136195   1.005   2.113  18.519 -0.8095 -0.0761 -0.4247
 4000TIP3    H236196   1.083   1.988  18.484 -0.7936  0.2248 -1.4835
 4001TIP3   OH236197   7.317   5.643  17.424  0.0610  0.4920  0.4389
 4001TIP3    H136198   7.356   5.597  17.499  0.1063  0.3121  0.3055
 4001TIP3    H236199   7.386   5.700  17.392  0.1425  0.3347  0.3374
 4002TIP3   OH236200   1.581   4.708  18.191 -0.1123  0.5136 -0.2092
 4002TIP3    H136201   1.605   4.801  18.197  1.1241  0.1395  1.2486
 4002TIP3    H236202   1.496   4.703  18.235 -0.1551  0.9574 -0.2343
 4003TIP3   OH236203   7.516   1.033  16.807  0.3751  0.1614 -0.1148
 4003TIP3    H136204   7.533   1.081  16.726  0.7047 -0.0390 -0.1693
 4003TIP3    H236205   7.568   1.078  16.874 -1.3097  1.4362  0.3750
 4004TIP3   OH236206   6.609   5.553  18.158 -0.0699 -0.3338  0.2652
 4004TIP3    H136207   6.555   5.497  18.213  0.9429 -2.1637 -0.5183
 4004TIP3    H236208   6.659   5.606  18.220 -1.6437  0.3526  1.0087
 4005TIP3   OH236209   4.266   5.350  17.545  0.1204 -0.4127 -0.3411
 4005TIP3    H136210   4.245   5.342  17.452 -1.1267  0.0102 -0.1143
 4005TIP3    H236211   4.192   5.397  17.582  1.2855  0.7239  0.6194
 4006TIP3   OH236212   7.581   2.502  17.932  0.1171 -0.7245 -0.9294
 4006TIP3    H136213   7.534   2.422  17.955  0.0872 -0.9113 -1.6293
 4006TIP3    H236214   7.545   2.568  17.991 -0.3415 -1.0764 -0.8095
 4007TIP3   OH236215   6.005   0.682  17.050  0.2753 -0.5528  0.1798
 4007TIP3    H136216   5.911   0.693  17.038  0.1091 -1.1741  0.7981
 4007TIP3    H236217   6.013   0.634  17.133  1.1412 -0.3824  0.2086
 4008TIP3   OH236218   5.439   5.675  16.554  0.0058  0.1426  0.4972
 4008TIP3    H136219   5.499   5.713  16.618 -0.0782 -0.5857  1.0299
 4008TIP3    H236220   5.352   5.691  16.591 -0.0356 -0.4341  0.6576
 4009TIP3   OH236221   6.281   3.240  18.082  0.1055 -0.0123 -0.0583
 4009TIP3    H136222   6.259   3.148  18.064 -1.0508  0.2410  0.0083
 4009TIP3    H236223   6.308   3.240  18.174 -1.0374 -0.1077  0.2978
 4010TIP3   OH236224   2.609   7.093  18.231  0.4017 -0.4164 -0.1173
 4010TIP3    H136225   2.514   7.095  18.241  0.5761 -0.8672  2.2175
 4010TIP3    H236226   2.631   7.177  18.191 -1.0422 -0.7988 -1.8375
 4011TIP3   OH236227   6.399   1.558  18.670 -0.1442  0.2345  0.6514
 4011TIP3    H136228   6.342   1.491  18.631  2.1230 -1.4897  0.0609
 4011TIP3    H236229   6.404   1.534  18.762  1.1265 -0.8370  0.3325
 4012TIP3   OH236230   4.706   6.506  16.952 -0.0003 -0.1961 -0.9411
 4012TIP3    H136231   4.750   6.423  16.935  1.3917  0.1933  0.4921
 4012TIP3    H236232   4.614   6.483  16.963  0.3843 -1.5680 -0.4876
 4013TIP3   OH236233   4.474   2.107  16.755 -0.3248  0.0399  0.1087
 4013TIP3    H136234   4.400   2.069  16.706  0.4928  0.0737 -1.1929
 4013TIP3    H236235   4.503   2.181  16.701  1.2647 -0.5650  0.0888
 4014TIP3   OH236236   3.518   1.498  16.460  0.3024 -0.1368  0.4651
 4014TIP3    H136237   3.575   1.575  16.455  0.3578 -0.2420 -1.6751
 4014TIP3    H236238   3.571   1.427  16.422 -0.4309 -0.7718  0.6035
 4015TIP3   OH236239   1.078   6.937  17.825  0.0721 -0.2779 -0.3813
 4015TIP3    H136240   1.031   6.859  17.854 -0.5662 -0.2813 -1.3969
 4015TIP3    H236241   1.010   6.995  17.791  0.6204  0.4288 -0.3021
 4016TIP3   OH236242   1.878   1.017  17.705  0.2993  0.0879  0.0053
 4016TIP3    H136243   1.920   0.931  17.715  0.8308  0.3881  0.3437
 4016TIP3    H236244   1.870   1.028  17.610 -0.7393 -0.7957 -0.0330
 4017TIP3   OH236245   7.423   5.380  16.953  0.0283  0.4507 -0.2139
 4017TIP3    H136246   7.468   5.458  16.984 -0.9287  0.6201  0.8147
 4017TIP3    H236247   7.426   5.319  17.027 -0.7702  0.1905 -0.3772
 4018TIP3   OH236248   4.608   4.638  17.691  0.1621  0.0265 -0.1915
 4018TIP3    H136249   4.673   4.679  17.634 -0.2468 -0.3100 -0.9097
 4018TIP3    H236250   4.555   4.711  17.724 -0.0907  0.1558 -0.8687
 4019TIP3   OH236251   6.967   4.181  16.925  0.4435  0.3783  0.2238
 4019TIP3    H136252   6.999   4.242  16.858  0.3792 -0.3663 -0.4980
 4019TIP3    H236253   6.994   4.221  17.008  0.1412  1.5450 -0.2120
 4020TIP3   OH236254   2.547   1.188  15.556  0.1088 -0.3757  0.0302
 4020TIP3    H136255   2.476   1.128  15.531 -0.2999  0.3943 -0.7396
 4020TIP3    H236256   2.503   1.257  15.606  0.5349 -0.5874  0.7007
 4021TIP3   OH236257   6.940   4.873  17.109 -0.2651 -0.2839 -0.3703
 4021TIP3    H136258   7.009   4.926  17.149  0.7434 -0.2399 -2.1043
 4021TIP3    H236259   6.900   4.826  17.183  0.5198  0.9254  0.8573
 4022TIP3   OH236260   5.626   4.908  17.813 -0.2954 -0.3172 -0.3444
 4022TIP3    H136261   5.653   4.826  17.772  0.6130 -0.0103 -0.3848
 4022TIP3    H236262   5.703   4.965  17.806 -1.2951  0.9864 -1.4767
 4023TIP3   OH236263   5.206   5.944  16.671 -0.0460 -0.3305 -0.0339
 4023TIP3    H136264   5.245   6.014  16.618  2.0499 -1.4328 -0.0723
 4023TIP3    H236265   5.155   5.892  16.608 -0.5132  0.3834 -0.2565
 4024TIP3   OH236266   3.381   3.157  16.082  0.1338 -0.3346  0.3676
 4024TIP3    H136267   3.306   3.216  16.086  0.6434  0.3994 -0.5142
 4024TIP3    H236268   3.454   3.213  16.054  0.6646 -1.3517 -0.3263
 4025TIP3   OH236269   5.319   6.424  17.217 -0.0672  0.1948  0.2464
 4025TIP3    H136270   5.310   6.516  17.194  1.3462 -0.0726 -1.5647
 4025TIP3    H236271   5.242   6.405  17.271 -0.0079  2.5914  1.2833
 4026TIP3   OH236272   0.809   3.595  16.193 -0.4476  0.2010  0.0429
 4026TIP3    H136273   0.790   3.509  16.156 -1.1367  0.5340 -0.3935
 4026TIP3    H236274   0.796   3.656  16.120 -0.0462  0.6810  0.3703
 4027TIP3   OH236275   7.551   4.497  17.252 -0.5586 -0.4476  0.4263
 4027TIP3    H136276   7.465   4.461  17.234 -0.6749  0.8134 -1.9408
 4027TIP3    H236277   7.612   4.436  17.211 -0.2397 -1.4176  2.2188
 4028TIP3   OH236278   5.896   3.393  17.209  0.1956 -0.4676 -0.7560
 4028TIP3    H136279   5.870   3.363  17.296 -0.3123 -1.4433 -1.2293
 4028TIP3    H236280   5.900   3.488  17.217  0.6058 -0.5717  0.4532
 4029TIP3   OH236281   6.601   0.251  17.374  0.6060 -0.3891 -0.1283
 4029TIP3    H136282   6.577   0.246  17.281 -0.9894  0.2094  0.2186
 4029TIP3    H236283   6.696   0.252  17.374  0.6333  1.0106 -1.8480
 4030TIP3   OH236284   3.199   5.610  16.839 -0.1054 -0.3523 -0.3241
 4030TIP3    H136285   3.206   5.515  16.847 -0.2382 -0.3974 -0.7091
 4030TIP3    H236286   3.144   5.623  16.762  0.4878  0.0491 -0.6836
 4031TIP3   OH236287   2.539   1.407  17.582 -0.2085 -0.4855  0.0890
 4031TIP3    H136288   2.481   1.443  17.516 -0.6219 -2.1673 -0.5191
 4031TIP3    H236289   2.518   1.313  17.584  1.0487 -0.7780  1.3220
 4032TIP3   OH236290   3.043   5.735  18.465  0.0876  0.4039 -0.0503
 4032TIP3    H136291   2.975   5.673  18.439  0.0585  0.0332  0.8716
 4032TIP3    H236292   3.125   5.692  18.443  0.0531  0.2697  0.0827
 4033TIP3   OH236293   2.581   7.261  16.894 -0.1364 -0.1556 -0.8633
 4033TIP3    H136294   2.494   7.240  16.929 -0.2011 -0.9467 -1.4647
 4033TIP3    H236295   2.614   7.329  16.952 -1.3648  0.5262 -0.9190
 4034TIP3   OH236296   1.275   0.055  18.043  0.7708  0.3938  0.5260
 4034TIP3    H136297   1.234   0.035  18.127  0.3260 -0.2018  0.1838
 4034TIP3    H236298   1.324   0.135  18.058 -0.0403  0.7893  1.1185
 4035TIP3   OH236299   2.851   0.833  16.914  0.5148 -0.0867 -0.2271
 4035TIP3    H136300   2.887   0.745  16.915  0.8866  0.0389 -1.5172
 4035TIP3    H236301   2.924   0.890  16.939  1.1542  0.1150 -2.3226
 4036TIP3   OH236302   4.997   3.747  16.012 -0.3043  0.2828 -0.2843
 4036TIP3    H136303   4.905   3.732  15.989 -0.3164 -0.0883  0.0022
 4036TIP3    H236304   4.993   3.809  16.085 -0.3411 -0.0310 -0.0221
 4037TIP3   OH236305   2.086   5.527  16.660  0.4826  0.9374 -0.0875
 4037TIP3    H136306   2.143   5.568  16.726  1.3144  0.7328 -0.6529
 4037TIP3    H236307   2.141   5.522  16.581  0.3294 -1.0132 -0.1201
 4038TIP3   OH236308   3.327   3.206  18.789  0.0266 -0.0464  0.1467
 4038TIP3    H136309   3.333   3.258  18.869 -2.7130 -3.4334  2.8704
 4038TIP3    H236310   3.377   3.126  18.807  0.3978 -0.4112 -2.0972
 4039TIP3   OH236311   3.890   7.639  17.381  0.0466 -0.3293  0.2387
 4039TIP3    H136312   3.976   7.645  17.338  0.0952 -1.9583  0.0667
 4039TIP3    H236313   3.846   7.721  17.356  1.7700  0.8565  0.8835
 4040TIP3   OH236314   0.905   3.014  16.320 -0.1246  0.3885 -0.0090
 4040TIP3    H136315   0.950   3.076  16.377  1.6546 -0.5531 -0.3226
 4040TIP3    H236316   0.907   3.056  16.233  0.5798  0.1488 -0.1124
 4041TIP3   OH236317   2.080   0.505  17.535 -0.0734  0.3697 -0.2140
 4041TIP3    H136318   2.069   0.473  17.445  1.7492 -2.4769  0.4396
 4041TIP3    H236319   2.155   0.564  17.530 -0.2271  0.5378 -0.6215
 4042TIP3   OH236320   4.908   1.320  17.005  0.4593 -0.2432  0.2045
 4042TIP3    H136321   4.844   1.368  17.058 -0.5704  0.5591 -1.6873
 4042TIP3    H236322   4.926   1.241  17.056 -0.3519  0.5536  1.8178
 4043TIP3   OH236323   0.859   5.785  18.117 -0.1262  0.0335  0.5259
 4043TIP3    H136324   0.913   5.758  18.042 -1.2135 -1.1623  0.1493
 4043TIP3    H236325   0.917   5.841  18.168  1.5748 -1.4066  0.2691
 4044TIP3   OH236326   1.696   6.981  18.780 -0.2467 -0.0741  0.4980
 4044TIP3    H136327   1.624   7.039  18.755  0.0665 -0.6907 -2.1372
 4044TIP3    H236328   1.769   7.040  18.799 -0.0400  0.4859 -1.7904
 4045TIP3   OH236329   0.761   5.267  16.501 -0.6541  1.0094 -0.8861
 4045TIP3    H136330   0.712   5.348  16.517 -1.3222  0.4243  0.1255
 4045TIP3    H236331   0.732   5.238  16.415 -0.9029  1.5121 -0.9720
 4046TIP3   OH236332   2.088   6.627  16.191  0.1811 -0.2914 -0.0719
 4046TIP3    H136333   2.153   6.695  16.172  0.1315  0.1344  1.1842
 4046TIP3    H236334   2.052   6.652  16.276 -1.8580 -0.3546 -0.8781
 4047TIP3   OH236335   3.822   4.842  17.814 -0.4175  0.1905 -0.3662
 4047TIP3    H136336   3.758   4.772  17.825 -1.8244  1.7567  2.8241
 4047TIP3    H236337   3.906   4.800  17.829 -1.2892 -0.7938  2.5838
 4048TIP3   OH236338   4.022   2.274  17.721 -0.6111  0.3291  0.6728
 4048TIP3    H136339   4.089   2.319  17.669  0.5450 -0.3304  1.5429
 4048TIP3    H236340   4.070   2.207  17.770 -2.0993 -1.1150  0.2772
 4049TIP3   OH236341   7.668   6.454  18.276 -0.3590  0.0203 -0.2197
 4049TIP3    H136342   7.712   6.396  18.214  1.8497  0.9301  0.3798
 4049TIP3    H236343   7.651   6.534  18.226 -3.4458 -1.0383 -1.0628
 4050TIP3   OH236344   2.623   2.177  17.834  0.2301 -0.0964  0.3142
 4050TIP3    H136345   2.668   2.159  17.752 -1.6250  1.1527 -1.0602
 4050TIP3    H236346   2.569   2.099  17.850  0.4751 -0.2731  0.2853
 4051TIP3   OH236347   5.326   5.275  18.046 -0.4119  0.4433  0.2204
 4051TIP3    H136348   5.339   5.267  18.140 -1.8433 -1.0805  0.3309
 4051TIP3    H236349   5.370   5.356  18.022 -0.5858  1.1975  2.3068
 4052TIP3   OH236350   2.964   3.267  18.081  0.2301 -0.2283 -0.2145
 4052TIP3    H136351   2.928   3.182  18.055  1.2692 -0.8363  0.2704
 4052TIP3    H236352   2.925   3.329  18.019  0.7598 -1.2962 -1.6912
 4053TIP3   OH236353   4.981   2.120  18.949 -0.6212  0.6659  0.0929
 4053TIP3    H136354   5.000   2.170  18.870  0.6244 -0.0003 -0.0487
 4053TIP3    H236355   5.049   2.146  19.011 -0.1754 -0.5405  0.1379
 4054TIP3   OH236356   2.242   3.246  16.303 -0.0859  0.4215 -0.4108
 4054TIP3    H136357   2.314   3.191  16.271 -0.2874 -0.1235  0.0585
 4054TIP3    H236358   2.204   3.196  16.375  0.4382  1.6714  0.7704
 4055TIP3   OH236359   1.976   5.888  17.861  0.4717  0.5840 -0.0170
 4055TIP3    H136360   1.892   5.908  17.902  0.0162 -0.6576 -0.2934
 4055TIP3    H236361   1.953   5.852  17.775  1.2142 -0.7869  0.3299
 4056TIP3   OH236362   5.822   3.595  18.364  0.1003 -0.0308  0.4372
 4056TIP3    H136363   5.880   3.564  18.434 -0.8767 -0.6377  0.9984
 4056TIP3    H236364   5.864   3.567  18.284  2.1859  2.2098  0.6151
 4057TIP3   OH236365   6.213   2.808  17.207  0.4620 -0.2386 -0.1765
 4057TIP3    H136366   6.184   2.888  17.251 -0.4139 -0.6091 -0.0661
 4057TIP3    H236367   6.205   2.828  17.114  0.9656  0.0531 -0.1654
 4058TIP3   OH236368   5.378   2.825  17.740 -0.2287  0.0769 -0.2369
 4058TIP3    H136369   5.430   2.857  17.814 -1.3640 -0.9527  1.0757
 4058TIP3    H236370   5.305   2.886  17.734 -0.0794  0.2224 -0.5936
 4059TIP3   OH236371   1.166   5.725  18.718 -0.4166 -0.3815  0.7389
 4059TIP3    H136372   1.234   5.663  18.744  0.3343  0.9985  2.2925
 4059TIP3    H236373   1.208   5.783  18.654 -0.6791 -0.6149  0.3520
 4060TIP3   OH236374   6.018   5.936  16.803  0.0913  0.2669  0.5704
 4060TIP3    H136375   6.063   5.960  16.721  0.1460 -0.1166  0.4837
 4060TIP3    H236376   6.003   6.019  16.847  0.6774  0.4265  0.4877
 4061TIP3   OH236377   0.385   6.590  16.121 -0.4626  0.5580  0.3705
 4061TIP3    H136378   0.367   6.669  16.070 -2.1532 -0.4019 -0.6298
 4061TIP3    H236379   0.309   6.533  16.105  1.6093 -2.1287 -0.6285
 4062TIP3   OH236380   6.025   1.348  16.032  0.0878  0.2089 -0.6690
 4062TIP3    H136381   6.107   1.377  15.993  0.7382 -1.2806 -0.4726
 4062TIP3    H236382   6.000   1.270  15.982 -1.0325  0.4500 -0.5128
 4063TIP3   OH236383   7.572   6.910  16.056 -0.1467 -0.6191  0.1661
 4063TIP3    H136384   7.525   6.932  16.137  1.4611 -1.3062  1.3500
 4063TIP3    H236385   7.503   6.892  15.992 -1.4850  1.6710  0.8498
 4064TIP3   OH236386   2.486   3.073  16.222  0.1493  0.2330  0.0925
 4064TIP3    H136387   2.502   3.167  16.212 -0.1189  0.4011  1.1905
 4064TIP3    H236388   2.565   3.039  16.263  0.7180 -0.2344 -1.3375
 4065TIP3   OH236389   2.453   5.834  18.518 -0.3544  0.0843  0.6977
 4065TIP3    H136390   2.411   5.898  18.461 -1.7271 -0.3379  1.1922
 4065TIP3    H236391   2.520   5.794  18.463 -1.1515  0.2073 -0.3984
 4066TIP3   OH236392   4.335   7.509  18.274  0.2853  0.0356  0.2017
 4066TIP3    H136393   4.252   7.464  18.290  0.1746 -0.1132 -0.7438
 4066TIP3    H236394   4.311   7.601  18.265  0.3581  0.1312  0.9316
 4067TIP3   OH236395   3.688   4.774  18.117 -0.2353  0.0983 -0.0814
 4067TIP3    H136396   3.641   4.846  18.158  0.6436  0.1744  0.8511
 4067TIP3    H236397   3.636   4.751  18.040 -1.9859 -0.0933  1.1157
 4068TIP3   OH236398   2.422   4.622  17.506  0.0633 -0.2266  0.2295
 4068TIP3    H136399   2.389   4.711  17.494 -0.2753 -0.2832  0.6647
 4068TIP3    H236400   2.436   4.615  17.601 -0.1660 -0.7146  0.2326
 4069TIP3   OH236401   6.957   7.671  18.668 -0.4559  0.1926  0.0244
 4069TIP3    H136402   6.913   7.594  18.632 -1.1311  0.6790 -0.2230
 4069TIP3    H236403   7.033   7.637  18.714  0.3183 -0.4567 -1.6887
 4070TIP3   OH236404   6.397   7.096  18.486  0.0891  0.1154 -0.3022
 4070TIP3    H136405   6.457   7.088  18.411  0.6958 -2.3318  0.3747
 4070TIP3    H236406   6.312   7.069  18.451  0.2375 -0.4085 -0.2567
 4071TIP3   OH236407   6.677   1.901  17.354 -0.1819  0.3055  0.0768
 4071TIP3    H136408   6.725   1.918  17.273  0.0435 -0.9547 -0.0764
 4071TIP3    H236409   6.744   1.874  17.417 -0.3708  1.1424  0.6500
 4072TIP3   OH236410   5.281   3.537  17.168 -0.7451  0.4313 -0.4170
 4072TIP3    H136411   5.375   3.533  17.148 -0.6273  1.2115 -0.0680
 4072TIP3    H236412   5.276   3.508  17.260 -1.0243 -0.9978 -0.8588
 4073TIP3   OH236413   1.205   6.620  17.901  0.3637  0.3409 -0.2112
 4073TIP3    H136414   1.196   6.657  17.814 -0.7948  1.7504  0.4779
 4073TIP3    H236415   1.261   6.682  17.948  0.6885 -0.2207  0.1572
 4074TIP3   OH236416   6.885   0.544  16.426  0.0818 -0.1986 -0.1600
 4074TIP3    H136417   6.956   0.533  16.489  1.3428 -0.4164 -1.5589
 4074TIP3    H236418   6.870   0.456  16.392  1.5158  0.3124 -2.3049
 4075TIP3   OH236419   5.277   4.971  16.544  0.5794 -0.8045 -0.0624
 4075TIP3    H136420   5.208   5.020  16.589  1.0892  0.1320 -0.2735
 4075TIP3    H236421   5.247   4.966  16.453  0.4204 -1.0889  0.0051
 4076TIP3   OH236422   5.184   1.697  17.545 -0.5349  0.3990 -0.1204
 4076TIP3    H136423   5.160   1.771  17.601 -2.4870 -0.3703  0.1607
 4076TIP3    H236424   5.238   1.641  17.600 -1.0803  0.4389  0.4603
 4077TIP3   OH236425   6.242   2.638  16.807 -0.0579 -0.2365 -0.1039
 4077TIP3    H136426   6.271   2.587  16.883 -0.7043 -1.0595 -0.3917
 4077TIP3    H236427   6.318   2.640  16.749 -0.0996 -1.1028 -0.1998
 4078TIP3   OH236428   1.418   2.677  17.359 -0.5496 -0.3457 -0.4223
 4078TIP3    H136429   1.491   2.627  17.324  0.5118  0.4538  0.5700
 4078TIP3    H236430   1.385   2.625  17.432  1.3102  0.8246  1.3793
 4079TIP3   OH236431   3.378   5.183  16.695 -0.1256 -0.1432 -0.0974
 4079TIP3    H136432   3.471   5.167  16.714 -0.4727  0.0744  1.9876
 4079TIP3    H236433   3.367   5.152  16.605  1.4547 -2.4174  0.3998
 4080TIP3   OH236434   3.856   1.896  16.174  0.3217  0.2919 -0.2690
 4080TIP3    H136435   3.946   1.906  16.142  1.0869 -1.0301  1.3442
 4080TIP3    H236436   3.841   1.801  16.176 -1.4804  0.4896 -1.3717
 4081TIP3   OH236437   1.412   3.824  16.114  0.5085  0.4605  0.5981
 4081TIP3    H136438   1.341   3.760  16.100  0.6172  0.3539  0.5319
 4081TIP3    H236439   1.492   3.775  16.096  0.5589  0.8004 -0.1578
 4082TIP3   OH236440   2.657   0.937  16.755 -0.6332 -0.0675 -0.3466
 4082TIP3    H136441   2.727   0.916  16.817 -0.0489  0.7842 -0.6983
 4082TIP3    H236442   2.612   1.012  16.793 -1.2624 -0.5140 -0.1987
 4083TIP3   OH236443   6.321   1.038  18.456 -1.0244 -0.3899 -0.3439
 4083TIP3    H136444   6.309   1.013  18.364 -0.5578 -0.5899 -0.3568
 4083TIP3    H236445   6.267   0.976  18.505 -0.5838 -0.8532 -0.4336
 4084TIP3   OH236446   3.344   2.733  16.267 -0.3529  0.0317 -0.3573
 4084TIP3    H136447   3.417   2.743  16.205  0.3346  1.3641  0.6109
 4084TIP3    H236448   3.272   2.783  16.228  0.2299  1.2844  0.0950
 4085TIP3   OH236449   6.256   2.184  17.036 -0.3738  0.6222 -0.6430
 4085TIP3    H136450   6.207   2.171  17.116  0.0580 -0.4625 -0.5378
 4085TIP3    H236451   6.345   2.155  17.057  0.0293  1.4170 -1.1785
 4086TIP3   OH236452   6.296   4.445  17.890  0.7319  0.8530 -0.1699
 4086TIP3    H136453   6.205   4.474  17.896  0.1349 -0.8748 -0.2736
 4086TIP3    H236454   6.306   4.383  17.963  1.5657  0.3858 -0.6651
 4087TIP3   OH236455   0.867   7.516  17.420 -0.3142  0.0072  0.2707
 4087TIP3    H136456   0.805   7.562  17.477  0.7999  0.0808  1.4865
 4087TIP3    H236457   0.953   7.541  17.454  0.3535 -1.3844 -0.3205
 4088TIP3   OH236458   7.372   1.967  18.481 -1.0346  0.1437  0.0254
 4088TIP3    H136459   7.368   1.884  18.434  0.2951  0.0023  0.1232
 4088TIP3    H236460   7.447   1.957  18.539 -0.5524  1.6109 -0.3259
 4089TIP3   OH236461   1.042   6.013  16.295 -0.3788 -0.1555  0.0189
 4089TIP3    H136462   0.951   6.027  16.322 -1.3141 -1.0909 -2.3203
 4089TIP3    H236463   1.067   6.095  16.252  0.2934  0.4809  1.5555
 4090TIP3   OH236464   2.102   2.249  17.851 -0.1898  0.2080  0.2575
 4090TIP3    H136465   2.079   2.162  17.820 -1.0353  0.4424  0.1932
 4090TIP3    H236466   2.188   2.266  17.813 -0.6862  0.0124 -1.0096
 4091TIP3   OH236467   7.292   0.509  18.719 -0.3030  0.7764 -0.1901
 4091TIP3    H136468   7.367   0.482  18.666 -0.1413  0.6404  0.1074
 4091TIP3    H236469   7.252   0.428  18.748  0.2595  0.8329  0.8093
 4092TIP3   OH236470   6.104   4.374  16.403  0.0338  0.2501  0.1368
 4092TIP3    H136471   6.116   4.443  16.338 -2.4623  1.2531  0.6167
 4092TIP3    H236472   6.090   4.295  16.351  0.2374  0.6214 -0.4975
 4093TIP3   OH236473   1.355   2.715  18.330 -0.0321 -0.2573  0.3710
 4093TIP3    H136474   1.312   2.797  18.306 -0.9579 -0.9002 -0.2591
 4093TIP3    H236475   1.431   2.711  18.272 -0.9493 -0.6575 -0.8472
 4094TIP3   OH236476   7.196   0.040  16.819 -0.0575  0.5840  0.2547
 4094TIP3    H136477   7.145   0.091  16.881  1.4721  1.4412  0.8675
 4094TIP3    H236478   7.202   0.096  16.741  0.4189  0.7426  0.4011
 4095TIP3   OH236479   5.219   4.313  17.621 -0.6068 -0.4769 -0.1301
 4095TIP3    H136480   5.235   4.360  17.539  1.8354  0.1707  0.6631
 4095TIP3    H236481   5.129   4.337  17.645 -0.5247  1.2430 -1.3731
 4096TIP3   OH236482   5.784   0.666  17.385  0.6429  0.3379  0.2694
 4096TIP3    H136483   5.725   0.594  17.405  2.5393 -0.5970  3.1712
 4096TIP3    H236484   5.744   0.742  17.429  0.7401  0.0653  0.8456
 4097TIP3   OH236485   1.711   4.804  17.822  0.2015  0.1842  0.6117
 4097TIP3    H136486   1.643   4.869  17.804  1.3310  1.0987 -0.5855
 4097TIP3    H236487   1.726   4.809  17.916 -1.6537 -0.3551  0.9778
 4098TIP3   OH236488   7.348   3.205  17.359  0.2040 -0.0054  0.1728
 4098TIP3    H136489   7.369   3.298  17.367  0.1694 -0.0927  1.4012
 4098TIP3    H236490   7.414   3.161  17.413 -0.1484 -0.6581  0.0804
 4099TIP3   OH236491   2.751   7.008  17.456 -0.4337 -0.0102  0.3690
 4099TIP3    H136492   2.777   6.950  17.384 -1.7830  1.4125 -1.3827
 4099TIP3    H236493   2.664   6.976  17.482 -0.2652 -0.0676  0.8706
 4100TIP3   OH236494   3.183   1.857  17.845  0.6202  0.1321  0.0968
 4100TIP3    H136495   3.207   1.939  17.889  0.1161 -0.3324  1.2583
 4100TIP3    H236496   3.222   1.788  17.899 -0.6952 -0.4864  0.3025
 4101TIP3   OH236497   0.062   0.644  16.609  0.2359  0.0904  0.0542
 4101TIP3    H136498  -0.007   0.696  16.649  0.2715 -2.2048  3.5079
 4101TIP3    H236499   0.027   0.621  16.522 -2.3262  0.8363  0.7918
 4102TIP3   OH236500   1.783   4.155  17.470  0.1495  0.1705 -0.0407
 4102TIP3    H136501   1.721   4.215  17.429 -0.5741 -0.2088  0.4783
 4102TIP3    H236502   1.865   4.203  17.472 -0.7685  1.8294  1.8819
 4103TIP3   OH236503   5.685   7.071  17.253 -0.0574  0.0840  0.7327
 4103TIP3    H136504   5.680   6.977  17.239  1.9810 -0.2339  1.7268
 4103TIP3    H236505   5.733   7.104  17.177 -0.7704  0.3260  0.3846
 4104TIP3   OH236506   0.233   3.837  17.089  0.4959  0.0127 -0.0731
 4104TIP3    H136507   0.298   3.813  17.155 -0.8466 -2.6243  0.4032
 4104TIP3    H236508   0.241   3.770  17.021 -0.0694  1.0925 -1.2590
 4105TIP3   OH236509   1.211   1.616  18.408  0.2771 -0.1050  0.6390
 4105TIP3    H136510   1.192   1.522  18.403  0.7029 -0.1857  0.5550
 4105TIP3    H236511   1.245   1.630  18.496  0.6620 -0.1138  0.4942
 4106TIP3   OH236512   3.068   3.337  16.819  0.1510  0.4611 -0.1555
 4106TIP3    H136513   3.058   3.340  16.724  2.0951  1.6392 -0.3719
 4106TIP3    H236514   3.148   3.287  16.833  0.5426  1.3184  0.8000
 4107TIP3   OH236515   2.981   1.826  18.817  0.0402 -0.3205  0.0854
 4107TIP3    H136516   2.944   1.914  18.822  0.2692 -0.2820  1.1664
 4107TIP3    H236517   3.074   1.838  18.833  0.1923 -0.6884 -0.4710
 4108TIP3   OH236518   3.926   4.302  16.915 -0.4307  0.0260 -0.3594
 4108TIP3    H136519   3.920   4.324  16.822 -0.7881  1.6892  0.0138
 4108TIP3    H236520   4.013   4.331  16.941 -0.0082 -1.2318 -0.3568
 4109TIP3   OH236521   6.609   1.115  18.652  0.0624  0.2824 -0.1899
 4109TIP3    H136522   6.566   1.053  18.592  0.7563 -0.0262 -0.3798
 4109TIP3    H236523   6.609   1.070  18.736  0.0665  0.2569 -0.2029
 4110TIP3   OH236524   5.858   4.366  16.504  0.2251 -0.4169  0.4912
 4110TIP3    H136525   5.943   4.377  16.461 -0.9140  0.1622 -1.8045
 4110TIP3    H236526   5.814   4.299  16.452 -0.9695 -0.2264  1.2251
 4111TIP3   OH236527   2.257   3.517  16.207 -0.0740  0.4891 -0.1461
 4111TIP3    H136528   2.256   3.454  16.279  0.2148 -0.3864 -0.8875
 4111TIP3    H236529   2.277   3.601  16.249 -1.1402  0.2244  0.9461
 4112TIP3   OH236530   5.230   4.942  17.672  0.8054 -0.2599 -0.0877
 4112TIP3    H136531   5.225   4.986  17.757  0.3364  0.9624 -0.7247
 4112TIP3    H236532   5.304   4.982  17.628  0.6568 -0.4354 -0.5068
 4113TIP3   OH236533   0.404   5.446  18.084 -0.2336 -0.2364  0.8272
 4113TIP3    H136534   0.424   5.451  18.177  0.1866 -1.7354  0.8386
 4113TIP3    H236535   0.448   5.523  18.046 -0.2850  0.2978  1.8286
 4114TIP3   OH236536   7.041   6.182  16.961  0.0854  0.5771  0.0957
 4114TIP3    H136537   7.005   6.148  17.043 -0.2166 -1.3512 -0.7686
 4114TIP3    H236538   7.131   6.207  16.983 -0.3787  1.2463  1.2769
 4115TIP3   OH236539   5.131   5.500  17.734 -0.2241 -0.4987 -0.5328
 4115TIP3    H136540   5.100   5.491  17.644  0.5983  1.0933 -1.0189
 4115TIP3    H236541   5.105   5.589  17.759  1.9609  0.1027 -0.2157
 4116TIP3   OH236542   0.258   2.475  16.463 -0.2822 -0.1822 -0.2630
 4116TIP3    H136543   0.253   2.462  16.558 -0.1711  1.2202 -0.0472
 4116TIP3    H236544   0.314   2.552  16.452 -0.1238 -0.4510 -1.4850
 4117TIP3   OH236545   7.180   4.059  16.560  0.2352 -0.1525 -0.2742
 4117TIP3    H136546   7.216   4.147  16.555  0.4323 -0.2387 -0.3631
 4117TIP3    H236547   7.179   4.028  16.469 -0.5572  0.0516 -0.3458
 4118TIP3   OH236548   6.611   0.297  17.061  0.0329  0.2637  0.0739
 4118TIP3    H136549   6.697   0.337  17.046  0.0412  0.2728  0.1461
 4118TIP3    H236550   6.626   0.204  17.047  0.3382  0.1089  1.2958
 4119TIP3   OH236551   4.543   5.586  18.322 -0.3836 -0.0641  0.2732
 4119TIP3    H136552   4.602   5.653  18.358 -0.2435  0.1320 -0.3082
 4119TIP3    H236553   4.492   5.633  18.256 -1.7807 -0.0319  1.3368
 4120TIP3   OH236554   0.939   6.035  16.902 -0.0216 -0.4448  0.4669
 4120TIP3    H136555   0.909   5.961  16.849  0.3821 -1.2280  1.3133
 4120TIP3    H236556   0.904   6.112  16.857 -1.0827 -1.1830 -0.0180
 4121TIP3   OH236557   1.875   3.313  18.346  0.0287 -0.2863  0.2263
 4121TIP3    H136558   1.846   3.335  18.258  2.3339  0.9929 -0.3003
 4121TIP3    H236559   1.952   3.257  18.333 -0.4444 -1.3039  1.4896
 4122TIP3   OH236560   1.171   0.800  16.751 -0.1588 -0.0382 -0.4508
 4122TIP3    H136561   1.264   0.808  16.773 -0.5967  1.8416  0.9240
 4122TIP3    H236562   1.161   0.709  16.720  2.1611 -0.1904 -0.9048
 4123TIP3   OH236563   4.666   6.152  15.999 -0.4247 -0.2915 -0.0156
 4123TIP3    H136564   4.671   6.238  16.042  1.4214 -1.2800  1.9305
 4123TIP3    H236565   4.574   6.128  16.005 -0.9035  1.3407 -0.2024
 4124TIP3   OH236566   1.340   4.192  18.243  0.0501 -0.7934 -0.7349
 4124TIP3    H136567   1.344   4.096  18.241  1.6668 -0.7628 -0.5775
 4124TIP3    H236568   1.428   4.219  18.268 -1.1381  0.6855  2.2405
 4125TIP3   OH236569   4.522   4.907  15.933  0.4966 -0.1029 -0.3624
 4125TIP3    H136570   4.498   4.916  15.840 -0.3949 -0.2137 -0.1462
 4125TIP3    H236571   4.471   4.974  15.977  0.5984 -0.3374  0.1131
 4126TIP3   OH236572   7.355   1.485  16.494  0.8886 -0.6075 -0.3444
 4126TIP3    H136573   7.321   1.397  16.511 -0.2933  0.0338  0.7718
 4126TIP3    H236574   7.279   1.535  16.464  1.0180  0.5802  1.1590
 4127TIP3   OH236575   4.943   7.257  18.156  0.1910  0.6948 -0.6452
 4127TIP3    H136576   4.861   7.209  18.160  1.7975 -2.2289 -0.2104
 4127TIP3    H236577   4.962   7.281  18.247 -0.0676  1.2130 -0.7231
 4128TIP3   OH236578   6.098   1.071  17.925 -0.2569  0.5661  0.2148
 4128TIP3    H136579   6.017   1.044  17.967 -0.9745  1.4506 -0.5481
 4128TIP3    H236580   6.121   1.153  17.969  0.3192  0.2396  0.5345
 4129TIP3   OH236581   5.835   0.131  17.430 -0.6947  0.3791 -0.0888
 4129TIP3    H136582   5.919   0.169  17.402 -0.5425  0.5945  0.6509
 4129TIP3    H236583   5.800   0.090  17.351 -0.4461  1.3104 -0.6966
 4130TIP3   OH236584   2.938   0.776  18.787  0.8337 -0.1889  0.4622
 4130TIP3    H136585   2.998   0.841  18.823  0.9666  0.1871 -0.4274
 4130TIP3    H236586   2.990   0.695  18.783  1.4072  0.2254 -0.6643
 4131TIP3   OH236587   7.026   6.207  18.606 -0.5295  0.4091  0.7640
 4131TIP3    H136588   6.944   6.158  18.611  0.3674 -1.0779  1.8689
 4131TIP3    H236589   7.052   6.222  18.697  0.1272  1.3888  0.4359
 4132TIP3   OH236590   0.351   1.266  16.843 -0.2889  1.1496  0.3225
 4132TIP3    H136591   0.357   1.210  16.766 -2.8021 -0.5766  1.2650
 4132TIP3    H236592   0.432   1.250  16.891  0.9453  1.6396 -1.4894
 4133TIP3   OH236593   3.870   2.834  17.628 -0.6720  0.7733 -0.2703
 4133TIP3    H136594   3.965   2.845  17.627 -0.7702  1.6788 -1.0187
 4133TIP3    H236595   3.839   2.890  17.699 -0.6063 -0.0233  0.4038
 4134TIP3   OH236596   6.984   4.806  16.163 -0.7852 -0.2275 -0.7000
 4134TIP3    H136597   6.951   4.895  16.171 -0.7908 -0.3810  2.5002
 4134TIP3    H236598   7.079   4.815  16.152 -0.7954  0.1746 -0.4521
 4135TIP3   OH236599   6.896   0.930  16.424 -0.0355 -0.0833  0.2778
 4135TIP3    H136600   6.802   0.912  16.425 -0.3875  1.5275 -0.5462
 4135TIP3    H236601   6.936   0.847  16.396 -1.2488 -0.5750 -0.0661
 4136TIP3   OH236602   1.815   0.370  17.419 -0.2704  0.2515 -0.3230
 4136TIP3    H136603   1.899   0.326  17.406  0.4050  1.8455 -1.7191
 4136TIP3    H236604   1.754   0.325  17.360 -0.8123 -1.7844  1.6543
 4137TIP3   OH236605   4.388   6.681  16.385  0.0190  0.0325 -0.4330
 4137TIP3    H136606   4.366   6.756  16.330 -0.9395 -1.2615 -1.8923
 4137TIP3    H236607   4.405   6.610  16.324  2.4297 -0.6073  0.8661
 4138TIP3   OH236608   1.025   7.127  18.385 -0.2431  0.3585 -0.0445
 4138TIP3    H136609   1.103   7.075  18.404  0.1371  0.6206 -0.8323
 4138TIP3    H236610   0.954   7.064  18.386  0.0737 -0.0051  0.0012
 4139TIP3   OH236611   0.444   6.933  16.502 -0.0534 -0.4518 -0.7247
 4139TIP3    H136612   0.408   6.952  16.589  1.1137  0.4743 -0.4245
 4139TIP3    H236613   0.391   6.859  16.471 -1.6179  0.2882  0.0395
 4140TIP3   OH236614   1.555   6.247  17.240  0.8774  0.6184  0.4566
 4140TIP3    H136615   1.520   6.284  17.321  1.2430  1.0779  0.4090
 4140TIP3    H236616   1.540   6.153  17.247  0.3312  0.7263  0.7743
 4141TIP3   OH236617   2.789   1.407  18.522  0.5137 -0.2819 -0.1575
 4141TIP3    H136618   2.862   1.454  18.563 -0.2308 -0.5101  1.5181
 4141TIP3    H236619   2.805   1.315  18.545  1.3320 -0.7652 -2.4210
 4142TIP3   OH236620   3.869   3.137  18.733 -0.3732  0.1065 -0.2581
 4142TIP3    H136621   3.905   3.145  18.644 -1.0008 -0.6422 -0.5877
 4142TIP3    H236622   3.785   3.093  18.721 -0.6431  0.3566  0.6746
 4143TIP3   OH236623   2.371   1.800  18.056  0.5853 -0.0751  0.4042
 4143TIP3    H136624   2.427   1.874  18.077  2.5805 -1.5102  0.4265
 4143TIP3    H236625   2.374   1.744  18.134  0.8974 -1.2139 -0.3960
 4144TIP3   OH236626   3.164   2.169  18.501  0.3905 -0.0748  0.0195
 4144TIP3    H136627   3.106   2.112  18.452  1.4456 -0.4629 -0.8029
 4144TIP3    H236628   3.148   2.257  18.465 -0.2154 -0.0627  0.3134
 4145TIP3   OH236629   4.269   4.353  16.209  0.0548  0.2092 -0.1957
 4145TIP3    H136630   4.194   4.322  16.158  0.1399 -0.3443  0.0080
 4145TIP3    H236631   4.275   4.292  16.282  0.2287  0.7108  0.2208
 4146TIP3   OH236632   3.098   6.789  18.459  0.4389 -0.0688 -0.0654
 4146TIP3    H136633   3.076   6.736  18.535 -0.3853 -1.5542 -1.2809
 4146TIP3    H236634   3.160   6.854  18.492  0.6469 -1.1082  1.7026
 4147TIP3   OH236635   3.109   2.882  18.126  0.1350  0.0474  0.2524
 4147TIP3    H136636   3.160   2.935  18.064 -2.1933 -1.7616 -3.5310
 4147TIP3    H236637   3.166   2.808  18.146  0.0984 -0.5603 -1.7172
 4148TIP3   OH236638   3.469   1.365  18.246 -0.2851  0.0524  1.0466
 4148TIP3    H136639   3.525   1.395  18.317 -0.8294 -0.0517  1.5323
 4148TIP3    H236640   3.400   1.315  18.290 -0.7395  0.1551  0.4599
 4149TIP3   OH236641   3.031   7.002  17.176 -0.0128  0.3573 -0.5128
 4149TIP3    H136642   3.096   6.950  17.223 -0.4185  1.0389  0.8410
 4149TIP3    H236643   3.056   7.093  17.195 -1.2056  0.6261 -0.2040
 4150TIP3   OH236644   2.087   5.162  17.682  0.2817  0.3507  0.1847
 4150TIP3    H136645   1.997   5.190  17.662  0.8332  3.1667  1.2138
 4150TIP3    H236646   2.107   5.204  17.766  1.9294 -1.7870  0.9390
 4151TIP3   OH236647   3.213   0.981  18.138 -0.2698 -0.5724  0.0398
 4151TIP3    H136648   3.150   0.917  18.105 -0.1531 -0.4289 -0.4676
 4151TIP3    H236649   3.164   1.064  18.138  0.4275 -0.0918 -2.0993
 4152TIP3   OH236650   6.690   1.441  16.947  0.2677 -0.5296 -0.5334
 4152TIP3    H136651   6.653   1.512  17.000 -0.1711 -0.8919 -0.3449
 4152TIP3    H236652   6.616   1.411  16.893  1.1178  1.0156 -2.6859
 4153TIP3   OH236653   5.124   3.691  17.541  0.1916  0.0212  0.1077
 4153TIP3    H136654   5.079   3.720  17.620 -0.0602 -0.8980  0.3169
 4153TIP3    H236655   5.152   3.772  17.498  1.1285  0.5145  1.5809
 4154TIP3   OH236656   7.407   3.933  16.369  0.1836 -0.2205  0.5774
 4154TIP3    H136657   7.462   3.952  16.294 -0.4950  1.0461  0.3604
 4154TIP3    H236658   7.324   3.978  16.350 -0.6641 -1.4342  1.2310
 4155TIP3   OH236659   6.057   6.712  16.909 -0.1257  0.4560 -0.4741
 4155TIP3    H136660   6.092   6.649  16.971 -0.7185  0.8580  0.2936
 4155TIP3    H236661   6.131   6.768  16.887  0.0488  0.4328  0.0403
 4156TIP3   OH236662   1.724   3.614  16.999 -0.1301 -0.1426  0.1764
 4156TIP3    H136663   1.773   3.696  16.996 -0.6909  0.1642 -1.3302
 4156TIP3    H236664   1.682   3.607  16.913 -0.1637 -1.9632  0.2848
 4157TIP3   OH236665   0.409   6.877  18.069  0.0749  0.3268  0.2817
 4157TIP3    H136666   0.343   6.827  18.021  0.2615  0.5144 -0.1754
 4157TIP3    H236667   0.362   6.910  18.146 -0.4868  0.8099 -0.2512
 4158TIP3   OH236668   0.625   0.606  18.059 -0.3320  0.4204 -0.0084
 4158TIP3    H136669   0.542   0.576  18.095 -0.7225  3.1174  1.5949
 4158TIP3    H236670   0.691   0.573  18.121 -0.3926  0.1371 -0.0897
 4159TIP3   OH236671   0.079   6.306  18.062 -0.0280  0.1226  0.1047
 4159TIP3    H136672   0.043   6.290  17.975 -0.6642  1.6396  0.0615
 4159TIP3    H236673   0.077   6.221  18.105  1.7214 -1.0133 -1.8540
 4160TIP3   OH236674   0.637   7.073  16.712  0.7124 -0.0271  0.2927
 4160TIP3    H136675   0.589   7.093  16.792  1.1753  1.7958  0.1542
 4160TIP3    H236676   0.704   7.141  16.706  2.2083 -1.4844 -0.4337
 4161TIP3   OH236677   6.050   5.450  17.693  0.1609  0.7253 -0.0754
 4161TIP3    H136678   5.965   5.413  17.672  0.7376 -0.3548 -0.5482
 4161TIP3    H236679   6.108   5.421  17.623  1.3576 -0.1395  1.2147
 4162TIP3   OH236680   5.810   7.658  16.591  0.3309  0.6973  0.2498
 4162TIP3    H136681   5.716   7.677  16.590 -0.1924 -1.6175 -0.7832
 4162TIP3    H236682   5.846   7.714  16.522 -0.5748  0.4347 -0.4536
 4163TIP3   OH236683   4.723   5.257  18.082  0.2491  0.3213 -0.3388
 4163TIP3    H136684   4.773   5.306  18.016  1.1413  3.2437  2.2457
 4163TIP3    H236685   4.774   5.177  18.096  1.6789  1.0631 -1.0611
 4164TIP3   OH236686   7.379   4.837  17.982  0.6377  0.5701 -0.2158
 4164TIP3    H136687   7.400   4.865  18.071  2.0152  1.1015 -0.6794
 4164TIP3    H236688   7.390   4.915  17.928 -1.1278  0.4987 -0.7474
 4165TIP3   OH236689   6.724   5.284  18.437 -0.4182 -0.4819  0.4414
 4165TIP3    H136690   6.770   5.308  18.518  0.4228 -1.7634  0.3618
 4165TIP3    H236691   6.789   5.237  18.385 -0.2225  2.2078 -2.0117
 4166TIP3   OH236692   6.136   6.664  17.594 -0.0017 -0.1122  0.0792
 4166TIP3    H136693   6.195   6.702  17.659  1.8653  0.1621 -1.6636
 4166TIP3    H236694   6.089   6.739  17.557  0.1231 -0.0656  0.0133
 4167TIP3   OH236695   4.298   1.416  18.035 -0.0086  0.0773 -0.1330
 4167TIP3    H136696   4.222   1.442  18.086 -2.5204 -1.3440 -2.7887
 4167TIP3    H236697   4.320   1.493  17.983 -1.4284 -0.2095 -1.2383
 4168TIP3   OH236698   7.287   0.505  16.824  0.1939  0.3769  0.1955
 4168TIP3    H136699   7.297   0.597  16.800 -0.6297  0.2906 -0.4948
 4168TIP3    H236700   7.366   0.463  16.789 -0.3892  0.4762 -1.3124
 4169TIP3   OH236701   2.123   2.042  18.149 -0.1974 -0.1441  0.0455
 4169TIP3    H136702   2.185   2.114  18.141 -0.4243  0.0212 -0.2599
 4169TIP3    H236703   2.132   1.992  18.068 -3.0905  2.0131 -1.8172
 4170TIP3   OH236704   0.182   7.028  17.835  0.3256 -0.1041  0.3070
 4170TIP3    H136705   0.230   7.042  17.753 -0.9369 -1.5319 -0.7519
 4170TIP3    H236706   0.189   6.934  17.850 -1.6104 -0.2729  0.4116
 4171TIP3   OH236707   1.886   3.987  18.542 -0.5409  0.4046  0.5041
 4171TIP3    H136708   1.876   3.927  18.468 -0.0207  1.1801 -0.2270
 4171TIP3    H236709   1.825   4.058  18.523  0.9850  1.5875 -0.2543
 4172TIP3   OH236710   1.609   1.557  16.844  0.6271  0.0672  0.0586
 4172TIP3    H136711   1.649   1.544  16.930 -0.5482 -1.0391  0.4609
 4172TIP3    H236712   1.584   1.650  16.844  0.6747  0.0892  0.8939
 4173TIP3   OH236713   0.230   5.819  17.473 -0.4631  0.2604 -0.0701
 4173TIP3    H136714   0.154   5.783  17.428  1.0124 -0.2929 -2.3574
 4173TIP3    H236715   0.303   5.765  17.442  0.9786  1.2478  1.4205
 4174TIP3   OH236716   3.753   0.669  17.520 -0.4386 -0.1734  0.2087
 4174TIP3    H136717   3.686   0.712  17.466 -0.3300  2.2034  1.8119
 4174TIP3    H236718   3.702   0.617  17.582 -0.6832 -0.3351 -0.1192
 4175TIP3   OH236719   0.182   2.506  18.100 -0.6146 -0.1918 -0.4716
 4175TIP3    H136720   0.191   2.475  18.010 -0.6877 -0.1039 -0.5078
 4175TIP3    H236721   0.120   2.578  18.095 -2.0502 -1.3410 -0.0950
 4176TIP3   OH236722   7.052   7.642  18.178 -0.5032 -0.3860 -0.0843
 4176TIP3    H136723   7.104   7.702  18.232 -1.0594 -0.4738  0.5542
 4176TIP3    H236724   7.042   7.688  18.095  0.7255 -0.4354 -0.2802
 4177TIP3   OH236725   3.710   5.470  16.271 -0.3385  0.0054  0.1086
 4177TIP3    H136726   3.761   5.550  16.283 -0.5918 -0.1372  2.5175
 4177TIP3    H236727   3.775   5.402  16.258  0.1399 -0.0656  2.4794
 4178TIP3   OH236728   7.552   6.862  16.488 -0.4243 -0.5999  0.5871
 4178TIP3    H136729   7.595   6.793  16.437 -2.5053 -1.4653 -0.0873
 4178TIP3    H236730   7.491   6.903  16.427  1.9343  3.1347  0.4369
 4179TIP3   OH236731   0.687   2.965  16.893  0.5858  0.0418 -0.0576
 4179TIP3    H136732   0.647   2.889  16.936  0.0149  0.3710 -0.0123
 4179TIP3    H236733   0.756   2.992  16.954 -0.5020  0.7841  0.8939
 4180TIP3   OH236734   4.616   4.838  16.549  0.0351 -0.7158  0.1043
 4180TIP3    H136735   4.707   4.812  16.530  0.8871  2.3150 -0.4661
 4180TIP3    H236736   4.619   4.872  16.638 -0.2333  0.5387 -0.3477
 4181TIP3   OH236737   1.539   5.749  17.643  0.8937  0.4981 -0.0315
 4181TIP3    H136738   1.479   5.756  17.569  0.1394 -2.9817  0.1158
 4181TIP3    H236739   1.484   5.765  17.720  0.4361 -1.1535  0.0148
 4182TIP3   OH236740   5.542   7.006  18.665  0.1148  0.0487  0.0048
 4182TIP3    H136741   5.519   6.967  18.581  0.8051 -0.9701  0.2646
 4182TIP3    H236742   5.598   7.081  18.642 -2.0343  1.5638 -0.5434
 4183TIP3   OH236743   6.570   1.308  18.047  0.0747 -0.5432  0.0767
 4183TIP3    H136744   6.530   1.347  18.125  1.8214 -1.0179  1.2665
 4183TIP3    H236745   6.641   1.368  18.024 -0.0393 -0.7316 -0.7959
 4184TIP3   OH236746   5.539   0.034  16.926 -0.0456 -0.1675 -0.0082
 4184TIP3    H136747   5.540   0.027  16.830 -0.3049  0.9024 -0.1024
 4184TIP3    H236748   5.446   0.039  16.948  0.0171  2.3692  0.0303
 4185TIP3   OH236749   3.007   1.424  17.808 -0.1693 -0.1903 -0.6109
 4185TIP3    H136750   3.042   1.474  17.882  0.4029  0.5344 -1.3601
 4185TIP3    H236751   2.913   1.418  17.826  0.1154 -1.0452  0.7669
 4186TIP3   OH236752   7.443   5.842  17.738 -0.2228  0.0264 -0.9330
 4186TIP3    H136753   7.362   5.830  17.788 -1.1824  1.5485 -2.0352
 4186TIP3    H236754   7.425   5.918  17.683  1.7882  0.0585 -1.5881
 4187TIP3   OH236755   6.078   0.356  16.197 -0.0566 -0.8385 -0.2897
 4187TIP3    H136756   6.082   0.292  16.268  0.5307 -0.0990  0.3707
 4187TIP3    H236757   6.001   0.409  16.218  0.8240  0.1865  0.5530
 4188TIP3   OH236758   6.925   5.612  18.601 -0.2414  0.1951  0.6206
 4188TIP3    H136759   6.911   5.694  18.648 -0.4585  0.8519 -0.5509
 4188TIP3    H236760   6.995   5.631  18.539  2.6362 -1.6566  3.0160
 4189TIP3   OH236761   2.352   6.995  18.149  0.2441  0.3034 -0.0503
 4189TIP3    H136762   2.408   6.918  18.144 -1.5078 -1.0569  0.4561
 4189TIP3    H236763   2.287   6.982  18.079 -1.6033 -0.0012  1.6340
 4190TIP3   OH236764   4.068   0.023  16.482 -1.1306  0.1234  0.4759
 4190TIP3    H136765   4.148  -0.006  16.526 -1.0075  1.5082  1.2479
 4190TIP3    H236766   4.098   0.062  16.400 -1.3380 -2.2256 -0.8015
 4191TIP3   OH236767   5.367   5.605  18.472 -0.0220 -0.2718 -0.6800
 4191TIP3    H136768   5.426   5.667  18.513 -0.8192  0.2726 -0.3363
 4191TIP3    H236769   5.306   5.580  18.541  0.4984 -1.7414 -0.6968
 4192TIP3   OH236770   3.721   3.864  18.178  0.2615  0.5336  0.6152
 4192TIP3    H136771   3.642   3.851  18.126 -0.6824  0.8205  1.9258
 4192TIP3    H236772   3.734   3.959  18.179  0.7035  0.4796  0.3002
 4193TIP3   OH236773   3.984   3.061  17.429  0.7247  0.0337  0.2982
 4193TIP3    H136774   3.930   3.077  17.352  0.7067  0.3356  0.3713
 4193TIP3    H236775   4.074   3.077  17.398  0.9736 -2.1795 -0.2987
 4194TIP3   OH236776   2.026   1.434  17.861  0.3581  0.3081  0.0882
 4194TIP3    H136777   1.981   1.350  17.871  0.4619  0.0951 -1.1045
 4194TIP3    H236778   2.093   1.418  17.795 -0.1326  1.5088 -0.7583
 4195TIP3   OH236779   5.824   4.353  16.797 -0.4587  0.1572 -0.0597
 4195TIP3    H136780   5.901   4.298  16.785 -1.2629 -1.0537  0.1949
 4195TIP3    H236781   5.803   4.385  16.709 -0.1017 -0.0927 -0.2355
 4196TIP3   OH236782   1.542   4.656  17.516 -0.0062 -0.3442  0.4740
 4196TIP3    H136783   1.565   4.733  17.463  1.5383 -0.6418  0.6564
 4196TIP3    H236784   1.618   4.644  17.573  0.1635 -2.5181 -0.1505
 4197TIP3   OH236785   5.308   1.987  17.284 -0.0623 -0.4383 -0.6319
 4197TIP3    H136786   5.384   1.963  17.338  1.6549  0.1647 -2.6146
 4197TIP3    H236787   5.318   1.934  17.205 -1.7139 -0.2937 -0.9700
 4198TIP3   OH236788   1.246   3.582  17.653  0.4715 -0.1788  0.1701
 4198TIP3    H136789   1.249   3.677  17.663 -1.0972 -0.0835 -0.0761
 4198TIP3    H236790   1.167   3.554  17.699  0.4782 -1.2680 -0.4264
 4199TIP3   OH236791   4.734   7.003  16.345 -0.4721 -0.7734  0.3093
 4199TIP3    H136792   4.700   6.927  16.393 -0.9745 -0.3222  0.6811
 4199TIP3    H236793   4.665   7.069  16.352  0.3832  0.0917  0.8863
 4200TIP3   OH236794   1.737   2.520  16.983  0.3099 -0.2400 -0.4925
 4200TIP3    H136795   1.813   2.470  17.012 -0.3739 -1.6050 -1.0134
 4200TIP3    H236796   1.679   2.456  16.943 -1.5644  0.5874  0.7272
 4201TIP3   OH236797   3.721   1.916  16.449 -0.6720 -0.1924 -0.0632
 4201TIP3    H136798   3.665   1.989  16.476  0.3123  1.0146 -1.1553
 4201TIP3    H236799   3.768   1.949  16.372  1.2844 -1.2555  0.5979
 4202TIP3   OH236800   6.159   1.877  16.551  0.5130 -0.0693 -0.4542
 4202TIP3    H136801   6.196   1.942  16.491 -0.0838  0.3852 -0.3420
 4202TIP3    H236802   6.086   1.839  16.502  0.0053  0.3234 -0.0158
 4203TIP3   OH236803   3.542   6.257  16.637 -0.1492  0.3222  0.0977
 4203TIP3    H136804   3.489   6.204  16.576  3.3643 -2.3347 -0.9687
 4203TIP3    H236805   3.600   6.307  16.580  0.8122  0.5097  1.2152
 4204TIP3   OH236806   1.037   0.235  16.888  0.5305  0.7942 -0.7097
 4204TIP3    H136807   1.014   0.264  16.800  0.5506 -0.2727 -1.0738
 4204TIP3    H236808   1.114   0.287  16.910  1.5046 -0.0386 -1.9690
 4205TIP3   OH236809   2.002   4.583  18.672  0.3123  0.0844  0.9948
 4205TIP3    H136810   2.084   4.556  18.715  1.0289 -0.1509 -0.4323
 4205TIP3    H236811   2.030   4.610  18.584 -1.3126 -1.4564 -0.0620
 4206TIP3   OH236812   5.818   5.511  17.560 -0.1708  0.4768  0.4245
 4206TIP3    H136813   5.857   5.569  17.495  1.7685  0.5543  1.5567
 4206TIP3    H236814   5.726   5.505  17.536  0.0226  2.3076 -0.9555
 4207TIP3   OH236815   5.653   0.014  18.621  0.8170  0.0361  0.9362
 4207TIP3    H136816   5.605  -0.061  18.657  1.4253 -0.2460  1.1637
 4207TIP3    H236817   5.695  -0.019  18.542 -0.6142  0.6854 -0.1540
 4208TIP3   OH236818   6.274   1.757  18.382  0.4746 -0.0719  0.3768
 4208TIP3    H136819   6.358   1.760  18.336 -0.7349 -1.6151 -2.1762
 4208TIP3    H236820   6.249   1.849  18.390  1.3052  0.3314 -1.1078
 4209TIP3   OH236821   0.178   4.797  17.271 -0.2103  0.3977 -0.3537
 4209TIP3    H136822   0.221   4.843  17.343  0.9971  1.2442 -1.5808
 4209TIP3    H236823   0.249   4.753  17.224 -1.1656 -1.5616 -0.0820
 4210TIP3   OH236824   6.446   7.379  17.199  0.1253  0.3632 -0.3648
 4210TIP3    H136825   6.433   7.379  17.293 -0.2726 -0.4177 -0.4148
 4210TIP3    H236826   6.485   7.465  17.180 -1.1192  1.1100  0.3188
 4211TIP3   OH236827   6.886   2.259  17.976 -0.4482  0.3163 -0.3941
 4211TIP3    H136828   6.842   2.269  18.061  0.2954  0.0251  0.0386
 4211TIP3    H236829   6.816   2.237  17.915 -0.8185 -0.8114  0.4043
 4212TIP3   OH236830   6.155   6.229  18.091 -0.4646 -0.2598 -0.3089
 4212TIP3    H136831   6.228   6.278  18.131 -0.1573 -0.4907 -0.5864
 4212TIP3    H236832   6.114   6.184  18.165 -0.6918  0.3389 -0.0616
 4213TIP3   OH236833   1.122   5.035  18.105 -0.2083  0.4709 -0.0704
 4213TIP3    H136834   1.123   4.957  18.049  0.3168  0.7453 -0.4622
 4213TIP3    H236835   1.039   5.031  18.151 -0.5956  0.1640 -0.7776
 4214TIP3   OH236836   6.404   3.595  17.842  0.4406 -0.3680 -0.1451
 4214TIP3    H136837   6.482   3.554  17.880 -1.7744 -3.4123  1.5267
 4214TIP3    H236838   6.391   3.549  17.759 -0.8284 -1.6045  0.6997
 4215TIP3   OH236839   4.976   0.796  17.118  0.0216  0.2853 -0.0464
 4215TIP3    H136840   4.904   0.792  17.056 -1.3881  1.4368  1.4321
 4215TIP3    H236841   5.007   0.886  17.115  0.2946  0.2228  0.5190
 4216TIP3   OH236842   6.999   7.641  16.519  0.4318  0.3066  0.6629
 4216TIP3    H136843   6.959   7.640  16.605  0.3022  1.4313  0.6283
 4216TIP3    H236844   7.011   7.734  16.499  1.5096  0.0373 -0.0413
 4217TIP3   OH236845   1.196   0.648  17.038 -0.0576 -0.5125  0.2495
 4217TIP3    H136846   1.274   0.684  17.079 -0.5232  0.1324  0.5779
 4217TIP3    H236847   1.168   0.715  16.976  0.0498 -1.0455 -0.3931
 4218TIP3   OH236848   0.459   2.565  16.946 -0.1292  0.6116  0.0623
 4218TIP3    H136849   0.496   2.480  16.971 -1.5661  0.2414  1.0567
 4218TIP3    H236850   0.531   2.611  16.902  0.7137 -1.0453 -0.3365
 4219TIP3   OH236851   1.933   0.140  17.715  0.5703 -0.3418  0.0949
 4219TIP3    H136852   1.946   0.056  17.759  3.6016  0.2663  0.5498
 4219TIP3    H236853   1.889   0.117  17.632  1.9160 -2.4849 -0.1089
 4220TIP3   OH236854   5.355   7.413  16.798  0.4985 -0.1560 -0.3395
 4220TIP3    H136855   5.332   7.504  16.782 -1.0640 -0.2401  1.0435
 4220TIP3    H236856   5.339   7.369  16.714  0.1140  0.6442 -0.6985
 4221TIP3   OH236857   5.213   1.794  18.818  0.5644  0.1959  0.3558
 4221TIP3    H136858   5.180   1.785  18.907  0.0255  0.2897  0.1689
 4221TIP3    H236859   5.199   1.887  18.796 -0.0850 -0.0079 -0.1243
 4222TIP3   OH236860   3.233   3.996  17.903  0.2706  0.3686 -0.4239
 4222TIP3    H136861   3.204   4.076  17.860 -0.5325 -0.2699 -1.0871
 4222TIP3    H236862   3.329   4.002  17.901  0.2179  1.6679  0.2342
 4223TIP3   OH236863   6.693   3.720  17.711 -0.2080 -0.0926  0.1344
 4223TIP3    H136864   6.746   3.689  17.637 -0.0096  0.3276  0.0927
 4223TIP3    H236865   6.603   3.704  17.685 -0.0973 -1.3703  0.4495
 4224TIP3   OH236866   6.779   6.444  18.331  0.5898  0.3661  0.0010
 4224TIP3    H136867   6.712   6.410  18.271  1.3044  2.0045 -1.8051
 4224TIP3    H236868   6.855   6.387  18.318  0.6518  0.5509 -0.4288
 4225TIP3   OH236869   2.545   6.555  17.117  0.4250  0.0480  0.2765
 4225TIP3    H136870   2.618   6.518  17.168 -0.4202 -0.7377  0.9566
 4225TIP3    H236871   2.481   6.582  17.184 -0.5993 -0.7667 -0.3577
 4226TIP3   OH236872   6.080   1.434  17.903  0.8441  0.0680  0.3792
 4226TIP3    H136873   5.998   1.393  17.874  0.7844  0.9351 -0.7532
 4226TIP3    H236874   6.109   1.380  17.977 -0.8014 -0.1852  0.8785
 4227TIP3   OH236875   1.652   5.468  17.319 -0.6360  0.0061  0.6178
 4227TIP3    H136876   1.574   5.448  17.370 -0.8182  0.5283  0.5412
 4227TIP3    H236877   1.711   5.395  17.337 -0.8634 -0.0308  1.2353
 4228TIP3   OH236878   6.625   1.380  18.574 -0.1680 -0.2558  0.0701
 4228TIP3    H136879   6.639   1.299  18.623  0.6689  1.0060  2.0538
 4228TIP3    H236880   6.569   1.433  18.631 -0.2582  0.7800 -0.9425
 4229TIP3   OH236881   4.049   4.783  18.080 -0.5305  0.0103  0.1224
 4229TIP3    H136882   4.053   4.708  18.020  0.7650  0.1783 -0.0529
 4229TIP3    H236883   4.040   4.744  18.167 -0.2882 -0.3430 -0.0050
 4230TIP3   OH236884   5.366   6.314  16.163 -0.2422 -0.0601  0.1552
 4230TIP3    H136885   5.425   6.293  16.236 -1.8293  0.5631  1.6864
 4230TIP3    H236886   5.394   6.400  16.133  0.1075 -0.1051  0.3475
 4231TIP3   OH236887   1.136   2.911  17.176 -0.4976 -0.7408 -0.8308
 4231TIP3    H136888   1.152   2.995  17.132 -0.0057 -1.2119 -1.5836
 4231TIP3    H236889   1.218   2.862  17.164 -0.5166 -1.0544  0.2420
 4232TIP3   OH236890   4.031   0.340  15.989  0.0857 -0.1117 -0.1802
 4232TIP3    H136891   3.939   0.366  15.993 -0.4681 -1.9814 -0.1111
 4232TIP3    H236892   4.041   0.300  15.903  0.1920 -2.1361  0.7353
 4233TIP3   OH236893   0.206   7.589  17.807  0.1998  0.1699 -0.1238
 4233TIP3    H136894   0.155   7.513  17.778  0.0211  0.1710  0.1937
 4233TIP3    H236895   0.261   7.555  17.878 -0.7413  0.6116  0.8299
 4234TIP3   OH236896   4.757   3.614  18.081 -0.2653  0.4357 -0.8439
 4234TIP3    H136897   4.750   3.629  18.175 -1.3899 -1.9057 -0.4993
 4234TIP3    H236898   4.739   3.700  18.042 -1.2525  1.1247  1.0295
 4235TIP3   OH236899   6.654   1.927  17.789 -0.3495 -0.2929  0.0910
 4235TIP3    H136900   6.691   1.841  17.768  0.0790 -0.0231 -0.3047
 4235TIP3    H236901   6.703   1.957  17.865 -1.5473 -1.0470  1.1975
 4236TIP3   OH236902   1.807   1.958  16.967 -0.4452 -0.5333 -0.1091
 4236TIP3    H136903   1.848   1.927  16.886 -1.4207  0.1389 -0.8829
 4236TIP3    H236904   1.848   1.905  17.036  0.6419 -0.8951 -0.9907
 4237TIP3   OH236905   6.752   3.459  17.497  0.2030 -0.0675  0.1017
 4237TIP3    H136906   6.662   3.445  17.468 -0.1660 -1.6156  1.7931
 4237TIP3    H236907   6.805   3.440  17.419 -0.8874 -0.0965 -0.6615
 4238TIP3   OH236908   6.924   2.374  18.269  0.3414  0.6798 -0.3580
 4238TIP3    H136909   6.844   2.411  18.233  0.7609  0.2313 -1.8050
 4238TIP3    H236910   6.896   2.291  18.309  0.0286  0.6985 -0.5328
 4239TIP3   OH236911   0.932   7.266  17.343  0.3746  0.1889 -0.1018
 4239TIP3    H136912   0.881   7.342  17.369 -0.5222 -1.1510  2.3933
 4239TIP3    H236913   1.001   7.258  17.409  0.3128 -1.2783 -0.1720
 4240TIP3   OH236914   5.631   4.713  17.324  0.2754  0.6609  0.1914
 4240TIP3    H136915   5.664   4.767  17.252  0.9725  0.9204  0.6925
 4240TIP3    H236916   5.702   4.714  17.389  0.3572 -0.9531  0.1683
 4241TIP3   OH236917   1.400   6.767  18.030 -0.6891  0.1320  0.6230
 4241TIP3    H136918   1.491   6.774  17.999 -0.5653 -0.2873  0.8783
 4241TIP3    H236919   1.380   6.854  18.065  0.2127 -0.2345  2.1484
 4242TIP3   OH236920   2.345   5.946  18.289  0.5211  0.1645  0.1338
 4242TIP3    H136921   2.374   6.037  18.282 -0.5176  0.7072  2.1267
 4242TIP3    H236922   2.266   5.941  18.235  1.0304  0.2171 -0.6269
 4243TIP3   OH236923   3.255   3.071  18.341 -0.1877  0.3049  0.0427
 4243TIP3    H136924   3.189   3.020  18.390 -0.9483  1.3348  0.1237
 4243TIP3    H236925   3.338   3.029  18.363 -0.8212 -1.1517 -0.2143
 4244TIP3   OH236926   7.621   6.200  17.811  0.7171 -0.3512 -0.0310
 4244TIP3    H136927   7.593   6.163  17.894 -0.0655 -0.2035 -0.2229
 4244TIP3    H236928   7.671   6.129  17.769  0.2433 -0.7830  0.1193
 4245TIP3   OH236929   4.848   1.916  19.078 -0.5740 -0.4365  0.3188
 4245TIP3    H136930   4.752   1.917  19.075 -0.5882  1.4080  0.1406
 4245TIP3    H236931   4.874   1.994  19.028  1.0365 -1.1308  0.0355
 4246TIP3   OH236932   4.162   6.428  17.166 -0.0025 -0.1863 -0.0714
 4246TIP3    H136933   4.235   6.413  17.226 -0.8304 -0.1649  0.9689
 4246TIP3    H236934   4.096   6.471  17.220 -1.0536 -0.8500 -0.8157
 4247TIP3   OH236935   4.759   6.802  18.539 -0.1752 -0.0963  0.1723
 4247TIP3    H136936   4.847   6.826  18.511 -0.2284  0.7262  0.6965
 4247TIP3    H236937   4.701   6.846  18.476 -0.2561  0.7683  0.8344
 4248TIP3   OH236938   2.627   6.656  16.497  0.4066  0.3010 -0.1809
 4248TIP3    H136939   2.703   6.708  16.526 -0.0031  0.7986  0.0245
 4248TIP3    H236940   2.647   6.633  16.407  1.2294 -0.3725  0.1516
 4249TIP3   OH236941   0.062   6.283  16.351  0.2043 -0.3019 -0.2701
 4249TIP3    H136942   0.151   6.264  16.381  0.4532 -0.6962 -1.1939
 4249TIP3    H236943   0.036   6.203  16.305 -0.2040  0.2242 -0.9617
 4250TIP3   OH236944   0.108   5.581  17.351 -0.4701 -0.0629 -0.8191
 4250TIP3    H136945   0.049   5.588  17.276  0.5716  0.8357 -1.6051
 4250TIP3    H236946   0.191   5.551  17.312 -0.7018 -2.6168  0.4248
 4251TIP3   OH236947   0.281   2.921  16.503  0.1601  0.2231  0.2806
 4251TIP3    H136948   0.276   2.863  16.579 -0.0642  0.8100  0.7230
 4251TIP3    H236949   0.375   2.935  16.490  0.2157 -0.2436  0.1597
 4252TIP3   OH236950   2.716   1.875  17.725 -0.4884  0.4166  0.1455
 4252TIP3    H136951   2.630   1.834  17.733 -1.6496  2.1166 -2.5664
 4252TIP3    H236952   2.775   1.803  17.704 -1.8873 -0.3482 -1.3170
 4253TIP3   OH236953   6.281   1.317  18.516 -0.3036 -0.0453  0.0517
 4253TIP3    H136954   6.261   1.355  18.431  0.9277  1.3833  0.3524
 4253TIP3    H236955   6.288   1.223  18.499  0.1029  0.2331 -1.4692
 4254TIP3   OH236956   3.562   5.424  17.986 -0.6625 -0.3070 -0.2392
 4254TIP3    H136957   3.642   5.468  18.014 -0.5273 -1.9472  2.2080
 4254TIP3    H236958   3.528   5.479  17.915  1.3310  1.7357  0.2822
 4255TIP3   OH236959   6.623   0.779  18.276  0.1581 -0.3296  0.6154
 4255TIP3    H136960   6.540   0.746  18.241 -0.4521 -0.2692  1.9455
 4255TIP3    H236961   6.600   0.817  18.360  1.2530  1.3062  0.2203
 4256TIP3   OH236962   1.644   1.282  17.654 -0.4331 -0.1450 -0.0021
 4256TIP3    H136963   1.631   1.377  17.653  0.5062 -0.0036 -0.2259
 4256TIP3    H236964   1.705   1.267  17.726 -2.6293 -0.9072  1.8084
 4257TIP3   OH236965   7.545   2.272  18.453  0.0192 -0.2776  0.1161
 4257TIP3    H136966   7.460   2.239  18.424 -0.8121  2.9086 -1.5174
 4257TIP3    H236967   7.584   2.309  18.374  2.0256  0.1534  1.2619
 4258TIP3   OH236968   2.869   2.586  18.323 -0.0877  0.3811  0.1373
 4258TIP3    H136969   2.796   2.640  18.293  0.1748  0.6659 -0.0100
 4258TIP3    H236970   2.919   2.644  18.380  0.5702  0.5249 -0.5584
 4259TIP3   OH236971   1.600   1.212  16.735 -0.3489 -0.2080 -0.2272
 4259TIP3    H136972   1.545   1.288  16.716 -1.3403 -0.4543  1.4556
 4259TIP3    H236973   1.686   1.249  16.754 -0.8737  0.5449  0.7878
 4260TIP3   OH236974   3.704   3.678  18.511 -0.1316  0.3035 -0.3984
 4260TIP3    H136975   3.642   3.732  18.461 -0.1177 -0.5830 -1.4043
 4260TIP3    H236976   3.716   3.600  18.457 -0.1089 -0.6956  1.0061
 4261TIP3   OH236977   1.373   3.006  17.994 -0.1146 -0.0927  0.2931
 4261TIP3    H136978   1.309   3.077  17.987 -1.2792 -1.0856  0.4224
 4261TIP3    H236979   1.445   3.033  17.938 -1.4165  0.2890 -1.2855
 4262TIP3   OH236980   4.192   2.393  17.980  0.1922  0.3652 -0.3507
 4262TIP3    H136981   4.246   2.400  17.901 -0.8409  2.8528 -0.9306
 4262TIP3    H236982   4.106   2.365  17.948  0.6454 -2.1296  0.3930
 4263TIP3   OH236983   4.842   3.298  17.642  0.0038 -0.2776 -0.3087
 4263TIP3    H136984   4.882   3.342  17.718 -0.2032  0.8284 -0.8222
 4263TIP3    H236985   4.749   3.295  17.663  0.0089 -0.3959 -0.3075
 4264TIP3   OH236986   4.717   7.456  16.691 -0.5047  0.6292 -0.0550
 4264TIP3    H136987   4.757   7.540  16.713  0.7587  0.0366  0.0325
 4264TIP3    H236988   4.665   7.433  16.768  0.9312  0.3040  0.8523
 4265TIP3   OH236989   3.438   7.264  16.412 -0.1880 -0.5687  0.8481
 4265TIP3    H136990   3.403   7.261  16.323 -0.5314 -2.1979  1.0077
 4265TIP3    H236991   3.479   7.350  16.419  2.6960 -1.5165 -1.9559
 4266TIP3   OH236992   1.562   3.607  17.207  0.5434 -0.1342 -0.6300
 4266TIP3    H136993   1.600   3.543  17.266 -0.5446  0.1632  0.4421
 4266TIP3    H236994   1.622   3.611  17.133  1.2842 -1.4435 -0.1261
 4267TIP3   OH236995   0.063   2.764  18.123  0.2835  0.3468  0.2027
 4267TIP3    H136996   0.085   2.853  18.093 -2.5261  1.5220  1.2493
 4267TIP3    H236997   0.033   2.776  18.213  0.6941 -1.8640  0.7001
 4268TIP3   OH236998   5.032   4.728  18.556  0.0966 -0.4864  0.3479
 4268TIP3    H136999   5.099   4.670  18.520  0.7014 -0.0250  0.7098
 4268TIP3    H237000   5.059   4.742  18.647  1.5782  2.6197 -0.4615
 4269TIP3   OH237001   6.793   7.481  17.017  0.0670  0.3285 -0.4019
 4269TIP3    H137002   6.728   7.416  16.993 -0.4348  0.4312  0.6149
 4269TIP3    H237003   6.868   7.462  16.960  0.7320 -2.4603  1.2121
 4270TIP3   OH237004   1.984   0.709  18.232 -0.5788 -0.1670  0.2687
 4270TIP3    H137005   2.076   0.729  18.245 -1.3804  2.8680  2.6623
 4270TIP3    H237006   1.971   0.712  18.137  1.6021  0.2303 -0.0511
 4271TIP3   OH237007   0.116   4.727  18.195  0.2018  0.4112 -0.4769
 4271TIP3    H137008   0.150   4.655  18.249  1.6430  1.1801 -0.2908
 4271TIP3    H237009   0.067   4.684  18.125  0.7890 -0.7391 -0.2065
 4272TIP3   OH237010   5.076   3.357  16.396 -0.4167  0.1045 -0.0240
 4272TIP3    H137011   5.141   3.323  16.457 -0.2977  0.2816 -0.0513
 4272TIP3    H237012   5.127   3.411  16.335 -0.2957 -1.2979 -1.2174
 4273TIP3   OH237013   6.340   1.582  16.538  0.3134  0.0482 -0.1461
 4273TIP3    H137014   6.378   1.580  16.626  1.7566 -0.8238 -0.7516
 4273TIP3    H237015   6.326   1.489  16.517 -2.0720  0.3240 -0.0178
 4274TIP3   OH237016   5.203   6.706  18.502 -0.0553 -0.1303  0.1953
 4274TIP3    H137017   5.214   6.778  18.564  0.4482  0.5145 -0.6153
 4274TIP3    H237018   5.266   6.725  18.432 -1.5516 -0.0702 -1.2038
 4275TIP3   OH237019   5.508   3.524  16.728 -0.7575  0.4430 -0.1232
 4275TIP3    H137020   5.550   3.473  16.660 -0.4551  1.0234 -0.3754
 4275TIP3    H237021   5.579   3.548  16.788 -0.8420  0.8136 -0.1670
 4276TIP3   OH237022   1.598   0.736  18.595 -0.1033  0.4766 -0.0908
 4276TIP3    H137023   1.667   0.778  18.646 -0.0684  0.8332 -0.4258
 4276TIP3    H237024   1.576   0.657  18.645  0.7031  0.2399 -0.0971
 4277TIP3   OH237025   4.503   3.284  16.264  0.7548 -0.4070 -0.0995
 4277TIP3    H137026   4.516   3.302  16.358  0.8964  1.4455 -0.4283
 4277TIP3    H237027   4.462   3.198  16.262 -2.1926  0.7665  1.8891
 4278TIP3   OH237028   3.019   7.026  16.375  0.0557  0.0242 -0.7498
 4278TIP3    H137029   3.063   7.009  16.458  1.4883  2.1873 -0.9732
 4278TIP3    H237030   2.949   6.962  16.371 -0.2901  0.0850  2.2920
 4279TIP3   OH237031   7.400   0.166  18.803 -0.0600 -0.1757 -0.6874
 4279TIP3    H137032   7.492   0.170  18.829  0.1902 -1.2751 -1.3521
 4279TIP3    H237033   7.401   0.126  18.716 -0.9544  2.2766 -1.9434
 4280TIP3   OH237034   1.097   3.901  17.309 -0.2600 -0.3008  0.3294
 4280TIP3    H137035   1.070   3.850  17.233 -0.2018 -0.7337  0.5979
 4280TIP3    H237036   1.027   3.965  17.321 -1.3126 -1.5777  1.1743
 4281TIP3   OH237037   5.480   4.182  17.131 -0.3674 -0.4002 -0.3043
 4281TIP3    H137038   5.484   4.270  17.094 -0.2205 -0.9506 -1.6478
 4281TIP3    H237039   5.528   4.127  17.069  0.2075 -1.3081  0.9031
 4282TIP3   OH237040   6.680   3.822  18.163 -0.0214 -0.4006  0.0283
 4282TIP3    H137041   6.728   3.769  18.100  0.7594  1.6710 -1.2170
 4282TIP3    H237042   6.601   3.848  18.116  0.7093  1.4085 -0.2783
 4283TIP3   OH237043   4.365   5.930  18.507 -0.0561 -0.0765 -0.8908
 4283TIP3    H137044   4.305   5.889  18.444 -0.0204  0.1797 -1.0951
 4283TIP3    H237045   4.380   6.018  18.471 -0.1616  0.1264 -0.4422
 4284TIP3   OH237046   1.276   1.134  16.721 -0.2445  0.2848  0.4092
 4284TIP3    H137047   1.318   1.088  16.794  1.4632 -0.5589 -1.0128
 4284TIP3    H237048   1.306   1.224  16.730  1.5716 -0.2059 -0.2957
 4285TIP3   OH237049   7.410   6.195  18.852 -0.1153  0.3111  0.5677
 4285TIP3    H137050   7.344   6.259  18.826 -2.1295 -1.4319  1.1789
 4285TIP3    H237051   7.413   6.200  18.948  1.8174  1.4204  0.5142
 4286TIP3   OH237052   1.372   5.152  16.908  0.4460 -0.4349 -0.4640
 4286TIP3    H137053   1.403   5.117  16.824  0.4004 -1.6065 -0.0121
 4286TIP3    H237054   1.306   5.217  16.884  1.2353  0.0622 -1.3634
 4287TIP3   OH237055   1.584   0.764  18.310 -0.2768  0.5526 -0.2554
 4287TIP3    H137056   1.495   0.756  18.276 -0.4840  1.5749  0.0131
 4287TIP3    H237057   1.582   0.718  18.394 -0.6672  0.9344 -0.0541
 4288TIP3   OH237058   2.645   6.103  17.564 -0.5641  0.4526 -0.2259
 4288TIP3    H137059   2.569   6.154  17.537 -0.9850  0.8991  1.6466
 4288TIP3    H237060   2.667   6.137  17.651 -0.1274 -1.7479  0.5908
 4289TIP3   OH237061   1.024   2.495  16.654 -0.0264 -0.2582 -0.1069
 4289TIP3    H137062   0.987   2.438  16.587 -2.8308  0.5920  0.6111
 4289TIP3    H237063   1.016   2.583  16.616  0.0058  0.0693  0.6436
 4290TIP3   OH237064   0.732   7.151  18.162  0.2312 -0.6852 -0.4089
 4290TIP3    H137065   0.653   7.204  18.170  1.2037  0.9654 -1.2463
 4290TIP3    H237066   0.707   7.079  18.103 -0.3398  0.4807 -1.6435
 4291TIP3   OH237067   1.748   6.383  18.168 -0.0754 -0.0809  0.1405
 4291TIP3    H137068   1.741   6.456  18.106 -0.5742 -1.6740 -1.7799
 4291TIP3    H237069   1.724   6.305  18.117 -0.2495 -1.5296  2.2823
 4292TIP3   OH237070   2.245   3.329  18.068 -0.0979  0.1759  0.0897
 4292TIP3    H137071   2.160   3.370  18.052  1.0441  2.1939 -1.1479
 4292TIP3    H237072   2.308   3.384  18.022  1.7521 -2.0991 -0.3155
 4293TIP3   OH237073   3.311   7.437  17.725 -0.4182  0.4682  0.1441
 4293TIP3    H137074   3.375   7.507  17.737 -0.8333  0.8475  0.1879
 4293TIP3    H237075   3.355   7.358  17.757 -0.3044  0.8860  1.0713
 4294TIP3   OH237076   3.394   1.146  18.528  0.1199 -0.0078 -0.1795
 4294TIP3    H137077   3.365   1.177  18.614 -0.2543 -1.6060  0.3075
 4294TIP3    H237078   3.489   1.134  18.539  0.0858 -0.1318 -0.0037
 4295TIP3   OH237079   0.569   7.678  18.845 -0.1733 -0.4165 -0.1661
 4295TIP3    H137080   0.482   7.710  18.820 -0.1869 -0.5501 -0.2922
 4295TIP3    H237081   0.565   7.583  18.829 -0.4958 -0.6620  1.2207
 4296TIP3   OH237082   0.742   1.076  16.577  0.0642 -0.2651 -0.2018
 4296TIP3    H137083   0.827   1.081  16.620  0.1191 -0.8200 -0.2417
 4296TIP3    H237084   0.729   1.163  16.538  0.8084 -0.3126 -0.5699
 4297TIP3   OH237085   0.992   1.146  17.718 -0.1637 -0.0001 -0.3096
 4297TIP3    H137086   0.983   1.051  17.725  1.4034 -0.4531 -2.8970
 4297TIP3    H237087   1.017   1.175  17.805 -0.1864 -2.0377  0.4121
 4298TIP3   OH237088   7.501   1.600  16.756  0.3349 -0.1740  0.6098
 4298TIP3    H137089   7.550   1.593  16.674  0.5912  0.7794  0.6631
 4298TIP3    H237090   7.445   1.677  16.744  0.9876  0.4810  1.6321
 4299TIP3   OH237091   0.353   2.753  17.778 -0.4066  0.3562  0.1765
 4299TIP3    H137092   0.265   2.729  17.807 -0.2155 -0.4853  0.0872
 4299TIP3    H237093   0.409   2.734  17.853 -0.4548  2.1278  0.7005
 4300TIP3   OH237094   3.414   1.263  18.779  0.0535  0.1891  0.3226
 4300TIP3    H137095   3.488   1.205  18.797 -0.7048 -0.4707  1.4328
 4300TIP3    H237096   3.387   1.295  18.865  0.7986  2.7008 -0.2799
 4301TIP3   OH237097   6.920   5.197  17.137 -0.4296 -0.3674 -0.4512
 4301TIP3    H137098   7.001   5.164  17.177 -1.6920 -1.1777  1.6535
 4301TIP3    H237099   6.945   5.280  17.097  1.0981  0.3555  1.7613
 4302TIP3   OH237100   2.855   2.827  17.597  0.2710 -0.4772 -0.0591
 4302TIP3    H137101   2.857   2.780  17.680 -0.0477 -1.8457 -0.8085
 4302TIP3    H237102   2.929   2.792  17.548  0.9730  0.9263 -0.0628
 4303TIP3   OH237103   7.277   6.782  16.639  0.2936 -0.0068 -0.6475
 4303TIP3    H137104   7.247   6.708  16.588 -0.7755 -0.3957  0.5108
 4303TIP3    H237105   7.373   6.776  16.636  0.2615 -0.1274 -2.3957
 4304TIP3   OH237106   3.735   0.376  16.837 -0.3259  0.5484  0.2018
 4304TIP3    H137107   3.660   0.436  16.835 -0.4097  0.4992  1.0958
 4304TIP3    H237108   3.701   0.295  16.798 -0.5240  0.7553 -0.0594
 4305TIP3   OH237109   2.620   3.651  16.157  0.0017 -0.2055 -0.2847
 4305TIP3    H137110   2.545   3.652  16.216  0.5120 -0.8871  0.4026
 4305TIP3    H237111   2.689   3.696  16.206  0.8701 -2.0568  0.2939
 4306TIP3   OH237112   2.880   1.318  19.121 -0.4656 -0.7721 -0.0927
 4306TIP3    H137113   2.969   1.299  19.152 -0.6296 -1.0705  0.2039
 4306TIP3    H237114   2.868   1.411  19.138 -0.1644 -0.7029 -0.2507
 4307TIP3   OH237115   5.187   1.039  17.275 -0.0251 -0.1496  0.4433
 4307TIP3    H137116   5.235   0.958  17.291 -0.0272 -0.5088 -1.2006
 4307TIP3    H237117   5.202   1.092  17.353 -0.7359 -2.0537  1.9570
 4308TIP3   OH237118   4.494   5.819  17.584 -0.2139 -0.0365  0.0442
 4308TIP3    H137119   4.439   5.820  17.506 -1.3311 -2.1334  0.7242
 4308TIP3    H237120   4.467   5.898  17.632 -1.1668  0.0633 -0.6136
 4309TIP3   OH237121   2.818   5.111  18.791  0.4024 -0.0748 -0.0431
 4309TIP3    H137122   2.798   5.017  18.785  1.7404 -0.3240 -0.8681
 4309TIP3    H237123   2.789   5.135  18.879  0.2233 -1.3041  0.2612
 4310TIP3   OH237124   6.833   1.437  18.118 -0.4302  0.5604 -0.0039
 4310TIP3    H137125   6.784   1.456  18.198 -1.4656 -0.6229 -0.3261
 4310TIP3    H237126   6.843   1.523  18.075 -1.4106  0.9551  0.5283
 4311TIP3   OH237127   2.071   0.815  18.571  0.3398 -0.4768 -0.0359
 4311TIP3    H137128   2.034   0.903  18.582 -1.5413 -1.3955  1.7707
 4311TIP3    H237129   2.052   0.793  18.480  0.5359  0.8582 -0.4165
 4312TIP3   OH237130   6.525   0.776  18.565  0.1439  0.1049  0.5734
 4312TIP3    H137131   6.510   0.685  18.589 -2.0857  0.4143  0.5762
 4312TIP3    H237132   6.489   0.827  18.638  1.9049  1.0278  0.8613
 4313TIP3   OH237133   0.021   0.172  16.943 -0.0707 -0.4518  0.0076
 4313TIP3    H137134  -0.060   0.163  16.894 -0.4618 -1.6894  0.8481
 4313TIP3    H237135  -0.004   0.161  17.034  1.2559 -2.5497  0.1727
 4314TIP3   OH237136   0.611   4.248  17.786 -0.4931  0.3625  0.5210
 4314TIP3    H137137   0.532   4.199  17.764  1.6036 -2.2082 -2.1386
 4314TIP3    H237138   0.600   4.333  17.744 -1.9803  0.2091  0.5694
 4315TIP3   OH237139   2.421   3.547  18.296  0.4742  0.5004 -0.2943
 4315TIP3    H137140   2.415   3.531  18.390  1.0558 -0.0136 -0.3363
 4315TIP3    H237141   2.338   3.515  18.260  1.4150 -2.1438 -0.3145
 4316TIP3   OH237142   5.303   4.696  16.326  0.2451 -0.2231  0.1533
 4316TIP3    H137143   5.394   4.694  16.295 -0.3110 -1.2044 -1.5818
 4316TIP3    H237144   5.271   4.783  16.301  0.1929 -0.5364 -0.9368
 4317TIP3   OH237145   2.018   5.972  18.287  0.3861 -0.4521 -0.3315
 4317TIP3    H137146   1.943   5.916  18.263  0.4872 -0.6971 -0.0734
 4317TIP3    H237147   2.042   6.015  18.204 -0.1415 -0.2444 -0.3864
 4318TIP3   OH237148   3.340   5.924  18.505  0.2857  0.5308  0.2485
 4318TIP3    H137149   3.393   5.859  18.550  0.4017  0.6092  0.2273
 4318TIP3    H237150   3.390   5.945  18.426 -0.1847 -0.0134 -0.1972
 4319TIP3   OH237151   1.393   5.759  17.416  0.0951  0.2216  0.5710
 4319TIP3    H137152   1.379   5.688  17.353 -2.3639  1.7425 -0.7707
 4319TIP3    H237153   1.307   5.802  17.423  1.1155  2.1374  2.4632
 4320TIP3   OH237154   6.416   7.597  16.069  0.1207 -0.2735 -0.3016
 4320TIP3    H137155   6.379   7.524  16.019 -1.1159  1.9863 -2.9929
 4320TIP3    H237156   6.370   7.674  16.036  2.0805  1.8863  1.6405
 4321TIP3   OH237157   0.024   3.470  16.899  0.4731  0.6838  0.4739
 4321TIP3    H137158   0.091   3.402  16.890 -0.2039  0.2173 -1.3763
 4321TIP3    H237159   0.015   3.481  16.994  0.8073 -1.6080  0.8289
 4322TIP3   OH237160   1.116   1.446  16.666  0.0927 -0.0353  0.4996
 4322TIP3    H137161   1.027   1.481  16.671  0.3961  0.7030  0.9724
 4322TIP3    H237162   1.132   1.433  16.572 -1.0281 -1.5903  0.4857
 4323TIP3   OH237163   6.584   4.792  18.474  0.2806 -0.3139  0.0421
 4323TIP3    H137164   6.607   4.738  18.398 -0.6027  0.5436 -0.8585
 4323TIP3    H237165   6.653   4.858  18.478  0.6891 -0.7565  0.3965
 4324TIP3   OH237166   6.228   0.849  17.012 -0.6366 -0.1038 -0.3308
 4324TIP3    H137167   6.158   0.784  17.013 -0.0151 -0.8124 -1.2858
 4324TIP3    H237168   6.185   0.931  17.038 -1.9955 -0.3474 -1.6891
 4325TIP3   OH237169   5.297   0.382  17.706 -0.2315 -0.5580  0.8616
 4325TIP3    H137170   5.262   0.471  17.711 -0.0491 -0.5305  1.7722
 4325TIP3    H237171   5.221   0.329  17.681 -0.2746 -0.1150  0.0196
 4326TIP3   OH237172   6.368   4.837  16.109 -0.2944  0.0231 -0.1548
 4326TIP3    H137173   6.370   4.756  16.058 -1.5444  0.3455 -0.7704
 4326TIP3    H237174   6.296   4.824  16.171  0.5935  0.0156  0.8987
 4327TIP3   OH237175   6.571   3.582  18.280 -0.2287 -0.6290  0.4304
 4327TIP3    H137176   6.632   3.648  18.248 -1.5674 -1.0093 -3.4707
 4327TIP3    H237177   6.625   3.504  18.294  0.4260 -0.7632 -2.2896
 4328TIP3   OH237178   3.530   0.125  16.805  0.0136  0.6870 -0.2752
 4328TIP3    H137179   3.462   0.178  16.847 -1.7075 -1.4408 -0.1950
 4328TIP3    H237180   3.507   0.125  16.712  0.1771  0.3387 -0.3181
 4329TIP3   OH237181   3.080   2.640  16.794 -0.4054 -0.8022  0.1188
 4329TIP3    H137182   3.089   2.671  16.704 -2.2141  0.9282  0.4728
 4329TIP3    H237183   3.117   2.710  16.848 -1.7127 -0.6122  0.8132
 4330TIP3   OH237184   2.082   7.489  18.457 -0.3232  0.3791  0.2744
 4330TIP3    H137185   2.170   7.453  18.466  1.0189  2.9968 -1.2488
 4330TIP3    H237186   2.045   7.443  18.381  0.4157  0.4777 -0.1528
 4331TIP3   OH237187   3.697   7.312  18.487  0.9831  0.0833 -0.0148
 4331TIP3    H137188   3.771   7.313  18.426  0.9571  1.4014 -0.0429
 4331TIP3    H237189   3.691   7.221  18.515  2.0168 -0.2278 -0.7413
 4332TIP3   OH237190   7.267   6.922  17.291  0.0701  0.1902 -0.2086
 4332TIP3    H137191   7.177   6.905  17.261 -0.4453  1.7948  0.3641
 4332TIP3    H237192   7.288   7.008  17.255  0.9673  0.3263  0.6197
 4333TIP3   OH237193   4.380   1.589  18.939  0.1195  0.7247  0.2626
 4333TIP3    H137194   4.436   1.514  18.961  1.0378  1.3967  0.2528
 4333TIP3    H237195   4.425   1.632  18.867 -1.8346 -0.3123 -1.7205
 4334TIP3   OH237196   3.186   0.658  16.875  0.5596 -0.1479  0.2008
 4334TIP3    H137197   3.275   0.677  16.905  0.5052 -0.6985  0.7108
 4334TIP3    H237198   3.197   0.588  16.811  0.6134  0.6270 -0.6620
 4335TIP3   OH237199   3.756   5.721  17.817  0.3191 -0.1074 -0.4647
 4335TIP3    H137200   3.780   5.638  17.858 -1.6887 -0.6103 -0.1736
 4335TIP3    H237201   3.748   5.782  17.891 -0.7528 -0.3549 -0.3517
 4336TIP3   OH237202   0.201   4.696  18.530  0.4478 -0.1848  0.0742
 4336TIP3    H137203   0.187   4.712  18.623 -1.5905  0.6626 -0.3211
 4336TIP3    H237204   0.265   4.762  18.504  2.1912 -1.3621  1.1023
 4337TIP3   OH237205   3.905   3.952  17.202 -0.1839  0.2881  0.1488
 4337TIP3    H137206   3.864   3.868  17.225  0.6341  0.3139  1.8971
 4337TIP3    H237207   3.992   3.947  17.241  0.7761  1.0093 -1.8152
 4338TIP3   OH237208   6.391   1.693  17.183 -0.6036 -0.3346 -0.1935
 4338TIP3    H137209   6.485   1.686  17.168 -0.4739  0.5804  0.1293
 4338TIP3    H237210   6.351   1.660  17.102  0.0395  1.7813 -1.4397
 4339TIP3   OH237211   4.228   2.309  18.235 -0.1727 -0.0361  0.4176
 4339TIP3    H137212   4.227   2.327  18.141 -0.6852  0.1552  0.4606
 4339TIP3    H237213   4.272   2.385  18.274 -0.8138  0.3389  0.4258
 4340TIP3   OH237214   0.121   1.928  18.311 -0.4169  0.3140 -0.1696
 4340TIP3    H137215   0.109   1.957  18.402 -1.2487  0.9907 -0.4808
 4340TIP3    H237216   0.216   1.925  18.299 -0.2816  2.0222  0.1691
 4341TIP3   OH237217   3.684   2.194  18.575 -0.2350 -0.1341  0.3156
 4341TIP3    H137218   3.664   2.102  18.587  2.1140 -1.0145 -1.6446
 4341TIP3    H237219   3.690   2.205  18.480 -2.6427  2.6312  0.3314
 4342TIP3   OH237220   3.304   1.285  16.155  0.0107 -0.2231  0.6602
 4342TIP3    H137221   3.342   1.373  16.161 -1.0143  0.2674  0.2402
 4342TIP3    H237222   3.240   1.291  16.085  1.4158 -1.8959 -0.8604
 4343TIP3   OH237223   6.251   5.216  18.484  0.2637 -0.5653  0.2414
 4343TIP3    H137224   6.209   5.155  18.423 -0.4050  1.5311 -1.5424
 4343TIP3    H237225   6.329   5.169  18.515 -1.1035 -2.9407  0.3376
 4344TIP3   OH237226   7.050   4.530  16.080  0.2758 -0.0852 -0.2030
 4344TIP3    H137227   7.008   4.588  16.145  0.5534  0.7250 -0.7276
 4344TIP3    H237228   6.977   4.491  16.033  0.0741 -0.5192  0.4543
 4345TIP3   OH237229   0.907   6.394  18.988  0.2802 -0.1780 -0.4119
 4345TIP3    H137230   0.975   6.460  19.000  0.7043 -0.4916 -1.0011
 4345TIP3    H237231   0.852   6.401  19.066  0.6696  0.4540 -0.1876
 4346TIP3   OH237232   0.825   2.196  16.596 -0.0075 -0.3714 -0.4863
 4346TIP3    H137233   0.866   2.126  16.545  0.9177 -0.5881  0.5079
 4346TIP3    H237234   0.823   2.271  16.537 -0.0759 -0.9492 -1.2318
 4347TIP3   OH237235   6.772   3.771  17.300 -0.4097  0.3131  0.2182
 4347TIP3    H137236   6.708   3.702  17.284  0.1624 -0.6208  1.8286
 4347TIP3    H237237   6.734   3.848  17.257  0.1100 -1.4379 -3.9208
 4348TIP3   OH237238   6.481   0.977  17.647  0.5129 -0.5029 -0.6291
 4348TIP3    H137239   6.399   0.947  17.686  0.8018 -1.9566 -1.0802
 4348TIP3    H237240   6.507   1.052  17.700 -0.9619 -0.1889 -0.3185
 4349TIP3   OH237241   4.925   0.587  16.144  0.0774 -0.2808 -0.0301
 4349TIP3    H137242   4.859   0.652  16.122 -0.3335 -0.7207 -0.0923
 4349TIP3    H237243   4.995   0.638  16.186 -1.1686 -0.0660  1.9031
 4350TIP3   OH237244   6.873   6.011  16.378  0.1338  0.3510  0.5055
 4350TIP3    H137245   6.925   5.932  16.359 -0.5156  0.2269 -0.9131
 4350TIP3    H237246   6.936   6.074  16.412  1.6084  0.7142 -2.5088
 4351TIP3   OH237247   5.430   7.269  17.314  0.3215 -0.3383  0.4846
 4351TIP3    H137248   5.520   7.290  17.291  0.8820 -2.5959  0.3691
 4351TIP3    H237249   5.381   7.350  17.297  1.8077  0.0975 -2.3949
 4352TIP3   OH237250   3.575   3.330  16.017 -0.4350 -0.1494 -0.1211
 4352TIP3    H137251   3.661   3.337  15.975 -0.6213  3.2039 -0.2562
 4352TIP3    H237252   3.593   3.335  16.110 -0.4402  1.2887 -0.1663
 4353TIP3   OH237253   3.039   2.303  18.989 -0.4714 -0.1376  0.1499
 4353TIP3    H137254   3.036   2.356  18.909  1.4403 -1.0748 -0.5920
 4353TIP3    H237255   3.118   2.332  19.034 -1.4207  0.2288  1.6359
 4354TIP3   OH237256   5.496   3.754  17.353 -0.0725  0.0320 -0.3843
 4354TIP3    H137257   5.548   3.798  17.420 -1.7730  0.3423  0.7927
 4354TIP3    H237258   5.529   3.789  17.270  1.4508  0.3336  0.3126
 4355TIP3   OH237259   3.987   5.004  17.573 -0.2572  0.2984 -0.1377
 4355TIP3    H137260   3.967   4.957  17.654  1.1029 -0.9674 -0.4936
 4355TIP3    H237261   4.049   5.072  17.599  0.1211 -0.0589 -0.1007
 4356TIP3   OH237262   2.928   1.711  19.087  0.0405 -0.2954 -0.2695
 4356TIP3    H137263   2.836   1.686  19.099  0.6472 -1.8373  1.4807
 4356TIP3    H237264   2.924   1.804  19.065 -1.8958 -0.1034  0.6654
 4357TIP3   OH237265   4.865   6.732  16.070  0.6447  0.1632  0.0706
 4357TIP3    H137266   4.883   6.645  16.108  0.3640  0.3670  0.6835
 4357TIP3    H237267   4.939   6.747  16.011  1.1064 -0.1673  0.5442
 4358TIP3   OH237268   4.762   7.481  18.294 -0.0925  0.3863  0.2128
 4358TIP3    H137269   4.715   7.466  18.211  0.9884 -0.9950 -0.1899
 4358TIP3    H237270   4.752   7.399  18.342  0.8975  0.5041  0.6361
 4359TIP3   OH237271   6.680   0.991  18.893  0.2148  0.2627  0.3087
 4359TIP3    H137272   6.721   1.048  18.959  0.9007  1.3550 -1.0220
 4359TIP3    H237273   6.746   0.925  18.875 -0.1889 -0.3778  1.0972
 4360TIP3   OH237274   2.632   7.623  15.827  0.2316 -0.2183  0.0537
 4360TIP3    H137275   2.578   7.552  15.791  0.6501 -1.0853  1.0488
 4360TIP3    H237276   2.570   7.691  15.851 -0.3769 -0.9341  0.5782
 4361TIP3   OH237277   3.764   4.602  17.261  0.4252  0.0234 -0.3332
 4361TIP3    H137278   3.834   4.657  17.225  0.2492  0.3901 -0.1158
 4361TIP3    H237279   3.733   4.551  17.186 -0.1723  1.0318 -0.7950
 4362TIP3   OH237280   1.171   3.136  16.352 -0.2568  0.4801 -0.2722
 4362TIP3    H137281   1.160   3.087  16.270 -0.0772  0.6699 -0.4108
 4362TIP3    H237282   1.186   3.226  16.324 -0.9693  0.6923 -0.0084
 4363TIP3   OH237283   3.892   2.324  17.473  0.2123 -0.3110 -0.1179
 4363TIP3    H137284   3.918   2.289  17.558 -1.0643 -1.0456 -0.0137
 4363TIP3    H237285   3.824   2.388  17.493  0.6445  0.2861 -0.5165
 4364TIP3   OH237286   4.018   5.130  16.684  0.5960 -0.7760 -0.4145
 4364TIP3    H137287   3.983   5.042  16.679 -0.5904 -0.3196 -0.5050
 4364TIP3    H237288   4.042   5.142  16.776  0.3858 -1.0493 -0.3247
 4365TIP3   OH237289   7.054   3.281  17.034  0.2365  0.0955 -0.6510
 4365TIP3    H137290   7.053   3.194  16.995  1.3822 -0.7908  1.1586
 4365TIP3    H237291   7.048   3.341  16.959 -1.7031 -1.4816 -1.8719
 4366TIP3   OH237292   0.638   4.894  17.361  0.4287  0.3086  0.1331
 4366TIP3    H137293   0.588   4.817  17.332  1.5739 -0.8477  1.1118
 4366TIP3    H237294   0.716   4.894  17.306  1.7494 -0.8632  1.9007
 4367TIP3   OH237295   0.188   0.172  18.632  0.0032 -0.2871 -0.4319
 4367TIP3    H137296   0.283   0.163  18.621 -0.2230 -0.7198 -2.3649
 4367TIP3    H237297   0.153   0.086  18.607 -0.9472  0.0158 -0.1799
 4368TIP3   OH237298   1.936   4.439  18.359 -0.2805  0.2817 -0.4490
 4368TIP3    H137299   1.892   4.480  18.285 -2.5124 -0.8643  0.1473
 4368TIP3    H237300   1.879   4.457  18.434  0.4941 -0.8768  0.4590
 4369TIP3   OH237301   6.517   2.133  17.094 -0.2990 -0.5109 -0.4584
 4369TIP3    H137302   6.601   2.168  17.064 -0.2161 -0.8005 -0.5705
 4369TIP3    H237303   6.516   2.151  17.188 -0.0547 -0.6158 -0.4332
 4370TIP3   OH237304   2.212   5.821  16.602 -0.0368  0.6631  0.3870
 4370TIP3    H137305   2.268   5.782  16.535  0.6561  0.7437  0.9017
 4370TIP3    H237306   2.271   5.838  16.675 -0.5903  1.4509  0.6648
 4371TIP3   OH237307   3.736   6.423  16.501  0.1074  0.0372  0.5077
 4371TIP3    H137308   3.689   6.500  16.469 -0.9357 -0.6725  0.2761
 4371TIP3    H237309   3.815   6.418  16.447 -1.2586 -0.7292 -1.5488
 4372TIP3   OH237310   0.962   3.574  18.589  0.2494 -0.2676  0.8127
 4372TIP3    H137311   1.021   3.574  18.514 -0.7500 -0.5001 -0.0008
 4372TIP3    H237312   0.923   3.486  18.588 -2.0452  0.6963 -0.2672
 4373TIP3   OH237313   0.556   5.930  18.061  0.0184  0.1909 -0.0861
 4373TIP3    H137314   0.639   5.967  18.031  1.2913 -2.2661  0.1485
 4373TIP3    H237315   0.552   5.953  18.154  1.2748 -0.9821  0.2956
 4374TIP3   OH237316   3.568   2.039  19.232  0.1168 -0.0554  0.3859
 4374TIP3    H137317   3.524   1.956  19.215  1.0734 -0.4741 -0.1305
 4374TIP3    H237318   3.605   2.028  19.320 -1.8942  0.8063  1.4036
 4375TIP3   OH237319   4.308   5.899  16.275  0.0272 -0.7284 -0.2736
 4375TIP3    H137320   4.307   5.869  16.184  3.1123  1.6329 -1.2471
 4375TIP3    H237321   4.243   5.970  16.277 -1.9429 -2.4495  0.1514
 4376TIP3   OH237322   2.367   7.496  17.198 -0.8378 -0.4148 -0.4515
 4376TIP3    H137323   2.405   7.526  17.281 -0.6206  1.0801 -1.0677
 4376TIP3    H237324   2.413   7.414  17.179  1.0117  0.5422 -0.3781
 4377TIP3   OH237325   1.821   3.003  18.059  0.4860 -0.6144 -0.0517
 4377TIP3    H137326   1.819   2.988  18.154  1.2967  1.0731  0.2763
 4377TIP3    H237327   1.790   3.093  18.049  0.1468 -0.8639 -1.4340
 4378TIP3   OH237328   0.666   5.001  18.309  0.4847 -0.4253  0.0384
 4378TIP3    H137329   0.684   5.095  18.322  0.5875 -0.5824  1.1269
 4378TIP3    H237330   0.578   4.988  18.344  0.4248 -0.7165 -0.2176
 4379TIP3   OH237331   3.657   1.397  16.704  0.6636  0.0997  0.0520
 4379TIP3    H137332   3.735   1.359  16.665  1.7943  2.2735  0.0140
 4379TIP3    H237333   3.628   1.463  16.640 -0.8233 -0.2166  0.3582
 4380TIP3   OH237334   5.012   1.350  18.299  0.7208  0.2956  0.2585
 4380TIP3    H137335   5.068   1.421  18.268  0.9149  0.7719  1.6271
 4380TIP3    H237336   5.008   1.363  18.394 -2.6459  1.0263  0.1455
 4381TIP3   OH237337   2.987   6.275  16.396  0.4420 -0.2832 -0.5261
 4381TIP3    H137338   2.936   6.198  16.370  1.9837 -1.0157 -1.5134
 4381TIP3    H237339   3.078   6.251  16.379  1.4569  0.0420  3.4264
 4382TIP3   OH237340   3.193   3.045  17.649  0.1018 -0.5523  0.3517
 4382TIP3    H137341   3.222   2.955  17.669 -1.0762 -1.2789 -1.0088
 4382TIP3    H237342   3.128   3.034  17.580 -0.2277  1.3598  0.3093
 4383TIP3   OH237343   1.671   6.845  17.875  0.2905  0.2107 -0.4624
 4383TIP3    H137344   1.719   6.879  17.951 -0.2914  0.9331 -0.4045
 4383TIP3    H237345   1.736   6.793  17.827  0.7883  0.1257  0.2829
 4384TIP3   OH237346   7.228   6.040  17.365  0.0247  0.6078  0.1920
 4384TIP3    H137347   7.200   5.966  17.311  1.0550 -0.7585  1.4410
 4384TIP3    H237348   7.317   6.059  17.335 -0.1544  1.2138  0.0282
 4385TIP3   OH237349   1.494   1.384  16.439  0.5131  0.1858 -0.3280
 4385TIP3    H137350   1.530   1.296  16.438  0.0293 -0.0305  0.4761
 4385TIP3    H237351   1.561   1.437  16.481  0.6799  0.1470 -0.5437
 4386TIP3   OH237352   7.083   7.293  17.132 -0.1750  0.0292 -0.2686
 4386TIP3    H137353   7.136   7.214  17.121  0.4496  0.6012 -1.5310
 4386TIP3    H237354   7.057   7.292  17.225  0.1235 -1.4531 -0.1758
 4387TIP3   OH237355   2.484   7.634  17.417  0.8120  0.1802 -0.3977
 4387TIP3    H137356   2.563   7.640  17.362  2.1338  0.8794  1.4809
 4387TIP3    H237357   2.460   7.725  17.433  0.1705 -0.0273 -0.1882
 4388TIP3   OH237358   1.513   5.988  17.299 -0.8217  0.4770 -0.2833
 4388TIP3    H137359   1.468   5.926  17.357 -0.0696 -0.6021 -0.8217
 4388TIP3    H237360   1.487   5.961  17.211  0.8377 -0.1469 -0.6052
 4389TIP3   OH237361   2.661   0.138  17.254  0.2463  0.4203  0.0995
 4389TIP3    H137362   2.580   0.188  17.252 -1.9849 -2.8098 -2.1617
 4389TIP3    H237363   2.690   0.135  17.162  3.2951  1.8008  0.8735
 4390TIP3   OH237364   2.101   3.017  16.972 -0.2777 -0.2979 -1.0693
 4390TIP3    H137365   2.183   2.998  17.017 -0.4158 -1.6267 -1.3134
 4390TIP3    H237366   2.038   2.956  17.011 -1.4814  1.4857 -0.0480
 4391TIP3   OH237367   7.020   1.611  18.303  0.0495 -0.2531 -0.2567
 4391TIP3    H137368   6.956   1.625  18.372  0.1608  0.0388 -0.2118
 4391TIP3    H237369   7.038   1.517  18.305  0.5516 -0.1435  0.5538
 4392TIP3   OH237370   2.047   3.272  16.804  0.0170  0.0956 -0.1396
 4392TIP3    H137371   1.975   3.237  16.752  1.2754 -1.1363 -1.1101
 4392TIP3    H237372   2.051   3.215  16.881 -0.1050  0.2400 -0.0249
 4393TIP3   OH237373   1.208   4.038  18.561  0.6491 -0.2959 -0.1866
 4393TIP3    H137374   1.188   4.102  18.493 -1.3132  1.5380  1.9562
 4393TIP3    H237375   1.217   4.089  18.641  2.3223 -2.4105  1.1102
 4394TIP3   OH237376   4.925   6.350  17.948 -0.2900  0.1419 -0.0963
 4394TIP3    H137377   4.992   6.282  17.943 -0.4414  0.0055 -0.2814
 4394TIP3    H237378   4.847   6.306  17.981 -0.5834  0.0698 -0.8644
 4395TIP3   OH237379   1.561   1.657  18.804  0.4902 -0.0839 -0.8766
 4395TIP3    H137380   1.533   1.566  18.796 -3.7985  0.8430  1.2135
 4395TIP3    H237381   1.587   1.666  18.896  1.2645  0.7456 -1.1662
 4396TIP3   OH237382   0.758   7.461  17.719 -0.2388  0.0322  0.2634
 4396TIP3    H137383   0.815   7.481  17.793 -0.4932  0.7611  0.2724
 4396TIP3    H237384   0.742   7.546  17.678  1.2877 -0.5341 -1.6656
 4397TIP3   OH237385   0.942   2.936  17.650  0.1409  0.2472 -0.9592
 4397TIP3    H137386   0.978   2.847  17.646 -1.6310 -0.5517 -0.3481
 4397TIP3    H237387   1.018   2.993  17.644  1.4867 -1.3295  0.2106
 4398TIP3   OH237388   5.136   1.627  17.292 -0.3285  0.9021 -0.1722
 4398TIP3    H137389   5.163   1.671  17.373 -0.0659  1.6145 -0.6397
 4398TIP3    H237390   5.138   1.696  17.225 -1.1139  0.4551 -0.6698
 4399TIP3   OH237391   6.852   6.186  17.762 -0.5652  0.4331 -0.1330
 4399TIP3    H137392   6.881   6.219  17.677 -0.0044  0.8143  0.1985
 4399TIP3    H237393   6.847   6.091  17.750  0.2519  0.4111 -0.3787
 4400TIP3   OH237394   4.339   1.698  17.154 -0.0184  0.0171  0.1793
 4400TIP3    H137395   4.280   1.761  17.195 -0.9507 -1.1981  0.7763
 4400TIP3    H237396   4.376   1.745  17.079  0.0569  1.5724  1.1393
 4401TIP3   OH237397   5.493   3.565  16.397 -0.6301  0.0374  0.4031
 4401TIP3    H137398   5.467   3.631  16.333 -0.3831 -1.0288 -0.8306
 4401TIP3    H237399   5.586   3.551  16.381 -0.6441 -0.4925  0.7580
 4402TIP3   OH237400   0.354   0.472  18.413  0.2449 -0.1880 -0.0232
 4402TIP3    H137401   0.388   0.440  18.497  0.8263  1.8173  0.5653
 4402TIP3    H237402   0.399   0.555  18.399  0.5740 -0.7107 -2.6251
 4403TIP3   OH237403   7.386   5.807  17.120 -0.7474  0.4537 -0.2783
 4403TIP3    H137404   7.410   5.716  17.104  0.5564  1.1401 -2.8050
 4403TIP3    H237405   7.291   5.806  17.128 -0.8422 -1.0461 -1.1528
 4404TIP3   OH237406   5.441   3.874  17.030  0.7670  0.1755  0.2165
 4404TIP3    H137407   5.410   3.915  17.110  0.0058  2.7705 -1.2916
 4404TIP3    H237408   5.363   3.835  16.990  0.3883  2.0010 -0.9355
 4405TIP3   OH237409   0.469   6.680  18.881 -0.5850 -0.0221  0.7432
 4405TIP3    H137410   0.414   6.752  18.852  2.3323  2.2366  0.2860
 4405TIP3    H237411   0.489   6.700  18.972  0.9352  0.2715  0.3735
 4406TIP3   OH237412   3.091   6.435  18.422  0.3780  0.2208 -0.6621
 4406TIP3    H137413   3.065   6.387  18.342 -2.7620  0.4627  0.0912
 4406TIP3    H237414   3.143   6.372  18.471 -1.1073 -1.4288 -1.0871
 4407TIP3   OH237415   3.056   2.680  17.452 -0.1868  0.4868 -0.2923
 4407TIP3    H137416   3.120   2.708  17.386  1.7307 -0.0788  1.2036
 4407TIP3    H237417   3.044   2.587  17.437 -1.2371  0.7259 -1.0047
 4408TIP3   OH237418   3.011   4.416  18.098 -0.0911 -0.2162  0.1559
 4408TIP3    H137419   3.044   4.328  18.079 -1.9327 -0.5879 -1.6907
 4408TIP3    H237420   2.953   4.404  18.173  0.4979 -0.3407  0.6051
 4409TIP3   OH237421   3.869   4.002  16.659 -0.1482  0.1041  0.5378
 4409TIP3    H137422   3.935   4.005  16.729 -0.9518 -0.4242  1.3417
 4409TIP3    H237423   3.786   3.989  16.705 -0.9871  1.8667 -0.3683
 4410TIP3   OH237424   4.214   4.975  17.243 -0.7995 -0.2429 -0.3921
 4410TIP3    H137425   4.200   4.935  17.158 -0.8412 -0.0979 -0.4540
 4410TIP3    H237426   4.135   4.954  17.293  0.2638 -2.5180  0.4713
 4411TIP3   OH237427   1.835   4.272  16.882 -0.5986 -0.7840 -0.7192
 4411TIP3    H137428   1.915   4.294  16.929 -0.5612 -0.6848 -0.8306
 4411TIP3    H237429   1.855   4.288  16.790 -1.3705  1.1758 -0.5965
 4412TIP3   OH237430   0.023   3.270  17.349  0.1583  0.2283  0.3829
 4412TIP3    H137431  -0.026   3.213  17.408 -0.8278  0.7416  0.0817
 4412TIP3    H237432   0.110   3.275  17.388 -0.0480 -0.6166  0.9895
 4413TIP3   OH237433   2.400   6.568  16.363 -0.7190 -0.1196  0.5738
 4413TIP3    H137434   2.473   6.619  16.399 -1.3474  0.2197  1.3870
 4413TIP3    H237435   2.364   6.625  16.294  0.8005 -0.9805 -1.0303
 4414TIP3   OH237436   5.870   1.284  17.821 -0.4412 -0.3651 -0.5907
 4414TIP3    H137437   5.827   1.245  17.898  1.9757 -3.2513 -0.5128
 4414TIP3    H237438   5.858   1.218  17.753  1.1350  0.1980 -1.4398
 4415TIP3   OH237439   7.614   1.556  16.445  0.2365  0.0318  0.4950
 4415TIP3    H137440   7.609   1.556  16.350 -1.5289  1.8390  0.4986
 4415TIP3    H237441   7.543   1.498  16.473  0.1919  0.1729  0.6842
 4416TIP3   OH237442   4.648   1.698  18.518  0.1816 -0.0392 -0.5504
 4416TIP3    H137443   4.586   1.698  18.445  0.8373  1.2778 -1.1373
 4416TIP3    H237444   4.723   1.747  18.485  0.5360  0.4886  0.9905
 4417TIP3   OH237445   3.787   5.170  18.460  0.1324  0.1439 -0.6468
 4417TIP3    H137446   3.702   5.126  18.452  0.0142  0.6317 -3.1375
 4417TIP3    H237447   3.848   5.111  18.415  1.0263  0.0957  0.5690
 4418TIP3   OH237448   3.127   6.886  16.945 -0.0796 -0.3222  0.2921
 4418TIP3    H137449   3.075   6.939  17.006 -1.3637 -0.3184 -0.7535
 4418TIP3    H237450   3.199   6.853  16.998 -1.1159 -0.2906  1.8082
 4419TIP3   OH237451   4.467   1.584  18.333 -0.3019 -0.3915 -0.4538
 4419TIP3    H137452   4.383   1.596  18.288 -1.3331 -1.4198  1.0675
 4419TIP3    H237453   4.453   1.506  18.388  1.7843 -0.8049 -0.4312
 4420TIP3   OH237454   0.957   6.088  18.634 -0.6917  0.4749  0.1058
 4420TIP3    H137455   1.040   6.136  18.632 -0.4515  0.2796  2.4540
 4420TIP3    H237456   0.896   6.147  18.679 -1.2971 -0.1352  0.1085
 4421TIP3   OH237457   6.875   3.956  17.070  0.3963 -0.1810 -0.2834
 4421TIP3    H137458   6.890   4.032  17.014  0.1654  0.9635  1.1566
 4421TIP3    H237459   6.780   3.954  17.083  0.5599  0.6260  1.4090
 4422TIP3   OH237460   4.581   0.587  18.194 -0.4014 -0.2506  0.0506
 4422TIP3    H137461   4.506   0.541  18.232  0.3795 -1.5033  0.1492
 4422TIP3    H237462   4.631   0.619  18.269 -0.5720  0.1384 -0.0015
 4423TIP3   OH237463   4.428   0.724  17.745  0.3899  0.3047 -0.1952
 4423TIP3    H137464   4.466   0.638  17.725 -2.3941 -1.2908  0.7567
 4423TIP3    H237465   4.396   0.756  17.661 -0.2278 -0.5048 -0.2790
 4424TIP3   OH237466   4.393   0.369  17.310  0.0756  0.2099  0.4061
 4424TIP3    H137467   4.432   0.432  17.250  1.1190  0.7690  1.6285
 4424TIP3    H237468   4.396   0.286  17.263  1.9868  0.4027  0.1181
 4425TIP3   OH237469   6.248   5.133  17.240  0.5289  0.0319 -0.2963
 4425TIP3    H137470   6.213   5.046  17.220  1.2933 -0.7105  1.4176
 4425TIP3    H237471   6.205   5.191  17.177 -0.9153 -1.3898 -0.6873
 4426TIP3   OH237472   5.750   1.795  17.636  0.2588  0.3531 -0.0067
 4426TIP3    H137473   5.713   1.727  17.580  0.6676 -0.7650  1.0357
 4426TIP3    H237474   5.769   1.867  17.576 -0.5860 -0.2693 -1.0723
 4427TIP3   OH237475   7.425   4.200  17.779 -0.3168 -0.2913  0.0630
 4427TIP3    H137476   7.396   4.195  17.870 -3.1815  1.2326 -0.6537
 4427TIP3    H237477   7.402   4.115  17.742  1.4507 -1.1634  0.8298
 4428TIP3   OH237478   3.434   5.354  17.652  0.1210  0.2365 -0.0488
 4428TIP3    H137479   3.450   5.266  17.618  1.1509  0.5681 -0.4725
 4428TIP3    H237480   3.519   5.398  17.645 -0.6027  1.6034 -0.8529
 4429TIP3   OH237481   2.127   5.212  18.811 -0.2929  0.2730 -0.7365
 4429TIP3    H137482   2.079   5.160  18.875  0.8570 -1.1986 -1.0093
 4429TIP3    H237483   2.069   5.216  18.735 -0.1464 -1.2918 -0.9791
 4430TIP3   OH237484   5.048   6.886  17.441 -0.0867  0.4451  0.9419
 4430TIP3    H137485   5.019   6.803  17.405 -2.3700  1.6963 -0.3453
 4430TIP3    H237486   5.115   6.917  17.380  0.8629 -0.4453  1.4966
 4431TIP3   OH237487   3.801   1.710  18.540  0.2811 -0.2387  0.1291
 4431TIP3    H137488   3.874   1.731  18.598  1.4719  0.8622 -1.6723
 4431TIP3    H237489   3.828   1.742  18.454 -2.6111  0.8220 -0.5084
 4432TIP3   OH237490   2.391   2.529  17.451  0.7975  0.3752 -0.1096
 4432TIP3    H137491   2.311   2.518  17.399  0.9407  1.1471 -0.4978
 4432TIP3    H237492   2.367   2.591  17.520  1.0801  0.6711 -0.2754
 4433TIP3   OH237493   7.091   4.346  18.167  0.2482 -0.1456  0.3987
 4433TIP3    H137494   7.086   4.379  18.077  0.6795  0.0836  0.4554
 4433TIP3    H237495   7.104   4.252  18.158  1.5144  0.0358  0.2037
 4434TIP3   OH237496   4.442   3.280  17.869 -0.1084 -0.4711  0.0019
 4434TIP3    H137497   4.469   3.333  17.944 -0.2830  1.2340 -1.0924
 4434TIP3    H237498   4.504   3.302  17.800 -0.1002 -1.8259 -0.4469
 4435TIP3   OH237499   1.589   0.133  18.519  0.1984 -0.0529  0.0981
 4435TIP3    H137500   1.637   0.071  18.574  0.6866  1.3330  1.2848
 4435TIP3    H237501   1.654   0.162  18.455 -0.5883 -2.3282 -1.9258
 4436TIP3   OH237502   0.316   7.020  16.733  0.3403 -0.3716 -0.5059
 4436TIP3    H137503   0.325   7.108  16.768  3.3551 -0.4072 -0.9332
 4436TIP3    H237504   0.283   6.968  16.807  1.3435  0.5764  0.6575
 4437TIP3   OH237505   7.393   7.162  16.452  0.3372  0.1911  0.1186
 4437TIP3    H137506   7.472   7.214  16.435  0.7933 -0.6354 -0.3848
 4437TIP3    H237507   7.402   7.086  16.395 -0.3144 -0.4403  0.8347
 4438TIP3   OH237508   3.216   1.237  18.338 -0.6776  0.0387 -0.0916
 4438TIP3    H137509   3.136   1.185  18.343 -0.4347 -0.2226  1.7005
 4438TIP3    H237510   3.264   1.215  18.418  0.0638  1.9821  0.0519
 4439TIP3   OH237511   0.050   1.621  17.101  0.2205 -0.1113 -0.4814
 4439TIP3    H137512   0.093   1.695  17.059 -1.4927  0.6818 -0.9356
 4439TIP3    H237513   0.079   1.545  17.051  1.0107  0.4012 -0.8155
 4440TIP3   OH237514   5.107   4.193  17.307 -0.0952 -0.2677  0.0255
 4440TIP3    H137515   5.016   4.170  17.327  0.9032 -3.1813  1.9068
 4440TIP3    H237516   5.149   4.109  17.288  2.5219  0.8070  0.6563
 4441TIP3   OH237517   1.603   5.277  17.056 -0.0570 -0.3280  0.5722
 4441TIP3    H137518   1.548   5.235  16.990  0.9859 -0.4677 -0.2412
 4441TIP3    H237519   1.675   5.215  17.070  0.2484  0.1419  1.1212
 4442TIP3   OH237520   4.640   2.581  17.203  0.1059 -0.3455  0.2528
 4442TIP3    H137521   4.567   2.622  17.250 -1.5476 -2.5572 -0.2478
 4442TIP3    H237522   4.632   2.615  17.113  2.2601  2.5638  0.9904
 4443TIP3   OH237523   3.502   4.324  17.630  0.3365 -0.1332  0.1489
 4443TIP3    H137524   3.569   4.391  17.617 -0.2293  0.5536  0.7223
 4443TIP3    H237525   3.542   4.244  17.595  0.5129  0.7542 -1.8180
 4444TIP3   OH237526   2.557   3.113  18.160  0.3366 -0.1547  0.7109
 4444TIP3    H137527   2.577   3.133  18.252  0.4797  0.3598  0.5666
 4444TIP3    H237528   2.635   3.066  18.129  0.7149  0.5505  0.5717
 4445TIP3   OH237529   3.580   0.489  16.268 -0.1219 -0.0425 -0.0426
 4445TIP3    H137530   3.531   0.569  16.285  0.3063 -0.0664  1.4085
 4445TIP3    H237531   3.526   0.419  16.305  0.7056 -0.1283  1.0585
 4446TIP3   OH237532   1.481   6.798  17.662  0.4154  0.3799 -0.1040
 4446TIP3    H137533   1.551   6.788  17.726 -0.2783 -0.3482  0.5778
 4446TIP3    H237534   1.525   6.803  17.578  1.3209  0.7816  0.3846
 4447TIP3   OH237535   2.142   2.752  17.499 -0.2063  0.3421 -0.6952
 4447TIP3    H137536   2.143   2.656  17.503  1.2994  0.3571  0.0119
 4447TIP3    H237537   2.166   2.780  17.587  1.5690  1.3162 -1.4328
 4448TIP3   OH237538   2.883   3.391  18.661 -0.3421 -0.9832 -0.3446
 4448TIP3    H137539   2.826   3.438  18.722  0.2575  0.3180 -0.7384
 4448TIP3    H237540   2.947   3.348  18.716 -0.3480 -0.5712 -0.0116
 4449TIP3   OH237541   3.666   0.149  17.606  0.0575 -0.1997 -0.5937
 4449TIP3    H137542   3.744   0.159  17.551  0.1194  0.2320 -0.4259
 4449TIP3    H237543   3.595   0.189  17.556  0.2134  0.6772 -0.1408
 4450TIP3   OH237544   2.552   5.443  17.888  0.2780  0.0006 -0.2839
 4450TIP3    H137545   2.550   5.384  17.963 -0.2604 -0.1165 -0.3809
 4450TIP3    H237546   2.547   5.386  17.812 -1.2082  0.1869 -0.3619
 4451TIP3   OH237547   4.872   6.367  18.322  0.8242 -0.2377  0.4933
 4451TIP3    H137548   4.955   6.343  18.280  1.7009  0.3034  1.8493
 4451TIP3    H237549   4.853   6.455  18.290 -0.3360 -1.1236 -1.4099
 4452TIP3   OH237550   6.268   7.597  18.141  0.0837  0.2369 -0.3772
 4452TIP3    H137551   6.191   7.542  18.125  0.1171  0.1548 -0.2620
 4452TIP3    H237552   6.301   7.567  18.226 -0.6085  1.2717  0.2749
 4453TIP3   OH237553   2.116   7.639  16.612  0.8374 -0.1080  0.0655
 4453TIP3    H137554   2.140   7.730  16.595  0.7934  0.0845  1.0073
 4453TIP3    H237555   2.138   7.593  16.531  1.2708  0.6599 -0.2590
 4454TIP3   OH237556   4.733   1.429  17.991 -0.4670 -0.3144 -0.2978
 4454TIP3    H137557   4.784   1.474  18.057 -1.5289 -0.7951  0.9039
 4454TIP3    H237558   4.797   1.393  17.930  0.6101 -0.6790  1.0109
 4455TIP3   OH237559   2.971   6.921  17.855 -0.0582 -0.2020 -0.4431
 4455TIP3    H137560   3.012   6.839  17.824 -0.4248 -1.3186  1.8425
 4455TIP3    H237561   3.045   6.977  17.878  0.2024  0.2870 -2.3065
 4456TIP3   OH237562   6.838   1.343  17.179  0.0212  0.2292 -0.0127
 4456TIP3    H137563   6.800   1.383  17.102  0.7481 -1.8158 -1.5340
 4456TIP3    H237564   6.931   1.365  17.174  0.4342 -1.5221 -0.8783
 4457TIP3   OH237565   7.645   2.435  17.262 -0.4418  0.8620  0.1513
 4457TIP3    H137566   7.727   2.410  17.220 -0.1097 -0.3939  1.4359
 4457TIP3    H237567   7.671   2.478  17.343 -1.0698  2.5407 -0.4948
 4458TIP3   OH237568   5.796   1.118  16.638 -0.9458 -0.0453 -0.4537
 4458TIP3    H137569   5.845   1.180  16.584  0.8763 -0.8277  0.2341
 4458TIP3    H237570   5.786   1.040  16.584  1.6550 -1.1600  0.5422
 4459TIP3   OH237571   3.269   0.258  16.114  0.0896  0.0501  0.2891
 4459TIP3    H137572   3.209   0.330  16.130  1.5613  1.0305  1.6551
 4459TIP3    H237573   3.283   0.260  16.019 -1.5975  0.1031  0.0050
 4460TIP3   OH237574   3.879   7.232  18.289 -0.4415 -0.2934  0.1655
 4460TIP3    H137575   3.937   7.192  18.224  0.1882  1.2158 -0.2444
 4460TIP3    H237576   3.793   7.195  18.270  0.2331 -1.9937  0.2935
 4461TIP3   OH237577   0.357   1.905  17.520  0.0126  0.1559 -0.3812
 4461TIP3    H137578   0.447   1.931  17.539 -0.3463  0.9891  0.2200
 4461TIP3    H237579   0.355   1.811  17.536  0.9916 -0.0269 -1.2483
 4462TIP3   OH237580   4.410   2.410  17.831 -0.7001 -0.1907 -0.0715
 4462TIP3    H137581   4.461   2.450  17.901 -1.2470  0.8172 -0.2230
 4462TIP3    H237582   4.447   2.448  17.751 -1.5996  0.4724 -0.1870
 4463TIP3   OH237583   1.103   3.298  16.862  0.3851 -0.0816 -0.1087
 4463TIP3    H137584   1.117   3.359  16.789  0.9301 -0.3711 -0.2509
 4463TIP3    H237585   1.191   3.269  16.885  0.2401  0.2460  0.8749
 4464TIP3   OH237586   0.582   4.514  18.365 -0.2393 -0.2587 -0.4298
 4464TIP3    H137587   0.659   4.461  18.347 -1.9709 -2.9949 -0.3639
 4464TIP3    H237588   0.538   4.523  18.280 -0.7253 -0.2708 -0.1872
 4465TIP3   OH237589   3.476   3.006  17.422  0.3672 -0.6131 -0.3162
 4465TIP3    H137590   3.520   3.065  17.483 -0.3143  0.1132 -0.5049
 4465TIP3    H237591   3.436   2.940  17.479 -0.1209 -0.0371  0.0375
 4466TIP3   OH237592   2.426   7.416  17.572  0.3108  0.0711 -0.0285
 4466TIP3    H137593   2.450   7.501  17.533  1.5554 -0.4882 -0.5422
 4466TIP3    H237594   2.366   7.438  17.643 -0.6351  1.2614 -1.1381
 4467TIP3   OH237595   1.459   2.538  18.878  0.2537 -0.7092 -0.1372
 4467TIP3    H137596   1.394   2.492  18.932 -0.3947 -1.3884 -1.4402
 4467TIP3    H237597   1.406   2.592  18.820  0.9248 -0.2480 -0.3214
 4468TIP3   OH237598   2.161   5.000  18.070 -0.1507 -0.0618 -0.3827
 4468TIP3    H137599   2.110   4.922  18.092 -3.1102  1.3443 -1.6444
 4468TIP3    H237600   2.122   5.070  18.122  0.3769  1.1249 -1.5150
 4469TIP3   OH237601   4.187   6.132  16.168 -0.2127  0.4464 -0.0475
 4469TIP3    H137602   4.276   6.160  16.146 -0.4390  0.2803 -1.2611
 4469TIP3    H237603   4.141   6.130  16.084 -1.1670 -0.1798  0.4659
 4470TIP3   OH237604   2.620   4.063  18.451  0.5626  0.1948  0.5142
 4470TIP3    H137605   2.697   4.081  18.506 -0.1276  1.4076  1.1113
 4470TIP3    H237606   2.650   4.083  18.362  1.2637 -0.4180  0.5989
 4471TIP3   OH237607   5.843   3.810  18.153  0.6517 -0.3215 -0.2778
 4471TIP3    H137608   5.813   3.811  18.062  1.1244 -0.2348 -0.4327
 4471TIP3    H237609   5.798   3.735  18.192  0.9633 -0.7661 -0.7585
 4472TIP3   OH237610   1.149   7.241  17.898  0.3705  0.2595  0.3409
 4472TIP3    H137611   1.159   7.179  17.971  0.0549  1.0987  1.1244
 4472TIP3    H237612   1.058   7.234  17.873  0.7360 -0.8574 -0.7631
 4473TIP3   OH237613   7.045   1.343  18.382  0.4537 -0.3259 -0.1982
 4473TIP3    H137614   7.106   1.300  18.441  0.0410 -0.6433 -0.0021
 4473TIP3    H237615   7.014   1.274  18.324 -1.3617 -0.6384  1.0707
 4474TIP3   OH237616   0.300   1.630  16.658 -0.1442  0.1679 -0.6761
 4474TIP3    H137617   0.272   1.591  16.741  1.1466 -2.7545 -1.4641
 4474TIP3    H237618   0.221   1.670  16.623 -1.1110  0.0352  1.1992
 4475TIP3   OH237619   6.417   4.543  17.471  0.0319  0.3126 -0.9537
 4475TIP3    H137620   6.505   4.548  17.434  0.4072  0.1640 -0.0996
 4475TIP3    H237621   6.400   4.630  17.506  0.1317  0.1446 -0.4780
 4476TIP3   OH237622   5.882   0.222  18.385  0.7792 -0.0472  0.0900
 4476TIP3    H137623   5.812   0.187  18.439 -0.2491  1.2815 -0.3241
 4476TIP3    H237624   5.883   0.315  18.404  0.9635  0.3125 -1.5180
 4477TIP3   OH237625   3.726   3.361  16.881  0.2617  0.2775 -0.3164
 4477TIP3    H137626   3.731   3.456  16.890  0.9041  0.1002  1.7524
 4477TIP3    H237627   3.818   3.333  16.876  0.1991 -0.3836  1.5847
 4478TIP3   OH237628   0.481   2.659  16.418 -0.0350  0.4424 -0.1071
 4478TIP3    H137629   0.491   2.754  16.419  1.2844  0.3400 -0.6724
 4478TIP3    H237630   0.562   2.626  16.457  0.5599 -0.4749 -1.9995
 4479TIP3   OH237631   7.243   5.654  17.836  0.2359 -0.2982  0.0191
 4479TIP3    H137632   7.226   5.594  17.909  0.1282  1.1832  1.2581
 4479TIP3    H237633   7.181   5.726  17.849 -1.2085 -0.8967 -2.6967
 4480TIP3   OH237634   2.387   5.322  17.233  0.5369 -0.0181 -0.2387
 4480TIP3    H137635   2.473   5.284  17.251 -0.0799 -1.2336  0.3345
 4480TIP3    H237636   2.332   5.289  17.304 -0.2809  1.1848 -0.2889
 4481TIP3   OH237637   4.688   5.247  17.374  0.4920 -0.2672  0.4486
 4481TIP3    H137638   4.665   5.322  17.429  1.6657 -0.8326  1.7576
 4481TIP3    H237639   4.604   5.206  17.354 -0.1086  1.0035  0.2426
 4482TIP3   OH237640   7.586   6.377  17.335 -0.6968  0.0406  0.1533
 4482TIP3    H137641   7.510   6.421  17.373 -1.3079 -0.7453 -0.1428
 4482TIP3    H237642   7.644   6.361  17.410  0.0619  2.3021  0.1251
 4483TIP3   OH237643   2.963   6.175  16.068  0.1083 -0.1397  0.1877
 4483TIP3    H137644   2.904   6.250  16.072  2.2460  1.6160  1.1929
 4483TIP3    H237645   2.998   6.177  15.979 -0.0018 -0.0673  0.1461
 4484TIP3   OH237646   5.410   3.153  17.327  0.0490 -0.0760  0.1084
 4484TIP3    H137647   5.478   3.086  17.325  0.0739 -0.0632  0.5395
 4484TIP3    H237648   5.358   3.132  17.405 -1.6603 -1.2923 -1.2755
 4485TIP3   OH237649   1.470   2.280  17.485 -0.1438  0.2181  0.0304
 4485TIP3    H137650   1.513   2.277  17.400  0.0041 -0.0270  0.1109
 4485TIP3    H237651   1.464   2.188  17.511  1.2757  0.3911  1.0272
 4486TIP3   OH237652   5.338   3.336  18.461  0.5341  0.1888  0.0795
 4486TIP3    H137653   5.294   3.419  18.481  0.3060 -0.2355  1.3898
 4486TIP3    H237654   5.431   3.357  18.464  0.4771  0.7025 -1.0244
 4487TIP3   OH237655   3.718   1.764  17.107  0.0263 -0.2168 -0.1117
 4487TIP3    H137656   3.685   1.674  17.104 -1.1194  0.1901 -0.3628
 4487TIP3    H237657   3.736   1.785  17.015  1.9433 -0.7487  0.1093
 4488TIP3   OH237658   2.128   4.024  16.540  0.0864  0.7401 -0.2471
 4488TIP3    H137659   2.124   4.018  16.636 -0.6760 -1.8152 -0.3457
 4488TIP3    H237660   2.217   3.994  16.518 -0.2635 -0.2405 -0.3726
 4489TIP3   OH237661   4.882   5.375  17.858 -0.3074  0.0558  0.3746
 4489TIP3    H137662   4.900   5.288  17.823  0.4288 -0.6824  2.4319
 4489TIP3    H237663   4.963   5.424  17.846 -0.0826 -0.1701  0.9610
 4490TIP3   OH237664   7.069   2.050  18.419  0.3045  0.4617 -0.0204
 4490TIP3    H137665   7.016   2.123  18.450  0.6090  1.1403 -1.0402
 4490TIP3    H237666   7.091   2.001  18.498 -1.8473  0.1328  0.4599
 4491TIP3   OH237667   1.306   5.957  16.251 -0.0228 -0.3459 -1.0038
 4491TIP3    H137668   1.330   6.042  16.289 -1.1151  0.3777 -1.8605
 4491TIP3    H237669   1.213   5.947  16.272 -0.2183 -0.7255 -1.9910
 4492TIP3   OH237670   0.258   0.283  17.099  0.6890 -0.5416 -0.1524
 4492TIP3    H137671   0.348   0.310  17.120 -0.1030  1.4928  0.9179
 4492TIP3    H237672   0.223   0.250  17.182 -0.3679  1.2617  0.1769
 4493TIP3   OH237673   0.782   3.692  17.344  0.1545  0.5295  0.1914
 4493TIP3    H137674   0.718   3.692  17.415  0.6798 -0.5971  0.6895
 4493TIP3    H237675   0.798   3.600  17.326 -0.2155  0.7864 -1.6358
 4494TIP3   OH237676   0.146   6.211  18.660 -0.5068 -0.0539  0.2083
 4494TIP3    H137677   0.191   6.137  18.620 -0.9081 -0.6029  0.7623
 4494TIP3    H237678   0.064   6.175  18.694 -0.8581  0.7075  0.2094
 4495TIP3   OH237679   2.330   1.015  15.592  0.3256 -0.3191 -0.1083
 4495TIP3    H137680   2.260   0.950  15.590 -1.0182  0.9481  1.7407
 4495TIP3    H237681   2.303   1.077  15.660  1.7021  1.9878 -1.5296
 4496TIP3   OH237682   2.230   5.475  16.391  0.4339 -1.1560  0.0393
 4496TIP3    H137683   2.221   5.438  16.303 -2.2044  1.2290 -0.8376
 4496TIP3    H237684   2.288   5.550  16.380 -1.6558  0.4892 -0.2155
 4497TIP3   OH237685   5.595   3.348  17.783  0.1433 -0.4230  0.4125
 4497TIP3    H137686   5.542   3.388  17.852  1.7862  1.6255  0.5762
 4497TIP3    H237687   5.671   3.405  17.775 -0.1082 -0.3678 -3.3176
 4498TIP3   OH237688   4.370   7.458  18.610 -0.2678  0.4008  0.1443
 4498TIP3    H137689   4.288   7.499  18.636 -0.7217 -0.5280  0.2324
 4498TIP3    H237690   4.363   7.447  18.515 -0.5651 -0.3299  0.2428
 4499TIP3   OH237691   2.666   5.572  17.231 -0.1358 -0.2851 -0.7408
 4499TIP3    H137692   2.695   5.543  17.318  0.8321 -0.2545 -1.0442
 4499TIP3    H237693   2.666   5.667  17.237  0.8661 -0.2550 -1.0574
 4500TIP3   OH237694   6.569   3.802  18.645 -0.1645 -0.3110 -0.3880
 4500TIP3    H137695   6.554   3.713  18.676 -1.2295 -0.3349 -0.9250
 4500TIP3    H237696   6.633   3.839  18.706  1.7415 -2.0371 -1.2065
 4501TIP3   OH237697   2.630   0.067  18.665  0.2562  0.0562 -0.1387
 4501TIP3    H137698   2.640   0.154  18.626 -0.9355 -0.2280 -1.1353
 4501TIP3    H237699   2.548   0.072  18.714 -0.6691 -0.9457 -1.5193
 4502TIP3   OH237700   7.291   1.728  18.271  0.3652  0.2604  0.0512
 4502TIP3    H137701   7.203   1.690  18.268 -0.2506  1.4861  1.2004
 4502TIP3    H237702   7.297   1.782  18.192  0.0439  0.2223 -0.0018
 4503TIP3   OH237703   6.369   2.561  17.298 -0.2183 -0.4305 -0.3670
 4503TIP3    H137704   6.322   2.617  17.236  0.5523  2.1023  1.1824
 4503TIP3    H237705   6.312   2.559  17.375  1.2909  1.2715  0.8928
 4504TIP3   OH237706   3.256   1.733  17.286  0.2308  0.0443  0.0435
 4504TIP3    H137707   3.224   1.816  17.321 -1.0006 -0.2473 -0.3118
 4504TIP3    H237708   3.194   1.668  17.320  1.1673 -0.7304  0.3027
 4505TIP3   OH237709   1.879   4.394  16.628 -0.3491  0.5520 -0.1064
 4505TIP3    H137710   1.818   4.390  16.554 -0.2809  0.6879 -0.1698
 4505TIP3    H237711   1.964   4.413  16.589  0.5056 -3.2621 -0.4636
 4506TIP3   OH237712   4.941   6.064  16.798 -0.2920 -0.5804 -0.2322
 4506TIP3    H137713   4.941   6.140  16.740 -0.1295 -0.5922 -0.2475
 4506TIP3    H237714   5.008   6.006  16.762 -0.3750 -0.7056 -0.1880
 4507TIP3   OH237715   6.023   2.868  18.585  0.2322 -0.1082  0.1032
 4507TIP3    H137716   6.083   2.938  18.563 -0.3872 -0.0537 -1.5079
 4507TIP3    H237717   5.936   2.907  18.578 -0.2716 -1.4865 -3.0433
 4508TIP3   OH237718   2.471   6.435  17.857 -0.5428  0.0578 -0.2147
 4508TIP3    H137719   2.508   6.423  17.944  0.8220 -0.9054 -0.9038
 4508TIP3    H237720   2.416   6.513  17.865 -0.1852  0.1692  1.4182
 4509TIP3   OH237721   7.249   5.085  18.744 -0.2685 -0.0884 -1.0006
 4509TIP3    H137722   7.341   5.095  18.718  0.7050  2.0755  2.4534
 4509TIP3    H237723   7.205   5.162  18.707 -0.2368 -0.0955 -1.0539
 4510TIP3   OH237724   7.677   1.842  17.345 -0.0370  0.3916  0.2142
 4510TIP3    H137725   7.607   1.886  17.298 -0.4188  0.6701  1.0204
 4510TIP3    H237726   7.757   1.879  17.309 -0.2264 -0.9646 -1.7223
 4511TIP3   OH237727   0.206   2.467  15.872  0.3588 -0.7969 -0.0702
 4511TIP3    H137728   0.180   2.413  15.947 -0.0128 -1.4989 -0.7048
 4511TIP3    H237729   0.144   2.445  15.803  0.1257  0.5373 -0.3088
 4512TIP3   OH237730   2.560   2.813  15.933  0.0977 -0.0740 -0.5287
 4512TIP3    H137731   2.636   2.860  15.968  2.0606 -1.8799 -2.0750
 4512TIP3    H237732   2.510   2.880  15.885  0.8937  1.0831  0.2125
 4513TIP3   OH237733   4.984   6.090  18.205  0.0458  0.4195 -0.2412
 4513TIP3    H137734   5.019   6.002  18.216 -1.7859 -0.3248 -0.0767
 4513TIP3    H237735   4.889   6.079  18.204 -0.2135  2.1879 -1.9705
 4514TIP3   OH237736   4.809   1.945  17.084 -0.0827 -0.2627  0.1655
 4514TIP3    H137737   4.760   1.980  17.158 -0.9832 -1.2149  0.0463
 4514TIP3    H237738   4.743   1.901  17.030  0.9096 -1.7264  0.0823
 4515TIP3   OH237739   3.708   3.738  16.741  0.1628  0.4571 -0.6985
 4515TIP3    H137740   3.656   3.697  16.673 -0.4769  1.1754 -0.6514
 4515TIP3    H237741   3.666   3.823  16.757 -1.6818 -0.9052  2.8064
 4516TIP3   OH237742   0.341   5.174  16.985  0.0814 -0.1828 -1.0023
 4516TIP3    H137743   0.399   5.227  16.930  1.2489 -1.5294 -1.1334
 4516TIP3    H237744   0.258   5.222  16.986  0.6009  0.8112 -2.4069
 4517TIP3   OH237745   5.527   1.057  18.320  0.6602  0.0932 -0.1627
 4517TIP3    H137746   5.434   1.070  18.337  0.8107 -1.0065  1.6674
 4517TIP3    H237747   5.568   1.139  18.347  0.2534  0.5435 -0.8781
 4518TIP3   OH237748   5.149   6.676  17.282 -0.3124  0.8499 -0.4472
 4518TIP3    H137749   5.078   6.629  17.326 -0.8379  2.5696  0.6125
 4518TIP3    H237750   5.120   6.681  17.191 -0.5642 -0.2505 -0.4472
 4519TIP3   OH237751   0.547   0.889  18.127 -0.3578 -0.0086 -0.3598
 4519TIP3    H137752   0.474   0.879  18.188  0.0351 -1.1513 -0.0516
 4519TIP3    H237753   0.567   0.800  18.099  2.4565 -0.0604  1.3817
 4520TIP3   OH237754   1.877   5.566  18.540  0.9987 -0.0220  0.0321
 4520TIP3    H137755   1.872   5.609  18.626  1.8701 -1.4104  0.8232
 4520TIP3    H237756   1.941   5.618  18.491  2.1440 -0.4263  1.0223
 4521TIP3   OH237757   5.687   3.834  16.827 -0.1314  0.1150  0.7245
 4521TIP3    H137758   5.677   3.831  16.732  2.1887  2.6467  0.2771
 4521TIP3    H237759   5.606   3.872  16.859 -0.7470 -0.3181 -0.2877
 4522TIP3   OH237760   6.608   7.173  18.319  0.4176 -0.3148  0.2825
 4522TIP3    H137761   6.630   7.233  18.247  0.4807  1.0845  1.4037
 4522TIP3    H237762   6.680   7.110  18.320  1.9409  1.3271  0.8473
 4523TIP3   OH237763   5.538   1.735  18.063 -0.0132  0.1771 -0.1720
 4523TIP3    H137764   5.614   1.677  18.067 -0.0103  0.1830 -0.1399
 4523TIP3    H237765   5.542   1.774  17.976 -1.8153 -2.3235 -1.4637
 4524TIP3   OH237766   3.618   3.991  16.801  0.3149  0.5875 -0.4151
 4524TIP3    H137767   3.598   4.055  16.733 -0.7590  0.5789 -0.1248
 4524TIP3    H237768   3.609   4.040  16.883  1.5401  0.5830 -0.2559
 4525TIP3   OH237769   0.949   2.110  17.197 -0.5522  0.0941 -0.1451
 4525TIP3    H137770   0.898   2.135  17.274 -1.6075 -0.3966 -0.6549
 4525TIP3    H237771   1.040   2.107  17.227 -0.9407 -0.0143  1.0561
 4526TIP3   OH237772   0.111   1.320  17.432  0.6356  0.0280 -0.6416
 4526TIP3    H137773   0.105   1.415  17.447  0.8671 -0.2517  1.5866
 4526TIP3    H237774   0.204   1.300  17.446  0.5366 -0.5711 -0.8397
 4527TIP3   OH237775   1.988   1.715  17.829 -0.4781  0.2409 -0.1674
 4527TIP3    H137776   1.998   1.621  17.845  0.2487  0.1479 -1.0316
 4527TIP3    H237777   1.955   1.720  17.739 -1.3601  0.7994  0.1774
 4528TIP3   OH237778   4.091   2.324  17.287 -0.6638 -0.1682 -0.4257
 4528TIP3    H137779   4.001   2.292  17.298 -1.2211  0.9720 -1.4733
 4528TIP3    H237780   4.083   2.419  17.290  0.3309 -0.0254 -1.7823
 4529TIP3   OH237781   0.126   6.992  16.216  0.3311  0.2783 -0.1464
 4529TIP3    H137782   0.114   6.983  16.311  2.2761  2.2684  0.3589
 4529TIP3    H237783   0.037   6.987  16.181 -0.3571 -1.4059  1.6519
 4530TIP3   OH237784   1.107   1.508  17.676 -0.4603  0.1121 -0.8859
 4530TIP3    H137785   1.160   1.507  17.756 -0.6094 -1.0006 -0.7854
 4530TIP3    H237786   1.054   1.587  17.683 -0.3610  0.1097  0.0510
 4531TIP3   OH237787   2.722   1.286  16.039 -0.8860 -0.0799 -0.0345
 4531TIP3    H137788   2.714   1.212  15.978 -1.4838  0.2189 -0.3355
 4531TIP3    H237789   2.717   1.363  15.982 -3.4819  0.2691  0.5269
 4532TIP3   OH237790   0.435   4.983  16.776 -0.1998  0.0671 -0.4549
 4532TIP3    H137791   0.388   5.004  16.856  0.0683 -0.7670 -0.0598
 4532TIP3    H237792   0.513   4.935  16.806  0.6903  1.0611 -1.1159
 4533TIP3   OH237793   5.959   7.035  16.725 -0.8803  0.4859 -0.5862
 4533TIP3    H137794   6.049   7.066  16.712 -0.2477 -1.1513 -0.3292
 4533TIP3    H237795   5.945   6.973  16.653 -0.8640 -1.2084  0.8103
 4534TIP3   OH237796   5.416   0.174  17.854 -0.1378  0.0072 -0.1996
 4534TIP3    H137797   5.334   0.130  17.878  0.0922  0.3561  1.3376
 4534TIP3    H237798   5.484   0.111  17.878  0.1958  1.1251  2.0440
 4535TIP3   OH237799   3.272   0.397  18.978 -0.2257  0.2331  0.9018
 4535TIP3    H137800   3.301   0.485  18.951  0.6284  0.3266  2.0991
 4535TIP3    H237801   3.187   0.386  18.934 -0.0730  1.4230  0.2714
 4536TIP3   OH237802   6.543   3.926  18.394  0.4545  0.0013  0.2404
 4536TIP3    H137803   6.599   3.882  18.330  0.2490  0.9737 -0.6519
 4536TIP3    H237804   6.562   3.883  18.477  0.8441 -1.2035 -0.4416
 4537TIP3   OH237805   0.343   7.374  17.020 -0.0202  0.3830  0.2626
 4537TIP3    H137806   0.337   7.408  17.109  1.3613  1.0102  0.1335
 4537TIP3    H237807   0.316   7.282  17.028 -0.3537  0.5522  1.2362
 4538TIP3   OH237808   7.210   3.419  17.905 -0.0116  0.3462 -0.2668
 4538TIP3    H137809   7.170   3.469  17.976  0.1922  2.3284 -1.4523
 4538TIP3    H237810   7.301   3.449  17.904  0.2508 -0.4525 -0.6953
 4539TIP3   OH237811   2.919   5.050  18.487 -0.1195  0.0816  0.2861
 4539TIP3    H137812   2.825   5.031  18.482 -0.1879  0.4537  0.1565
 4539TIP3    H237813   2.924   5.135  18.530  0.0863  0.8201 -1.1664
 4540TIP3   OH237814   7.424   1.120  18.744 -0.1037  0.6701  0.0312
 4540TIP3    H137815   7.389   1.124  18.833  0.6200 -1.0222  0.4303
 4540TIP3    H237816   7.420   1.027  18.721  2.0277  0.7341 -0.7607
 4541TIP3   OH237817   6.661   3.620  17.968 -0.2867  0.3074  0.5260
 4541TIP3    H137818   6.661   3.651  17.877 -0.9748  2.3100  1.1639
 4541TIP3    H237819   6.732   3.556  17.971  0.0848  0.5619 -1.2976
 4542TIP3   OH237820   6.499   3.454  17.367 -0.6468 -0.1913 -0.1168
 4542TIP3    H137821   6.421   3.466  17.421 -0.7466  1.3275 -0.5485
 4542TIP3    H237822   6.476   3.492  17.282  0.5616  0.3155 -0.2384
 4543TIP3   OH237823   2.848   4.090  18.594  0.4258  0.4158 -0.1722
 4543TIP3    H137824   2.899   4.081  18.674  0.2121 -1.6336 -0.2101
 4543TIP3    H237825   2.913   4.096  18.524  0.6235  0.0411 -0.0245
 4544TIP3   OH237826   5.316   0.055  18.272  0.1472 -0.0391 -0.4067
 4544TIP3    H137827   5.316   0.114  18.196 -0.7874  0.0105 -0.3794
 4544TIP3    H237828   5.349   0.109  18.344 -0.6661  0.4606 -0.3895
 4545TIP3   OH237829   2.439   1.430  15.921 -0.1950  0.2211 -0.3182
 4545TIP3    H137830   2.530   1.450  15.901  0.4910 -1.8232  0.4271
 4545TIP3    H237831   2.420   1.481  16.000  1.5276 -1.9181  1.6330
 4546TIP3   OH237832   3.558   2.582  17.383  0.6453  0.1303 -0.1921
 4546TIP3    H137833   3.507   2.652  17.423 -0.8751 -1.2879  0.4513
 4546TIP3    H237834   3.640   2.581  17.432 -0.1357  0.1519  1.1742
 4547TIP3   OH237835   4.908   0.384  16.880  0.1905 -0.9868 -0.0164
 4547TIP3    H137836   4.840   0.322  16.855  1.3620 -1.3427 -2.6245
 4547TIP3    H237837   4.988   0.332  16.885  0.4203 -0.5602  2.8894
 4548TIP3   OH237838   4.402   4.723  16.402 -0.3105  0.1162 -0.1357
 4548TIP3    H137839   4.448   4.686  16.327 -2.1414 -1.1823 -0.6919
 4548TIP3    H237840   4.464   4.716  16.475  0.8446 -0.2776 -1.1291
 4549TIP3   OH237841   2.287   2.585  18.640  0.0157  0.7196 -0.6425
 4549TIP3    H137842   2.248   2.535  18.711 -1.3672  0.4478 -1.5513
 4549TIP3    H237843   2.289   2.525  18.566  0.8138  1.2068 -1.0414
 4550TIP3   OH237844   1.326   2.241  16.502 -0.2463  0.0429 -0.4370
 4550TIP3    H137845   1.395   2.303  16.481 -0.2181  0.9508  2.0533
 4550TIP3    H237846   1.254   2.264  16.444  0.7101  0.5925 -1.4412
 4551TIP3   OH237847   4.939   2.138  17.572 -0.1669 -0.6047 -0.7530
 4551TIP3    H137848   4.904   2.160  17.485 -0.5798  0.3796 -0.3561
 4551TIP3    H237849   4.896   2.199  17.631 -1.6880 -2.7832  0.5184
 4552TIP3   OH237850   2.328   3.527  17.301 -0.8613 -0.2062  0.4024
 4552TIP3    H137851   2.260   3.467  17.273 -1.1594  0.9355 -1.5531
 4552TIP3    H237852   2.325   3.599  17.237  0.0926  1.4251  2.0657
 4553TIP3   OH237853   4.814   4.377  17.548 -0.0877  0.3867  0.2128
 4553TIP3    H137854   4.837   4.453  17.494 -0.8515 -0.3012 -1.1317
 4553TIP3    H237855   4.718   4.378  17.551 -0.1355 -0.8660 -0.3555
 4554TIP3   OH237856   0.443   5.016  16.491  0.1826  0.4402 -0.4320
 4554TIP3    H137857   0.455   5.026  16.585 -1.2493  1.0533 -0.2864
 4554TIP3    H237858   0.530   4.995  16.458  0.5995 -0.4321  1.1016
 4555TIP3   OH237859   5.481   5.510  16.045  0.5077  0.1548  0.3231
 4555TIP3    H137860   5.462   5.561  16.124 -0.3925  0.4334 -0.0556
 4555TIP3    H237861   5.411   5.534  15.984 -0.8378 -2.5892  0.6144
 4556TIP3   OH237862   7.660   6.513  18.543 -0.2597  0.5866 -0.0178
 4556TIP3    H137863   7.668   6.500  18.448  0.9606  2.3972 -0.2051
 4556TIP3    H237864   7.732   6.463  18.580 -0.3687  0.3685 -0.1007
 4557TIP3   OH237865   2.121   3.930  17.098 -0.1971 -0.3686 -0.1744
 4557TIP3    H137866   2.093   4.003  17.153 -0.0570 -0.8991  0.6230
 4557TIP3    H237867   2.213   3.947  17.080  0.0849 -0.8144  0.7918
 4558TIP3   OH237868   5.559   0.375  16.684  0.2602  0.2219  0.2650
 4558TIP3    H137869   5.555   0.430  16.605  2.1595 -2.3626 -1.8358
 4558TIP3    H237870   5.650   0.380  16.712  0.5109 -1.8173 -0.0486
 4559TIP3   OH237871   5.260   3.473  18.174 -0.1596 -0.0818 -0.1351
 4559TIP3    H137872   5.212   3.556  18.182 -0.8586 -0.5525  0.8094
 4559TIP3    H237873   5.193   3.408  18.154  0.1232 -0.6826  0.7677
 4560TIP3   OH237874   3.721   3.286  18.963 -0.0012 -0.0233  0.2390
 4560TIP3    H137875   3.816   3.297  18.963  0.2356 -1.7307  1.7577
 4560TIP3    H237876   3.693   3.330  18.883  2.4097 -2.1134 -1.9727
 4561TIP3   OH237877   6.979   3.216  17.568  0.7765 -0.1214  0.1293
 4561TIP3    H137878   6.952   3.302  17.599 -0.9161 -0.3834 -0.4735
 4561TIP3    H237879   7.007   3.170  17.647  1.4109  0.8630  0.4988
 4562TIP3   OH237880   6.180   2.093  17.800  0.0285  0.4763 -0.5586
 4562TIP3    H137881   6.146   2.102  17.889  0.7780 -2.4002  0.1428
 4562TIP3    H237882   6.144   2.168  17.752 -3.1094  0.3670  1.3449
 4563TIP3   OH237883   6.171   3.027  16.360  0.0328  0.0724  0.4276
 4563TIP3    H137884   6.145   2.966  16.292 -2.1913 -0.3774  1.5822
 4563TIP3    H237885   6.224   2.975  16.421 -1.3613 -0.6022  1.0991
 4564TIP3   OH237886   2.568   3.708  17.492 -0.5909  0.2642 -0.6323
 4564TIP3    H137887   2.594   3.622  17.458 -1.1463 -1.0520  1.9984
 4564TIP3    H237888   2.503   3.740  17.428 -0.5144 -1.3418 -1.5758
 4565TIP3   OH237889   6.875   3.078  16.883 -0.2474 -1.1955 -0.4178
 4565TIP3    H137890   6.790   3.119  16.900 -0.0317 -1.4603  1.6023
 4565TIP3    H237891   6.897   3.035  16.966  0.6894 -3.2895 -1.6615
 4566TIP3   OH237892   4.736   3.676  15.967  0.4113  0.1201 -0.5450
 4566TIP3    H137893   4.661   3.735  15.976  0.9730  0.7282  0.1717
 4566TIP3    H237894   4.705   3.609  15.905 -0.6118  0.5351 -0.5085
 4567TIP3   OH237895   6.807   7.446  17.383 -0.0162  0.7272 -0.2885
 4567TIP3    H137896   6.750   7.447  17.460  0.3591  1.7692 -0.0024
 4567TIP3    H237897   6.794   7.359  17.345 -0.6013  0.3794  0.6538
 4568TIP3   OH237898   1.724   2.078  18.813  0.0342 -0.0246 -0.2858
 4568TIP3    H137899   1.791   2.031  18.764 -0.1154 -1.3135  0.7026
 4568TIP3    H237900   1.645   2.071  18.760  0.4194  0.6379 -0.9716
 4569TIP3   OH237901   5.226   1.225  17.464 -0.3375 -0.1567 -0.2837
 4569TIP3    H137902   5.154   1.257  17.410  0.1753  0.4605 -0.6192
 4569TIP3    H237903   5.190   1.221  17.553 -0.6765  0.5081 -0.3856
 4570TIP3   OH237904   7.234   0.618  17.892 -0.0868  0.0542 -0.5375
 4570TIP3    H137905   7.324   0.607  17.860  0.3918  2.4430 -0.2117
 4570TIP3    H237906   7.245   0.664  17.976 -1.6383  1.1246 -0.8906
 4571TIP3   OH237907   5.497   2.407  17.933  0.6902 -0.1013  0.2581
 4571TIP3    H137908   5.488   2.347  17.858  1.4448 -1.0409  0.8913
 4571TIP3    H237909   5.447   2.484  17.908  2.2671  0.3094 -1.9390
 4572TIP3   OH237910   0.700   1.079  18.248  0.5709  0.0089  0.0110
 4572TIP3    H137911   0.619   1.089  18.298  1.1645 -1.6357  1.4348
 4572TIP3    H237912   0.691   0.994  18.204  0.7869  0.6516 -1.3099
 4573TIP3   OH237913   0.385   1.299  17.522  0.1142  0.1123 -0.1465
 4573TIP3    H137914   0.420   1.364  17.461 -0.0029  0.2074 -0.1139
 4573TIP3    H237915   0.462   1.266  17.568  0.2139 -0.0426 -0.4254
 4574TIP3   OH237916   0.450   3.100  17.853  0.0882  0.0490  0.3773
 4574TIP3    H137917   0.475   3.185  17.816  0.1299 -0.0173  0.2493
 4574TIP3    H237918   0.532   3.051  17.858 -0.1445 -0.5604 -1.0545
 4575TIP3   OH237919   7.377   1.862  17.682  0.1778 -0.2472 -0.0082
 4575TIP3    H137920   7.314   1.816  17.626  0.6718  0.2969 -1.0234
 4575TIP3    H237921   7.391   1.802  17.756  2.3021 -2.6876 -2.2020
 4576TIP3   OH237922   4.568   0.857  18.685  0.2131  0.1098  0.4169
 4576TIP3    H137923   4.646   0.911  18.687  1.0624 -1.0780  0.6052
 4576TIP3    H237924   4.501   0.909  18.728  1.1649  0.7592  1.1542
 4577TIP3   OH237925   6.249   4.869  17.010  0.3086 -0.0800 -0.1694
 4577TIP3    H137926   6.320   4.930  16.990 -0.9659  1.4171 -0.3531
 4577TIP3    H237927   6.253   4.804  16.941  1.6255 -0.1575 -0.0488
 4578TIP3   OH237928   1.285   1.149  18.709 -0.5400  0.7489 -0.0944
 4578TIP3    H137929   1.192   1.153  18.731 -0.6825  0.2958 -0.6055
 4578TIP3    H237930   1.298   1.062  18.672  0.3417  0.3609  1.0680
 4579TIP3   OH237931   6.636   3.360  16.829  0.3166  0.0708  0.1112
 4579TIP3    H137932   6.674   3.447  16.818  1.3681 -0.5267 -1.5562
 4579TIP3    H237933   6.627   3.349  16.923 -1.6226  2.6794  0.3342
 4580TIP3   OH237934   3.594   2.496  15.641 -1.0393  0.2093  0.5510
 4580TIP3    H137935   3.548   2.565  15.595  0.9797  0.7645 -0.7548
 4580TIP3    H237936   3.634   2.539  15.716 -0.7971  0.2057  0.4257
 4581TIP3   OH237937   3.734   1.306  16.973 -0.0733  0.0998 -0.3565
 4581TIP3    H137938   3.704   1.333  16.886 -0.3599  1.2620  0.0959
 4581TIP3    H237939   3.717   1.381  17.029 -0.5855 -0.9113  0.8765
 4582TIP3   OH237940   2.787   4.610  18.697 -0.0946  0.2342  0.0173
 4582TIP3    H137941   2.795   4.624  18.603 -2.7374  0.4499 -0.2660
 4582TIP3    H237942   2.835   4.529  18.714  0.5342  0.2649 -1.4796
 4583TIP3   OH237943   3.666   5.215  16.997 -0.1940 -0.6180  0.0644
 4583TIP3    H137944   3.662   5.216  16.902 -1.8011 -1.2828  0.0875
 4583TIP3    H237945   3.698   5.127  17.018  1.6247  0.0272  0.1437
 4584TIP3   OH237946   4.034   7.489  18.325 -0.0045  0.8420 -0.2135
 4584TIP3    H137947   3.950   7.535  18.319  0.4792  1.9592  1.1233
 4584TIP3    H237948   4.010   7.396  18.318 -1.4850  1.0751  1.1652
 4585TIP3   OH237949   0.713   6.557  18.383 -0.6182 -0.0185 -0.4088
 4585TIP3    H137950   0.722   6.624  18.450  0.8752 -0.5436 -0.0354
 4585TIP3    H237951   0.653   6.595  18.319 -2.9147  0.0791  1.6705
 4586TIP3   OH237952   3.975   3.837  18.287 -0.0737 -0.0023 -0.2339
 4586TIP3    H137953   3.894   3.878  18.258  0.3280 -0.1011 -1.5529
 4586TIP3    H237954   4.009   3.793  18.209  0.5391 -1.1373  0.6393
 4587TIP3   OH237955   3.911   3.578  17.837  0.2197 -0.6941  0.5098
 4587TIP3    H137956   3.920   3.553  17.745  1.7698 -1.0510  0.7363
 4587TIP3    H237957   3.894   3.672  17.835  3.7430  0.0661 -0.0925
 4588TIP3   OH237958   4.154   0.465  17.094 -0.0226 -0.2500 -0.6149
 4588TIP3    H137959   4.113   0.447  17.009 -0.6744 -3.3202  0.2059
 4588TIP3    H237960   4.239   0.421  17.089 -0.4197 -1.2180  0.5555
 4589TIP3   OH237961   4.874   0.023  17.934  0.2400 -0.2075  0.1256
 4589TIP3    H137962   4.828  -0.035  17.873  2.6781 -0.7006 -1.3899
 4589TIP3    H237963   4.804   0.062  17.987 -1.7031 -2.5320 -0.5238
 4590TIP3   OH237964   6.487   1.947  16.532  0.3640 -0.1189 -0.4718
 4590TIP3    H137965   6.442   1.938  16.616  0.0423 -2.4525 -0.8384
 4590TIP3    H237966   6.423   1.920  16.467  1.0183  0.4314 -1.3675
 4591TIP3   OH237967   1.015   2.356  17.986 -0.5710  0.4941 -0.0986
 4591TIP3    H137968   0.976   2.443  17.981 -0.8511  0.4411  0.8437
 4591TIP3    H237969   0.994   2.326  18.074  4.4703  1.8501  1.9791
 4592TIP3   OH237970   5.859   2.754  17.547 -0.2079 -0.4018 -0.6859
 4592TIP3    H137971   5.774   2.782  17.580  0.6646  0.4636  0.9540
 4592TIP3    H237972   5.912   2.834  17.545  1.6613 -1.4079  1.9024
 4593TIP3   OH237973   6.299   7.606  17.614 -0.0172  0.1214  0.1723
 4593TIP3    H137974   6.280   7.610  17.708  0.8468 -0.2965  0.3820
 4593TIP3    H237975   6.380   7.656  17.603  0.0275 -0.0436 -0.3020
 4594TIP3   OH237976   0.825   3.813  18.434 -0.1915 -0.3236 -0.0070
 4594TIP3    H137977   0.881   3.760  18.489  2.0000 -1.3496 -2.9603
 4594TIP3    H237978   0.823   3.899  18.477  1.6700 -0.9371  1.4479
 4595TIP3   OH237979   4.017   0.508  18.218 -0.0022 -0.1915 -0.5717
 4595TIP3    H137980   4.049   0.469  18.136  0.2521 -1.8239  0.2759
 4595TIP3    H237981   4.061   0.593  18.222 -0.9487  0.4964 -2.7123
 4596TIP3   OH237982   1.731   2.343  18.358  0.1811 -0.0101 -0.2481
 4596TIP3    H137983   1.748   2.309  18.446 -0.5624 -0.3242 -0.2175
 4596TIP3    H237984   1.788   2.292  18.301  2.1659  1.5286  0.2361
 4597TIP3   OH237985   0.162   2.682  17.360 -0.3396 -0.1037  0.0901
 4597TIP3    H137986   0.160   2.639  17.274  0.1953 -1.8799  0.9079
 4597TIP3    H237987   0.254   2.702  17.374  0.0598 -2.4673  1.4073
 4598TIP3   OH237988   2.847   7.662  17.390 -0.0178  0.1149 -0.0253
 4598TIP3    H137989   2.770   7.710  17.358  1.6619  2.2840 -1.0540
 4598TIP3    H237990   2.830   7.650  17.483 -2.2594 -0.8319 -0.4963
 4599TIP3   OH237991   7.067   5.154  16.866 -0.1749 -0.7270 -0.4602
 4599TIP3    H137992   6.993   5.098  16.892 -0.1255 -0.4274  0.3747
 4599TIP3    H237993   7.037   5.243  16.885  0.1041 -0.5455 -0.8731
 4600TIP3   OH237994   3.864   6.884  17.664  0.2345 -0.5418 -0.1904
 4600TIP3    H137995   3.801   6.865  17.594  0.2527  0.8066 -0.6135
 4600TIP3    H237996   3.947   6.896  17.619  0.7092 -1.7789  0.3122
 4601TIP3   OH237997   0.781   4.299  17.987 -0.1614  0.6887 -0.3572
 4601TIP3    H137998   0.866   4.288  17.944  0.3864  2.3843  0.2189
 4601TIP3    H237999   0.718   4.269  17.922  0.8191  0.2271 -1.1357
 4602TIP3   OH238000   5.866   1.977  17.061  0.3578 -0.3693 -0.2126
 4602TIP3    H138001   5.892   2.018  17.143  0.3444  0.6394 -0.7004
 4602TIP3    H238002   5.800   1.912  17.087  0.2363  0.0445  0.5516
 4603TIP3   OH238003   7.355   4.480  18.087 -0.3416 -0.3120 -0.5070
 4603TIP3    H138004   7.271   4.447  18.057 -0.6588  0.5466 -0.6027
 4603TIP3    H238005   7.362   4.451  18.178 -0.0422 -1.6662 -0.9321
 4604TIP3   OH238006   1.654   4.654  18.447 -0.0989 -0.2993 -0.3316
 4604TIP3    H138007   1.616   4.587  18.504  1.9436 -1.0758  0.1975
 4604TIP3    H238008   1.591   4.662  18.375 -1.6443 -0.9145  0.8710
 4605TIP3   OH238009   3.847   6.310  18.409  0.1126  0.3678 -0.1837
 4605TIP3    H138010   3.795   6.290  18.330 -0.6556 -0.0708  0.4226
 4605TIP3    H238011   3.786   6.359  18.465  1.6964  4.0303 -1.3360
 4606TIP3   OH238012   4.006   0.899  17.985 -0.3890 -0.5613  0.2608
 4606TIP3    H138013   4.026   0.873  18.075  0.5055  1.5277  0.7254
 4606TIP3    H238014   4.048   0.985  17.975 -0.7119 -0.6201 -2.0672
 4607TIP3   OH238015   0.825   3.009  18.772 -0.2523 -0.3884  0.1824
 4607TIP3    H138016   0.801   2.966  18.690 -1.1611 -0.6756  0.5829
 4607TIP3    H238017   0.770   3.088  18.774  0.5060  0.1611  0.0429
 4608TIP3   OH238018   1.603   2.555  18.523  0.5030  0.2040  0.4546
 4608TIP3    H138019   1.599   2.526  18.432  2.1919 -2.2964  1.0527
 4608TIP3    H238020   1.514   2.546  18.556  0.3685 -1.5015 -0.2716
 4609TIP3   OH238021   1.577   0.060  16.417 -0.4687 -0.1229 -0.1553
 4609TIP3    H138022   1.493   0.100  16.394 -1.1818 -0.7526  1.2518
 4609TIP3    H238023   1.570  -0.030  16.386  0.1640  0.1387 -1.0933
 4610TIP3   OH238024   1.039   6.908  18.630  0.0759 -0.3462 -0.2907
 4610TIP3    H138025   1.103   6.925  18.561  0.4002 -0.3848 -0.0051
 4610TIP3    H238026   1.092   6.894  18.709 -0.3077  0.1969  0.0706
 4611TIP3   OH238027   4.951   3.939  16.210 -0.1240 -0.4588 -0.1414
 4611TIP3    H138028   4.857   3.950  16.222 -0.1941 -0.7618 -0.3963
 4611TIP3    H238029   4.987   3.935  16.299 -0.3584 -0.4010 -0.0438
 4612TIP3   OH238030   5.485   6.197  17.846  0.2584  0.3833 -0.4398
 4612TIP3    H138031   5.403   6.166  17.883  0.3567  0.3932 -0.2119
 4612TIP3    H238032   5.541   6.119  17.843  0.1128  0.2917 -0.9591
 4613TIP3   OH238033   7.199   7.538  17.234 -0.3295  0.5319  0.0941
 4613TIP3    H138034   7.266   7.476  17.265 -0.7590  0.9554  2.0354
 4613TIP3    H238035   7.121   7.484  17.220 -0.4056  0.4664  0.7472
 4614TIP3   OH238036   5.464   0.512  16.933 -0.6417 -0.2047  0.3830
 4614TIP3    H138037   5.493   0.434  16.885 -1.9284 -0.1007 -0.6312
 4614TIP3    H238038   5.398   0.552  16.875 -0.3045  1.4033  1.0765
 4615TIP3   OH238039   5.344   5.266  18.523  0.2830  0.2233 -0.1112
 4615TIP3    H138040   5.296   5.337  18.567  0.8185 -0.1894  1.2006
 4615TIP3    H238041   5.295   5.251  18.442 -0.3877  1.4444  0.0313
 4616TIP3   OH238042   1.352   6.618  18.250 -0.1239  0.0628  0.3815
 4616TIP3    H138043   1.396   6.650  18.329 -1.0759 -0.0567  0.9794
 4616TIP3    H238044   1.409   6.645  18.178  0.4585  0.7149  1.0692
 4617TIP3   OH238045   7.259   4.151  17.237  0.4412 -0.8278  0.4596
 4617TIP3    H138046   7.166   4.172  17.244  0.4609 -0.4501 -0.2536
 4617TIP3    H238047   7.266   4.099  17.157  0.6260 -2.2238  1.3600
 4618TIP3   OH238048   0.003   2.463  15.678  0.1653  0.2165 -0.0013
 4618TIP3    H138049   0.036   2.413  15.603  0.3551 -0.6295  0.6425
 4618TIP3    H238050   0.037   2.552  15.663  0.4184  0.0011 -0.7797
 4619TIP3   OH238051   1.971   3.610  16.764 -0.1555  0.5342 -0.0881
 4619TIP3    H138052   2.039   3.657  16.716 -0.6963 -1.2127 -2.8103
 4619TIP3    H238053   1.889   3.647  16.732 -0.5557  0.7967  1.1750
 4620TIP3   OH238054   4.864   0.802  17.868 -0.4333  0.0457  0.1290
 4620TIP3    H138055   4.793   0.818  17.930  0.3703 -0.0674  1.0999
 4620TIP3    H238056   4.908   0.887  17.860  0.2913 -0.2570  0.7844
 4621TIP3   OH238057   6.140   3.349  17.841  0.3893  0.3467  0.3114
 4621TIP3    H138058   6.165   3.304  17.922  1.2161  0.0005 -0.1256
 4621TIP3    H238059   6.142   3.442  17.864 -0.7509  0.2030  1.0604
 4622TIP3   OH238060   1.943   7.098  18.787  0.1491 -0.4271  0.0868
 4622TIP3    H138061   1.984   7.016  18.761 -1.0385  0.0758 -4.2028
 4622TIP3    H238062   2.009   7.165  18.770 -0.8794 -0.0137 -3.0285
 4623TIP3   OH238063   5.975   6.366  17.202  0.3023 -0.4110 -0.0502
 4623TIP3    H138064   6.014   6.280  17.186 -1.3999 -0.8002 -2.7547
 4623TIP3    H238065   6.002   6.389  17.290  2.9871 -2.5300 -0.2055
 4624TIP3   OH238066   3.238   0.860  16.704 -0.2668  0.0086  0.5774
 4624TIP3    H138067   3.153   0.896  16.677 -0.2353  0.7620  1.4753
 4624TIP3    H238068   3.218   0.806  16.781 -0.1477 -1.0739 -0.1176
 4625TIP3   OH238069   3.999   6.447  16.384 -0.4512  0.5102  0.0863
 4625TIP3    H138070   3.989   6.409  16.296 -1.3326  0.9549 -0.0206
 4625TIP3    H238071   4.027   6.537  16.368  0.4003  0.2888  0.3018
 4626TIP3   OH238072   6.835   4.284  17.959 -0.3036 -0.3286  0.8391
 4626TIP3    H138073   6.776   4.302  17.886 -0.1131  2.6115  1.2507
 4626TIP3    H238074   6.902   4.227  17.923 -0.2206  1.0293 -1.3362
 4627TIP3   OH238075   3.929   4.278  18.443  0.0293 -0.8113 -0.2980
 4627TIP3    H138076   3.915   4.373  18.447  1.3327 -0.6241  1.7696
 4627TIP3    H238077   3.848   4.240  18.476 -0.4610 -0.4211 -1.0403
 4628TIP3   OH238078   4.350   5.833  17.362 -0.1138  0.5149  0.1784
 4628TIP3    H138079   4.396   5.776  17.301 -0.0389 -2.0971  2.5036
 4628TIP3    H238080   4.294   5.887  17.306 -0.0198 -1.6626 -2.2191
 4629TIP3   OH238081   0.810   6.621  17.469 -0.0787 -0.0804  1.1234
 4629TIP3    H138082   0.829   6.609  17.376 -2.1583  1.0125  0.4941
 4629TIP3    H238083   0.888   6.588  17.514  0.3376 -2.1582 -0.9210
 4630TIP3   OH238084   3.652   2.721  17.833 -0.2074  0.5081 -0.1025
 4630TIP3    H138085   3.725   2.727  17.895 -1.0590  0.7806  0.8992
 4630TIP3    H238086   3.631   2.628  17.829 -1.5069  0.6873  1.6723
 4631TIP3   OH238087   3.228   7.427  16.985 -0.6892  0.0167 -0.0544
 4631TIP3    H138088   3.171   7.361  17.024  1.0935 -1.1186  0.7138
 4631TIP3    H238089   3.286   7.455  17.056  0.9645 -0.2506 -1.2341
 4632TIP3   OH238090   1.402   0.514  16.416  0.3706 -0.4775 -0.4114
 4632TIP3    H138091   1.352   0.595  16.411 -0.7670 -1.1703 -0.8514
 4632TIP3    H238092   1.335   0.446  16.430  1.4516 -1.1499  1.9682
 4633TIP3   OH238093   1.166   7.383  18.563 -0.3881 -0.7409  0.3309
 4633TIP3    H138094   1.166   7.457  18.624 -0.2534 -0.7531  0.3476
 4633TIP3    H238095   1.165   7.423  18.476  2.4773 -0.6287  0.2635
 4634TIP3   OH238096   3.480   4.406  18.330  0.2719 -0.3261  0.5023
 4634TIP3    H138097   3.406   4.414  18.391 -0.9624 -0.6848 -0.8906
 4634TIP3    H238098   3.444   4.358  18.255  1.7455  0.0867 -0.5096
 4635TIP3   OH238099   2.031   5.491  17.802  0.2942  0.5899  0.7456
 4635TIP3    H138100   1.975   5.418  17.827  0.3547 -0.3989 -1.7015
 4635TIP3    H238101   2.109   5.482  17.857 -0.2874 -0.3574  1.4402
 4636TIP3   OH238102   0.008   2.825  17.798 -0.0414 -0.3439  0.2522
 4636TIP3    H138103   0.068   2.884  17.842  0.1378  0.4879 -1.0603
 4636TIP3    H238104  -0.075   2.834  17.846 -0.0702  1.1324 -0.0408
 4637TIP3   OH238105   1.907   1.703  17.556  0.1794  0.0945 -0.0443
 4637TIP3    H138106   1.885   1.790  17.523 -0.2026 -0.0315 -0.1284
 4637TIP3    H238107   1.840   1.646  17.519 -0.1192 -0.0871  0.7595
 4638TIP3   OH238108   4.916   5.848  16.147  0.4564  0.1593 -0.4540
 4638TIP3    H138109   4.962   5.919  16.101  1.3251 -0.5858 -0.7626
 4638TIP3    H238110   4.923   5.773  16.089 -2.2632  0.3007 -1.0916
 4639TIP3   OH238111   5.267   3.439  16.238 -0.5628 -0.1469  0.3578
 4639TIP3    H138112   5.348   3.480  16.269 -0.6054 -1.5712  2.4972
 4639TIP3    H238113   5.295   3.356  16.201 -0.6006  1.2063 -3.0989
 4640TIP3   OH238114   3.751   6.722  17.861 -0.1109 -0.0143 -0.2300
 4640TIP3    H138115   3.784   6.765  17.782  2.8146 -1.7280 -0.0906
 4640TIP3    H238116   3.671   6.677  17.831 -0.9776  2.1103 -1.3058
 4641TIP3   OH238117   1.544   2.720  17.663  0.2406  0.6082 -0.6136
 4641TIP3    H138118   1.619   2.718  17.603  0.3500 -0.4567 -0.4611
 4641TIP3    H238119   1.485   2.786  17.625 -0.6317 -1.4168 -3.1102
 4642TIP3   OH238120   6.324   1.790  17.579 -0.0121 -0.5884 -0.3649
 4642TIP3    H138121   6.390   1.732  17.616 -0.1622 -0.2345  0.4859
 4642TIP3    H238122   6.374   1.865  17.544 -0.0334  0.4934  1.7806
 4643TIP3   OH238123   2.896   1.667  17.717  0.6055 -0.4709 -0.0484
 4643TIP3    H138124   2.986   1.637  17.734  0.3159 -0.5411  1.5442
 4643TIP3    H238125   2.847   1.587  17.701 -0.1534 -1.0613  4.1319
 4644TIP3   OH238126   1.049   1.777  17.763  0.9861 -0.7402  0.7507
 4644TIP3    H138127   1.078   1.802  17.851 -0.0665  0.4965  0.7710
 4644TIP3    H238128   1.123   1.800  17.706  0.7300  0.7844  1.0108
 4645TIP3   OH238129   4.529   2.048  18.317 -0.1095 -0.2865 -0.0892
 4645TIP3    H138130   4.553   1.958  18.299 -0.4984 -0.3846 -0.1336
 4645TIP3    H238131   4.575   2.070  18.398  1.0779 -0.0796 -0.7958
 4646TIP3   OH238132   3.579   0.890  17.818 -0.6498  0.0812 -0.0353
 4646TIP3    H138133   3.613   0.836  17.890 -0.6621 -0.3187 -0.3243
 4646TIP3    H238134   3.653   0.897  17.757 -1.3765 -1.7384 -1.2155
 4647TIP3   OH238135   1.503   2.383  18.189  0.0749  0.2752  0.3571
 4647TIP3    H138136   1.525   2.409  18.100 -0.2601  3.5533  1.1073
 4647TIP3    H238137   1.584   2.393  18.239 -0.0445 -0.3282  0.6924
 4648TIP3   OH238138   5.842   3.322  17.484 -0.8932 -0.1874 -0.7212
 4648TIP3    H138139   5.900   3.387  17.523 -1.1392  0.6685 -1.7251
 4648TIP3    H238140   5.758   3.367  17.474 -2.1684 -1.7658  1.8389
 4649TIP3   OH238141   4.128   7.377  17.639 -0.0514 -0.0823 -0.3550
 4649TIP3    H138142   4.068   7.339  17.574 -0.3039  1.4732 -1.0689
 4649TIP3    H238143   4.071   7.408  17.709  0.0704 -0.1397 -0.2302
 4650TIP3   OH238144   6.933   2.126  17.442  0.1832  0.2662 -0.0577
 4650TIP3    H138145   6.992   2.150  17.514 -0.8801 -0.3662  1.0506
 4650TIP3    H238146   6.889   2.047  17.472 -2.0247  1.3055 -0.4046
 4651TIP3   OH238147   5.609   4.128  17.892  0.0486  0.2322 -0.2804
 4651TIP3    H138148   5.616   4.037  17.861 -2.5032  0.5776 -2.1605
 4651TIP3    H238149   5.546   4.124  17.964  1.1385  0.3384  0.7047
 4652TIP3   OH238150   2.145   6.396  17.998  0.0184 -0.2212 -0.1201
 4652TIP3    H138151   2.216   6.334  17.984  1.4113  1.1581  0.4794
 4652TIP3    H238152   2.150   6.417  18.092  1.0778  2.4260 -0.6720
 4653TIP3   OH238153   5.843   4.088  18.065 -0.9194  0.4742 -0.2050
 4653TIP3    H138154   5.754   4.122  18.059 -1.0475  0.0667 -0.6598
 4653TIP3    H238155   5.898   4.156  18.025 -1.0712  0.5426 -0.2966
 4654TIP3   OH238156   0.485   3.418  18.532  0.1136 -0.1725 -0.3645
 4654TIP3    H138157   0.506   3.342  18.478  0.2762 -1.3022  1.2041
 4654TIP3    H238158   0.567   3.467  18.538  1.1015 -1.8951  1.6170
 4655TIP3   OH238159   1.383   5.464  17.423 -0.7503 -0.5268  0.3748
 4655TIP3    H138160   1.342   5.379  17.407 -1.0371 -0.1477 -0.9512
 4655TIP3    H238161   1.316   5.515  17.469 -0.4412 -1.1178  1.5352
 4656TIP3   OH238162   2.111   1.170  16.814  0.3805 -0.6717  0.5068
 4656TIP3    H138163   2.098   1.100  16.750  0.5210 -2.7518  2.5623
 4656TIP3    H238164   2.204   1.193  16.806  0.3189 -0.6704 -0.2391
 4657TIP3   OH238165   6.055   2.244  16.046  0.1710 -0.4837  0.2699
 4657TIP3    H138166   5.999   2.188  15.992  1.0536 -0.4046 -0.7635
 4657TIP3    H238167   6.075   2.191  16.123  0.0177 -1.1303 -0.1320
 4658TIP3   OH238168   0.229   4.775  18.794 -0.5002 -0.0371  0.0539
 4658TIP3    H138169   0.172   4.816  18.859  1.4493  1.1979  1.0921
 4658TIP3    H238170   0.263   4.696  18.838 -0.9081 -0.4317 -0.3287
 4659TIP3   OH238171   3.638   5.663  15.713 -0.0162  0.2100  0.2830
 4659TIP3    H138172   3.655   5.662  15.807 -2.0885  0.8169  0.6989
 4659TIP3    H238173   3.722   5.686  15.674  0.5004  1.5448  2.0795
 4660TIP3   OH238174   0.271   5.522  16.789  0.2530 -0.2328 -0.2569
 4660TIP3    H138175   0.342   5.551  16.731  0.8490 -1.6858 -0.3104
 4660TIP3    H238176   0.214   5.469  16.733 -0.5913  0.4864 -0.0916
 4661TIP3   OH238177   1.723   3.942  16.224 -0.0809  0.3452 -0.0691
 4661TIP3    H138178   1.690   3.866  16.175  1.2187 -1.2095  1.3469
 4661TIP3    H238179   1.812   3.916  16.251 -0.0306  1.9149  1.4372
 4662TIP3   OH238180   5.429   2.273  17.357 -0.2687  0.1465  0.0465
 4662TIP3    H138181   5.496   2.243  17.296  1.1728 -0.0479  1.6475
 4662TIP3    H238182   5.385   2.193  17.386 -0.7303  0.2078 -0.4767
 4663TIP3   OH238183   1.085   5.901  18.240  0.1316  0.2165  0.1544
 4663TIP3    H138184   1.139   5.828  18.212 -0.1396 -0.3888  1.1741
 4663TIP3    H238185   1.128   5.978  18.202  1.5638 -0.2645  0.7233
 4664TIP3   OH238186   6.967   7.317  16.882  0.1336  0.6743 -0.0746
 4664TIP3    H138187   7.017   7.298  16.961  0.1973  0.4506 -0.1681
 4664TIP3    H238188   6.918   7.236  16.865  0.4306  0.5786 -0.4899
 4665TIP3   OH238189   3.445   6.609  17.402 -0.1311 -0.4359  0.1937
 4665TIP3    H138190   3.490   6.612  17.318  0.7157  3.5741  0.5682
 4665TIP3    H238191   3.352   6.600  17.380  0.2462 -2.0926 -0.9296
 4666TIP3   OH238192   4.039   7.359  18.785 -0.0649  0.0661 -0.4550
 4666TIP3    H138193   3.998   7.400  18.861  2.6159  1.4299  0.3660
 4666TIP3    H238194   4.052   7.430  18.723 -0.9716 -0.7865 -1.6724
 4667TIP3   OH238195   5.456   3.553  17.592 -0.0958  0.2535  0.3737
 4667TIP3    H138196   5.472   3.586  17.680  1.2901  2.3477 -0.5712
 4667TIP3    H238197   5.416   3.627  17.545  4.1429  1.3403 -2.1466
 4668TIP3   OH238198   0.049   6.302  17.570 -0.4487 -0.3129  0.3820
 4668TIP3    H138199   0.012   6.281  17.656  0.8753  0.3101  1.1278
 4668TIP3    H238200   0.143   6.286  17.579 -0.3654 -0.8891 -1.1631
 4669TIP3   OH238201   3.224   2.412  15.645  0.3483 -0.1965  0.3259
 4669TIP3    H138202   3.189   2.401  15.733  0.9951 -2.6123  0.3692
 4669TIP3    H238203   3.148   2.408  15.587 -0.0369  1.0225  0.7161
 4670TIP3   OH238204   3.574   3.211  17.587 -0.5624  0.1593 -0.3094
 4670TIP3    H138205   3.636   3.184  17.655  1.0546 -0.2810 -1.8774
 4670TIP3    H238206   3.613   3.289  17.548 -1.2830  0.2164 -0.9526
 4671TIP3   OH238207   5.156   6.363  16.443 -0.0998  0.2493  0.4835
 4671TIP3    H138208   5.155   6.286  16.387 -2.3811 -0.5667  1.5301
 4671TIP3    H238209   5.160   6.437  16.382  1.9012 -0.6297 -0.5378
 4672TIP3   OH238210   0.565   3.691  17.546 -0.3408 -0.1558 -0.4778
 4672TIP3    H138211   0.535   3.777  17.572  0.0283 -0.2252  0.2073
 4672TIP3    H238212   0.485   3.640  17.533 -0.5914  0.4992 -1.6851
 4673TIP3   OH238213   3.101   2.577  17.151  0.3747 -0.0774 -0.8568
 4673TIP3    H138214   3.151   2.518  17.208  0.1313  1.7236  1.3612
 4673TIP3    H238215   3.009   2.555  17.168  0.3018  0.3600 -0.6776
 4674TIP3   OH238216   2.323   7.206  16.449 -0.0177 -0.1057  0.3498
 4674TIP3    H138217   2.364   7.173  16.528  1.1089 -1.1289 -0.6227
 4674TIP3    H238218   2.391   7.200  16.382 -0.6720  1.5145 -0.5346
 4675TIP3   OH238219   0.879   5.815  17.279 -0.0822  0.0763 -0.4002
 4675TIP3    H138220   0.889   5.893  17.334 -1.3120 -0.4349  0.6139
 4675TIP3    H238221   0.923   5.837  17.197  0.7445  1.3295  0.3441
 4676TIP3   OH238222   2.797   3.211  17.162 -0.3190 -0.6961  0.5095
 4676TIP3    H138223   2.738   3.256  17.101 -1.0317  0.1164  1.7481
 4676TIP3    H238224   2.802   3.270  17.238  1.4207 -1.1525  0.7942
 4677TIP3   OH238225   0.829   6.061  18.360 -0.5009 -0.8177  0.5905
 4677TIP3    H138226   0.741   6.035  18.335 -0.8782  1.7131 -1.0282
 4677TIP3    H238227   0.824   6.074  18.455 -1.8283 -0.8296  0.5383
 4678TIP3   OH238228   0.392   2.129  17.164 -0.5202 -0.0485 -0.5541
 4678TIP3    H138229   0.470   2.119  17.110 -0.7358  0.1653 -0.9067
 4678TIP3    H238230   0.425   2.165  17.247 -0.2125 -0.2131 -0.6037
 4679TIP3   OH238231   5.550   0.075  16.632  0.1004 -0.1137 -0.5712
 4679TIP3    H138232   5.523   0.165  16.654 -0.2508 -0.2286 -0.5249
 4679TIP3    H238233   5.498   0.053  16.554 -1.1195 -0.9027  0.4294
 4680TIP3   OH238234   0.176   5.051  16.387 -0.3534 -0.1260  0.0143
 4680TIP3    H138235   0.155   5.037  16.295 -0.3974  1.1868 -0.1925
 4680TIP3    H238236   0.269   5.072  16.388 -0.6566  1.3113  0.0820
 4681TIP3   OH238237   0.363   6.425  18.636 -0.0909  0.2539  0.1694
 4681TIP3    H138238   0.281   6.401  18.678 -0.0643 -0.7651 -0.3252
 4681TIP3    H238239   0.353   6.518  18.614 -0.9717  0.2217  0.4099
 4682TIP3   OH238240   5.322   4.373  17.373 -0.1706 -0.6164  0.1726
 4682TIP3    H138241   5.388   4.383  17.305 -1.8090 -0.1189 -1.4066
 4682TIP3    H238242   5.280   4.289  17.354 -0.2802 -0.7417  0.9221
 4683TIP3   OH238243   6.281   5.426  18.120 -0.4493 -0.5517  0.5581
 4683TIP3    H138244   6.354   5.389  18.170  0.0297 -0.1067  0.2048
 4683TIP3    H238245   6.300   5.402  18.029 -1.7284 -2.0535  0.6509
 4684TIP3   OH238246   0.036   4.016  17.862  0.2872 -0.1742 -0.5890
 4684TIP3    H138247   0.038   4.107  17.831  1.1280 -0.1785 -0.5656
 4684TIP3    H238248  -0.040   3.978  17.819  0.6292  0.2087 -1.5457
 4685TIP3   OH238249   1.097   3.142  18.530  0.4366  0.3087 -0.3185
 4685TIP3    H138250   1.123   3.107  18.445 -0.0097  1.0963 -0.7968
 4685TIP3    H238251   1.148   3.223  18.540  2.1904 -0.8960  1.2105
 4686TIP3   OH238252   7.677   7.477  18.836 -0.1097 -0.1973 -0.0542
 4686TIP3    H138253   7.760   7.434  18.857 -1.4632 -1.2644  4.0509
 4686TIP3    H238254   7.689   7.568  18.862 -0.0933 -0.2742  0.2108
 4687TIP3   OH238255   3.641   5.796  18.351  0.1837 -0.5077 -0.0590
 4687TIP3    H138256   3.584   5.729  18.314 -1.2346  0.8984 -0.5702
 4687TIP3    H238257   3.725   5.753  18.364 -0.4895 -2.1710 -0.9882
 4688TIP3   OH238258   2.519   0.285  16.077  0.0748 -0.0838 -0.0230
 4688TIP3    H138259   2.576   0.324  16.011 -0.0180  0.7483  0.3778
 4688TIP3    H238260   2.577   0.262  16.149 -0.1425  1.3190  0.6420
 4689TIP3   OH238261   6.876   3.450  18.357  0.4540  0.6896 -0.2190
 4689TIP3    H138262   6.937   3.490  18.295  3.1748  0.6088  2.2311
 4689TIP3    H238263   6.862   3.361  18.323  3.6585 -0.1337  0.2595
 4690TIP3   OH238264   1.080   4.572  18.248  0.2121  0.6084  0.4095
 4690TIP3    H138265   1.113   4.493  18.206  0.8675  1.0772  0.0188
 4690TIP3    H238266   1.041   4.541  18.329  0.2244 -0.1473  0.1400
 4691TIP3   OH238267   7.336   4.710  18.378  0.2252 -0.4042 -0.0118
 4691TIP3    H138268   7.246   4.719  18.411  0.6202 -0.3414  1.0981
 4691TIP3    H238269   7.376   4.647  18.437  0.3879 -1.9011 -1.6467
 4692TIP3   OH238270   2.520   3.825  18.539 -0.1020  0.1872  0.1664
 4692TIP3    H138271   2.425   3.826  18.546 -0.0113  2.1869  1.9569
 4692TIP3    H238272   2.547   3.916  18.551  2.0200 -0.2040 -1.0276
 4693TIP3   OH238273   2.322   2.252  17.238 -0.1501 -0.0426  0.1189
 4693TIP3    H138274   2.280   2.267  17.323 -0.2558  0.7622 -0.0695
 4693TIP3    H238275   2.415   2.262  17.254 -0.1374 -0.3477  0.2337
 4694TIP3   OH238276   5.676   4.810  18.069  0.2335  0.2046  0.0977
 4694TIP3    H138277   5.759   4.856  18.057  1.7084 -2.4706 -1.0265
 4694TIP3    H238278   5.623   4.838  17.995  0.2926  1.5556  0.5380
 4695TIP3   OH238279   5.418   1.486  17.372 -0.1921 -0.6180  0.6365
 4695TIP3    H138280   5.438   1.509  17.281  1.5950  2.4746  1.6454
 4695TIP3    H238281   5.323   1.484  17.376 -0.4179  2.3310 -0.7388
 4696TIP3   OH238282   4.506   3.751  18.070 -1.0278 -0.7795  0.3639
 4696TIP3    H138283   4.436   3.747  18.005 -2.9117  0.2361  2.1979
 4696TIP3    H238284   4.565   3.820  18.038 -3.4654  1.8064  1.0314
 4697TIP3   OH238285   6.943   5.232  16.113  0.0857 -0.0027  0.3757
 4697TIP3    H138286   6.914   5.272  16.031 -1.4879 -0.7723  0.5163
 4697TIP3    H238287   7.038   5.224  16.104  0.0242  0.6377 -1.0426
 4698TIP3   OH238288   1.168   2.971  16.099  0.1764 -0.3998  0.6597
 4698TIP3    H138289   1.208   2.926  16.025  2.5282 -0.0620  1.6477
 4698TIP3    H238290   1.107   3.033  16.059  0.4939 -1.0506 -0.9174
 4699TIP3   OH238291   3.376   7.387  18.695 -0.1668 -0.2097  0.0606
 4699TIP3    H138292   3.313   7.352  18.631 -0.5525 -1.1238  0.9038
 4699TIP3    H238293   3.327   7.455  18.742 -0.1901 -0.2022  0.0264
 4700TIP3   OH238294   2.835   4.122  17.976 -1.0411  0.9538  0.3231
 4700TIP3    H138295   2.757   4.135  18.030 -0.0134 -1.4645  2.6161
 4700TIP3    H238296   2.827   4.033  17.943  1.3139  0.0829  1.8013
 4701TIP3   OH238297   7.205   7.547  18.417 -0.6434 -0.2131  0.1768
 4701TIP3    H138298   7.294   7.539  18.451 -0.2814 -2.0858 -1.0491
 4701TIP3    H238299   7.166   7.461  18.432 -2.2611  0.5775  0.6664
 4702TIP3   OH238300   6.049   7.143  17.493 -0.0360  0.0320 -0.1612
 4702TIP3    H138301   6.096   7.226  17.495 -0.6981  0.4065  0.0825
 4702TIP3    H238302   5.959   7.167  17.469 -0.4540 -0.5022  0.8265
 4703TIP3   OH238303   1.758   0.955  18.303  0.0460  0.2229  0.5153
 4703TIP3    H138304   1.694   0.886  18.316 -0.9116  0.8218 -0.8529
 4703TIP3    H238305   1.840   0.908  18.284 -0.8606 -0.5825 -1.7135
 4704TIP3   OH238306   6.608   7.538  17.606  0.5406 -0.3498 -0.1759
 4704TIP3    H138307   6.584   7.630  17.618  1.9313  0.6203 -3.5523
 4704TIP3    H238308   6.640   7.510  17.691 -0.2227  2.1938  1.0480
 4705TIP3   OH238309   7.268   5.092  17.508 -0.6057 -0.1464  0.7013
 4705TIP3    H138310   7.201   5.142  17.460  0.2313  0.4699  0.1503
 4705TIP3    H238311   7.350   5.137  17.487  0.3666 -2.4717 -0.8295
 4706TIP3   OH238312   5.668   0.847  17.600 -0.2734 -0.1821  0.6526
 4706TIP3    H138313   5.662   0.915  17.533  2.3141 -1.2132 -0.7733
 4706TIP3    H238314   5.698   0.894  17.679 -0.2088  0.5769  0.1875
 4707TIP3   OH238315   1.487   7.184  18.186  0.2078  0.1307 -0.1481
 4707TIP3    H138316   1.415   7.123  18.167  0.1771 -0.7643  2.4992
 4707TIP3    H238317   1.446   7.257  18.231  0.7224  0.4798 -0.2361
 4708TIP3   OH238318   3.226   2.192  16.901 -0.3427 -0.8246 -0.4299
 4708TIP3    H138319   3.278   2.174  16.979 -1.0745  0.0864  0.2907
 4708TIP3    H238320   3.223   2.288  16.895 -0.1188 -0.8809 -1.7059
 4709TIP3   OH238321   4.501   5.562  16.898 -0.4081  0.0620 -0.2389
 4709TIP3    H138322   4.444   5.619  16.949 -0.9125 -1.3602  0.8845
 4709TIP3    H238323   4.517   5.487  16.956  2.4110  0.2633 -0.6003
 4710TIP3   OH238324   4.386   2.496  18.334  0.3748  0.1348 -0.4460
 4710TIP3    H138325   4.430   2.479  18.417 -0.9332 -0.2038  0.2199
 4710TIP3    H238326   4.379   2.591  18.329 -3.3275  0.2091  2.0483
 4711TIP3   OH238327   4.901   0.972  16.675 -0.0074 -0.7928 -0.3742
 4711TIP3    H138328   4.813   0.936  16.682  0.5447 -1.8840  3.4998
 4711TIP3    H238329   4.894   1.061  16.709  0.6299 -1.6936  2.4077
 4712TIP3   OH238330   3.438   2.069  15.876 -0.0983  0.1192  0.3937
 4712TIP3    H138331   3.378   2.094  15.946 -1.9446  0.0992 -1.0794
 4712TIP3    H238332   3.436   2.143  15.815  0.1281 -0.5473 -0.4522
 4713TIP3   OH238333   4.534   3.004  17.000 -0.6432  0.1883 -0.4106
 4713TIP3    H138334   4.546   2.909  17.002 -1.5510  0.0678  0.4183
 4713TIP3    H238335   4.618   3.039  16.972 -0.0236 -0.8237  0.1289
 4714TIP3   OH238336   3.845   2.869  16.618 -0.5825 -0.5546  0.5483
 4714TIP3    H138337   3.862   2.810  16.545  1.2657  1.5026 -0.8382
 4714TIP3    H238338   3.892   2.949  16.595 -1.6274  0.9046  3.0692
 4715TIP3   OH238339   3.776   1.645  16.264 -0.1657 -0.9302 -0.1313
 4715TIP3    H138340   3.846   1.615  16.322 -0.9692 -1.2899  0.6818
 4715TIP3    H238341   3.709   1.679  16.323 -1.5633 -2.4843 -0.7592
 4716TIP3   OH238342   2.355   1.202  17.835  0.8279 -0.4167 -0.3333
 4716TIP3    H138343   2.340   1.140  17.764  2.5765 -0.7091 -0.4901
 4716TIP3    H238344   2.355   1.148  17.915 -1.0495 -0.1008 -0.0717
 4717TIP3   OH238345   5.195   2.484  18.011  0.2979 -0.2721 -0.7425
 4717TIP3    H138346   5.156   2.457  17.928 -0.7091 -1.3885  0.0667
 4717TIP3    H238347   5.124   2.530  18.056  1.3087  1.8082 -1.1358
 4718TIP3   OH238348   2.142   7.182  16.755  0.1719 -0.1300 -0.0338
 4718TIP3    H138349   2.229   7.141  16.753 -0.0271 -0.5690  0.2226
 4718TIP3    H238350   2.152   7.261  16.702  0.7916 -0.0562  0.1798
 4719TIP3   OH238351   2.684   6.675  18.594 -0.3327  0.1968  0.1738
 4719TIP3    H138352   2.747   6.686  18.522  0.3619  1.0269  0.8992
 4719TIP3    H238353   2.671   6.580  18.599  0.2848  0.0671 -0.4671
 4720TIP3   OH238354   0.471   1.480  18.316 -0.2081 -0.0857 -0.0217
 4720TIP3    H138355   0.458   1.431  18.398 -0.7599 -1.5210 -0.9266
 4720TIP3    H238356   0.565   1.471  18.298 -0.7763 -4.5565 -2.2840
 4721TIP3   OH238357   5.700   6.428  16.824  0.0091  0.0225  0.0453
 4721TIP3    H138358   5.621   6.402  16.870 -0.0871  0.4255  0.1118
 4721TIP3    H238359   5.754   6.472  16.890 -0.5327  1.4499 -0.4080
 4722TIP3   OH238360   4.193   4.727  18.486  0.0787  0.3088  0.5611
 4722TIP3    H138361   4.107   4.712  18.446 -0.0710  0.8270  0.6744
 4722TIP3    H238362   4.195   4.667  18.561 -1.0130  1.6757  1.7479
 4723TIP3   OH238363   5.370   2.248  17.710  0.6055 -0.2156  0.3418
 4723TIP3    H138364   5.318   2.208  17.640  0.2395  0.1252  0.4199
 4723TIP3    H238365   5.355   2.342  17.701  1.1156 -0.1194  0.4409
 4724TIP3   OH238366   3.220   6.191  16.929 -0.1533  0.0092 -0.5577
 4724TIP3    H138367   3.135   6.186  16.885 -0.2294 -0.1223 -0.3976
 4724TIP3    H238368   3.276   6.239  16.868 -0.8835  1.8518  0.1516
 4725TIP3   OH238369   3.368   0.730  17.253  0.3548  0.3537  0.0129
 4725TIP3    H138370   3.413   0.810  17.276  2.4362 -0.8791  0.4717
 4725TIP3    H238371   3.385   0.718  17.160  0.9034 -0.0334  0.1546
 4726TIP3   OH238372   4.787   0.189  18.521  0.0256  0.2571  0.2015
 4726TIP3    H138373   4.768   0.112  18.575 -0.7602  0.4460  0.2179
 4726TIP3    H238374   4.700   0.224  18.500  0.3036  0.1494 -1.2409
 4727TIP3   OH238375   3.473   5.088  18.385  0.4834  0.4299 -0.0321
 4727TIP3    H138376   3.431   5.043  18.458  2.2509  0.8900  1.3147
 4727TIP3    H238377   3.406   5.149  18.352 -0.1265  0.7070  1.6504
 4728TIP3   OH238378   2.183   1.252  16.383  0.4682  0.0785 -0.5757
 4728TIP3    H138379   2.128   1.327  16.406  0.4191  0.0911 -0.7286
 4728TIP3    H238380   2.126   1.197  16.329 -0.3571 -1.3662  1.6205
 4729TIP3   OH238381   1.756   6.543  16.290 -0.3577 -0.2626 -0.7836
 4729TIP3    H138382   1.796   6.508  16.211 -1.6837 -0.3186 -1.4639
 4729TIP3    H238383   1.666   6.510  16.288 -0.1698 -1.0644  1.2538
 4730TIP3   OH238384   5.874   3.251  17.876 -0.0767 -0.4240  0.3636
 4730TIP3    H138385   5.967   3.257  17.856  0.1946 -1.9546  0.9983
 4730TIP3    H238386   5.836   3.213  17.796 -0.4990  1.9227 -0.6140
 4731TIP3   OH238387   2.273   6.915  18.727 -0.2548 -0.2008 -0.1135
 4731TIP3    H138388   2.330   6.862  18.672  1.0558 -0.8440  1.7279
 4731TIP3    H238389   2.325   6.994  18.745 -1.0388  0.4206 -0.5498
 4732TIP3   OH238390   3.523   3.487  17.717 -0.0380  0.8146 -0.2682
 4732TIP3    H138391   3.515   3.460  17.809 -2.5533  1.0033 -0.3599
 4732TIP3    H238392   3.542   3.406  17.670 -2.8573 -0.1192  0.0042
 4733TIP3   OH238393   7.059   6.177  17.939 -0.8492  0.2013  0.7091
 4733TIP3    H138394   7.002   6.201  18.012 -1.2852  0.1678  0.3858
 4733TIP3    H238395   7.004   6.187  17.862 -0.6056 -0.4599  0.4457
 4734TIP3   OH238396   7.393   5.452  18.521  0.1054 -0.0684  0.2125
 4734TIP3    H138397   7.481   5.490  18.530 -0.4141  1.1097  0.4855
 4734TIP3    H238398   7.349   5.474  18.603 -0.5595 -0.3306 -0.0677
 4735TIP3   OH238399   7.658   5.006  18.478  0.5732 -0.1721 -0.0348
 4735TIP3    H138400   7.600   5.068  18.522  2.0306 -1.1211  3.5545
 4735TIP3    H238401   7.608   4.924  18.475  0.6495 -0.2261  0.2357
 4736TIP3   OH238402   5.495   1.483  16.537  0.0888 -0.4316  0.2785
 4736TIP3    H138403   5.462   1.490  16.447 -0.8919  0.8312  0.7160
 4736TIP3    H238404   5.493   1.572  16.571  0.4104 -0.8983  1.5823
 4737TIP3   OH238405   0.428   4.947  18.648  0.4735  0.1471 -0.2227
 4737TIP3    H138406   0.512   4.904  18.632  0.3364 -0.1736 -0.1033
 4737TIP3    H238407   0.382   4.887  18.707  0.2174  0.3881 -0.1745
 4738TIP3   OH238408   5.793   6.549  17.703  0.0754  0.1856  0.0746
 4738TIP3    H138409   5.840   6.633  17.704 -0.9874  0.8563  2.5625
 4738TIP3    H238410   5.702   6.573  17.688 -0.0474 -0.6825 -0.5967
 4739TIP3   OH238411   3.130   0.161  17.616 -0.1161  0.5117  0.0469
 4739TIP3    H138412   3.124   0.243  17.566  0.8270  0.0838 -0.7912
 4739TIP3    H238413   3.176   0.185  17.696  2.6344  0.3217 -1.3793
 4740TIP3   OH238414   3.860   4.233  16.550  0.0760  0.0302  0.4919
 4740TIP3    H138415   3.827   4.152  16.590 -2.1915  1.6089  2.0390
 4740TIP3    H238416   3.845   4.220  16.456 -4.0897  0.0729  0.9634
 4741TIP3   OH238417   3.281   5.268  18.299  0.7020 -0.0548  0.3189
 4741TIP3    H138418   3.238   5.342  18.343  0.1144 -0.7965  1.0041
 4741TIP3    H238419   3.223   5.194  18.313  0.8860 -0.4903 -1.0577
 4742TIP3   OH238420   1.062   6.374  16.605 -0.2754 -0.2388  0.7229
 4742TIP3    H138421   1.150   6.386  16.569 -0.4508 -0.1651  0.3107
 4742TIP3    H238422   1.013   6.451  16.576 -0.7874 -0.8313 -0.0433
 4743TIP3   OH238423   6.865   6.041  17.107  0.1135  0.0855 -0.0079
 4743TIP3    H138424   6.833   5.991  17.032  0.2641  1.9800 -1.3922
 4743TIP3    H238425   6.800   6.024  17.176 -0.9381 -0.4029 -1.0751
 4744TIP3   OH238426   1.666   1.506  17.123  0.3661  0.0917  0.6459
 4744TIP3    H138427   1.581   1.545  17.144 -0.1539 -1.6181  1.8956
 4744TIP3    H238428   1.650   1.411  17.126  1.7762 -0.2819 -1.4627
 4745TIP3   OH238429   4.962   7.205  17.082  0.0086  0.5408  0.2332
 4745TIP3    H138430   5.012   7.123  17.080  0.4815  0.7518  2.0170
 4745TIP3    H238431   4.980   7.246  16.997  1.8439 -0.0091  0.3162
 4746TIP3   OH238432   3.840   0.512  16.155  0.0418  0.3483 -0.5809
 4746TIP3    H138433   3.761   0.517  16.208  0.0700 -2.0344 -0.2257
 4746TIP3    H238434   3.851   0.601  16.120 -2.8327  0.7201 -0.7598
 4747TIP3   OH238435   3.493   7.633  17.726  0.4735 -0.2279  0.1949
 4747TIP3    H138436   3.550   7.633  17.649  1.2199 -0.0942  0.7359
 4747TIP3    H238437   3.495   7.724  17.757 -2.1305  0.4338 -1.2774
 4748TIP3   OH238438   4.469   5.315  16.343  0.6832  0.0550  0.1288
 4748TIP3    H138439   4.506   5.327  16.255 -1.0900  1.1740 -0.5159
 4748TIP3    H238440   4.545   5.318  16.401  1.7420  0.9933 -1.2163
 4749TIP3   OH238441   2.838   2.929  16.715 -0.6424 -0.4691  0.6228
 4749TIP3    H138442   2.907   2.960  16.656 -0.8394 -0.7489  0.2415
 4749TIP3    H238443   2.833   2.996  16.783 -0.9954  0.2948 -0.1396
 4750TIP3   OH238444   3.751   0.404  17.146 -0.4772 -0.6419  0.0025
 4750TIP3    H138445   3.773   0.490  17.183 -1.6458 -0.1990 -0.2565
 4750TIP3    H238446   3.757   0.417  17.051  0.1830 -1.0974 -0.0214
 4751TIP3   OH238447   2.680   4.171  18.202 -0.6887  0.3474 -0.5745
 4751TIP3    H138448   2.682   4.259  18.240 -1.5436  0.3265 -0.4552
 4751TIP3    H238449   2.596   4.166  18.158  0.2326  0.3239 -2.4044
 4752TIP3   OH238450   4.430   7.186  18.459  0.8126 -0.2044  0.2641
 4752TIP3    H138451   4.358   7.142  18.504  0.3417  1.2831  1.0306
 4752TIP3    H238452   4.478   7.230  18.529  3.2352 -2.1335 -0.0585
 4753TIP3   OH238453   6.299   2.750  17.505  0.5956 -0.5265 -0.4433
 4753TIP3    H138454   6.226   2.760  17.565  0.1494 -0.9221 -0.9143
 4753TIP3    H238455   6.259   2.746  17.418  1.2305  0.0514 -0.7762
 4754TIP3   OH238456   0.406   2.758  17.402 -0.6982 -0.2471  0.3338
 4754TIP3    H138457   0.475   2.723  17.346 -0.4248  0.7521  0.0329
 4754TIP3    H238458   0.452   2.790  17.480 -0.7252  0.9377 -0.1090
 4755TIP3   OH238459   1.595   6.908  16.589 -0.1668  0.1148  0.2371
 4755TIP3    H138460   1.682   6.873  16.572  0.1352  0.7395  0.4883
 4755TIP3    H238461   1.610   6.993  16.630 -0.8906 -0.3639  1.5643
 4756TIP3   OH238462   4.365   4.104  18.059 -0.0343  0.6515 -0.2970
 4756TIP3    H138463   4.321   4.044  17.998 -1.9501  1.7692 -0.0849
 4756TIP3    H238464   4.325   4.086  18.144  1.1646  0.5315  0.2643
 4757TIP3   OH238465   0.667   3.081  18.210  0.4906 -0.4728  0.0280
 4757TIP3    H138466   0.758   3.051  18.208  0.2510 -1.2086 -1.5726
 4757TIP3    H238467   0.663   3.147  18.141  0.2271  0.9406  1.3572
 4758TIP3   OH238468   3.008   5.542  18.025 -0.1589 -0.3161 -0.7057
 4758TIP3    H138469   2.967   5.490  17.956  1.9183 -2.1416 -0.7048
 4758TIP3    H238470   3.098   5.556  17.994  0.2820  0.4439  0.8020
 4759TIP3   OH238471   2.106   2.005  17.198 -0.2686 -0.0166 -0.0994
 4759TIP3    H138472   2.188   2.050  17.220  1.5035 -3.2377  0.4069
 4759TIP3    H238473   2.110   1.994  17.103 -0.0162 -0.3253 -0.0538
 4760TIP3   OH238474   6.870   1.953  17.174 -0.5150 -0.4764  0.5542
 4760TIP3    H138475   6.961   1.975  17.155 -0.3998 -0.6883  0.8488
 4760TIP3    H238476   6.856   1.868  17.134 -0.6608 -0.3293  0.2871
 4761TIP3   OH238477   3.104   1.549  19.236 -0.4123  0.2329  0.4767
 4761TIP3    H138478   3.046   1.624  19.229 -0.6340 -0.0130 -0.4336
 4761TIP3    H238479   3.185   1.576  19.192 -0.8361 -0.3811 -0.7260
 4762TIP3   OH238480   4.702   1.281  18.791  0.0847  0.2065  0.1440
 4762TIP3    H138481   4.615   1.246  18.811  0.3529 -0.0977  0.8307
 4762TIP3    H238482   4.709   1.275  18.696  0.8690 -3.5393  0.2844
 4763TIP3   OH238483   4.809   0.045  16.311 -0.2872  0.3258  0.0485
 4763TIP3    H138484   4.812  -0.051  16.314 -2.0480  0.1917 -1.2090
 4763TIP3    H238485   4.867   0.069  16.239  0.7889  0.3022  0.8673
 4764TIP3   OH238486   5.822   6.756  18.406 -0.2745 -0.1937 -0.2511
 4764TIP3    H138487   5.825   6.664  18.377  0.4511  0.0382 -0.9429
 4764TIP3    H238488   5.738   6.763  18.451 -0.4445 -1.1456 -0.3814
 4765TIP3   OH238489   1.125   5.566  17.493 -0.2845 -0.2187 -0.5841
 4765TIP3    H138490   1.047   5.621  17.485  0.4866  0.8727 -0.8068
 4765TIP3    H238491   1.092   5.481  17.525 -1.4365  0.5351  0.3045
 4766TIP3   OH238492   2.809   5.080  17.107  0.3484 -0.3929 -0.1285
 4766TIP3    H138493   2.775   5.003  17.153  0.2754  0.0717  0.6136
 4766TIP3    H238494   2.903   5.078  17.125  0.1687  0.4339  1.0713
 4767TIP3   OH238495   3.904   5.669  18.247  0.1663 -0.1420  0.1377
 4767TIP3    H138496   3.959   5.602  18.287 -1.3214  0.0226  2.6441
 4767TIP3    H238497   3.955   5.750  18.254  0.9187 -0.5219 -0.6272
 4768TIP3   OH238498   4.471   7.235  17.094  0.1719  0.2602 -0.1980
 4768TIP3    H138499   4.469   7.143  17.065 -1.8261 -0.2006  1.2193
 4768TIP3    H238500   4.530   7.235  17.169  1.1101  0.3960 -0.9202
 4769TIP3   OH238501   1.707   3.370  18.117  0.8072 -0.1848  0.3745
 4769TIP3    H138502   1.748   3.450  18.083  0.5708 -0.0250  0.4621
 4769TIP3    H238503   1.647   3.343  18.049  1.5375 -0.7929 -0.0442
 4770TIP3   OH238504   2.698   3.622  18.053 -0.4675 -0.2387  0.4694
 4770TIP3    H138505   2.745   3.691  18.007  1.9467 -2.5998 -0.8589
 4770TIP3    H238506   2.608   3.630  18.022 -0.0141  1.5724 -0.5174
 4771TIP3   OH238507   1.723   1.472  17.983 -0.0727  0.1343  0.1904
 4771TIP3    H138508   1.756   1.392  17.942  0.4173  0.8759 -0.9157
 4771TIP3    H238509   1.802   1.518  18.013 -0.3205  0.3844  0.4692
 4772TIP3   OH238510   5.787   2.520  17.689  0.0165 -0.0004 -0.6930
 4772TIP3    H138511   5.812   2.593  17.633  0.1128 -0.2889 -1.0271
 4772TIP3    H238512   5.706   2.486  17.651 -0.0754 -0.0153 -0.4883
 4773TIP3   OH238513   6.522   1.790  16.222  0.0709  0.6221 -0.6327
 4773TIP3    H138514   6.608   1.825  16.245  0.8962 -1.3205 -0.5120
 4773TIP3    H238515   6.459   1.851  16.260  1.3936  0.2775  2.3722
 4774TIP3   OH238516   3.212   7.072  17.743  0.2800  0.3215 -0.4211
 4774TIP3    H138517   3.153   7.068  17.668  0.4509  0.1395 -0.5484
 4774TIP3    H238518   3.285   7.125  17.712  0.7613 -0.4656 -0.6781
 4775TIP3   OH238519   7.219   5.610  16.976 -0.7049  0.1521  0.6020
 4775TIP3    H138520   7.256   5.658  16.902 -1.2834  1.7466  1.2978
 4775TIP3    H238521   7.274   5.532  16.984  0.6538  0.9705 -0.2373
 4776TIP3   OH238522   3.590   1.544  18.405 -0.2032  0.0961 -0.4914
 4776TIP3    H138523   3.675   1.581  18.429  0.3967 -1.0796 -0.7063
 4776TIP3    H238524   3.563   1.594  18.328  0.3073  0.4675 -0.4366
 4777TIP3   OH238525   1.149   1.032  18.323  0.5143  0.4668  0.4717
 4777TIP3    H138526   1.194   1.023  18.407  1.5097  1.4461  0.0761
 4777TIP3    H238527   1.218   1.020  18.258  0.2458  2.1238 -0.1577
 4778TIP3   OH238528   5.882   6.755  17.407 -0.4387  0.1055 -0.0643
 4778TIP3    H138529   5.913   6.826  17.351 -3.7562  1.3435 -0.5562
 4778TIP3    H238530   5.879   6.792  17.495 -0.1865 -0.1480  0.0561
 4779TIP3   OH238531   5.814   0.116  17.854  0.0196 -0.1525  0.5896
 4779TIP3    H138532   5.847   0.030  17.880 -0.3341 -1.1234 -1.9216
 4779TIP3    H238533   5.876   0.147  17.787 -0.7264  0.8193  0.3124
 4780TIP3   OH238534   4.958   3.181  15.742  0.1108 -0.4927  0.1707
 4780TIP3    H138535   4.959   3.141  15.655  0.3245 -2.7362  1.1441
 4780TIP3    H238536   5.033   3.240  15.743 -0.7554  0.7520 -1.6279
 4781TIP3   OH238537   0.931   2.088  17.981  0.2553 -0.1002 -0.2006
 4781TIP3    H138538   0.925   2.179  17.952 -0.1752 -0.3276 -0.8543
 4781TIP3    H238539   1.003   2.087  18.044 -0.5906  0.9450  0.8131
 4782TIP3   OH238540   7.067   1.649  17.475  0.4004 -0.7389  0.0071
 4782TIP3    H138541   7.095   1.698  17.398 -1.5763  0.0778 -0.2454
 4782TIP3    H238542   7.095   1.559  17.458 -1.2222 -0.8872 -2.3669
 4783TIP3   OH238543   7.521   0.474  18.561 -0.6335  0.4315 -0.2639
 4783TIP3    H138544   7.601   0.520  18.533 -0.0100 -0.4575  0.0254
 4783TIP3    H238545   7.510   0.405  18.495  0.0974 -0.8401  0.9002
 4784TIP3   OH238546   7.626   6.620  16.973 -0.4542  0.2645 -0.2139
 4784TIP3    H138547   7.696   6.573  17.019 -1.6880 -0.1658  1.3071
 4784TIP3    H238548   7.673   6.681  16.915  1.1922  0.1279  0.8831
 4785TIP3   OH238549   6.256   0.272  16.748  0.0233 -0.4011  0.1082
 4785TIP3    H138550   6.237   0.324  16.826  0.7662 -0.6918  0.4886
 4785TIP3    H238551   6.224   0.185  16.768  2.0344 -1.0049  0.9231
 4786TIP3   OH238552   0.047   3.825  18.090  0.0643  0.0806  0.3564
 4786TIP3    H138553   0.039   3.876  18.171 -1.9364 -0.0537  0.2891
 4786TIP3    H238554   0.041   3.890  18.020  0.6073  0.0664  0.2913
 4787TIP3   OH238555   2.125   2.647  16.082  0.4985 -0.5302 -0.3454
 4787TIP3    H138556   2.220   2.651  16.088  0.3925  1.7871  1.2025
 4787TIP3    H238557   2.095   2.648  16.173 -1.0308 -2.2189 -0.7669
 4788TIP3   OH238558   1.066   3.649  16.855  0.3223  0.5589 -0.5868
 4788TIP3    H138559   0.994   3.607  16.809  0.5300  0.2415 -0.6213
 4788TIP3    H238560   1.071   3.604  16.940  1.5035 -0.5201 -1.1965
 4789TIP3   OH238561   4.007   7.182  17.473 -0.0080 -0.2546 -0.2714
 4789TIP3    H138562   4.030   7.090  17.490 -0.9786 -0.4337  0.0978
 4789TIP3    H238563   4.044   7.199  17.386  1.7257 -0.4519  0.3780
 4790TIP3   OH238564   3.820   1.183  18.155  0.0407  0.0959  0.4354
 4790TIP3    H138565   3.746   1.192  18.095 -1.4090 -0.2722  2.1073
 4790TIP3    H238566   3.896   1.169  18.097 -1.4233 -1.1577 -1.2751
 4791TIP3   OH238567   0.212   5.070  17.788  0.0723  0.3298 -0.3731
 4791TIP3    H138568   0.119   5.088  17.775 -0.0931  0.6767  1.1282
 4791TIP3    H238569   0.257   5.148  17.755 -0.4071  1.8043  2.2509
 4792TIP3   OH238570   4.266   5.322  18.103  0.0752  0.4270 -0.1274
 4792TIP3    H138571   4.299   5.323  18.013  1.2488  0.0664  0.2835
 4792TIP3    H238572   4.338   5.286  18.155 -0.5153  0.8102  0.9939
 4793TIP3   OH238573   7.351   0.463  17.115 -0.5072  0.2724 -0.1824
 4793TIP3    H138574   7.362   0.514  17.035 -0.8956  0.4932 -0.1013
 4793TIP3    H238575   7.388   0.377  17.095 -3.0548 -0.6287 -1.5719
 4794TIP3   OH238576   3.179   0.098  16.604 -0.3370 -0.2112  0.0520
 4794TIP3    H138577   3.160   0.038  16.677 -0.4815  1.1910  1.2065
 4794TIP3    H238578   3.161   0.046  16.525  0.6653 -2.0563  0.9673
 4795TIP3   OH238579   1.179   3.632  18.756  0.2292 -0.1237 -0.1774
 4795TIP3    H138580   1.097   3.634  18.706 -0.1267  0.2392  0.4140
 4795TIP3    H238581   1.157   3.670  18.841  1.0798  0.2530 -0.1089
 4796TIP3   OH238582   4.139   1.589  16.895  0.0940 -0.0402 -0.5157
 4796TIP3    H138583   4.055   1.584  16.850  0.0971 -0.2165 -0.4997
 4796TIP3    H238584   4.117   1.597  16.988  0.0739  0.8235 -0.5784
 4797TIP3   OH238585   0.521   0.629  17.030 -0.6092  0.0415  0.4114
 4797TIP3    H138586   0.582   0.658  17.098  2.8251  0.8000 -2.6935
 4797TIP3    H238587   0.485   0.710  16.995  3.1870  0.4976 -3.1909
 4798TIP3   OH238588   5.467   4.439  18.104  0.3895 -0.1627 -0.5093
 4798TIP3    H138589   5.438   4.357  18.144 -3.2577  1.7209  1.2827
 4798TIP3    H238590   5.414   4.449  18.025  0.0112  0.8912 -0.1501
 4799TIP3   OH238591   5.273   1.487  17.737 -0.1244  0.3567 -0.2366
 4799TIP3    H138592   5.363   1.486  17.767  0.1058 -0.2476 -0.9091
 4799TIP3    H238593   5.249   1.395  17.727  0.6838  0.3895 -4.2610
 4800TIP3   OH238594   4.229   7.437  16.483 -0.1914  0.4253  0.2274
 4800TIP3    H138595   4.307   7.474  16.441 -0.6746  1.8937  0.5739
 4800TIP3    H238596   4.210   7.358  16.433  1.8918 -0.3248  0.5302
 4801TIP3   OH238597   3.316   2.929  18.665  0.1220 -0.2218 -0.0571
 4801TIP3    H138598   3.228   2.967  18.657  0.5806  0.7863 -0.4343
 4801TIP3    H238599   3.368   2.976  18.601  1.3667  0.4525  1.3947
 4802TIP3   OH238600   1.069   1.160  17.969 -0.1033 -0.3601  0.0452
 4802TIP3    H138601   1.010   1.152  18.044 -0.6480 -1.2884 -0.4550
 4802TIP3    H238602   1.149   1.197  18.005 -0.5913 -0.1640  0.9606
 4803TIP3   OH238603   4.636   0.776  18.433  0.2684  0.2868 -0.1489
 4803TIP3    H138604   4.729   0.757  18.431  0.2376 -0.6322  2.6112
 4803TIP3    H238605   4.617   0.796  18.525 -2.1848  0.8868 -0.6942
 4804TIP3   OH238606   4.454   2.156  17.897  0.1063 -0.1299  0.2298
 4804TIP3    H138607   4.466   2.233  17.953 -1.0142 -0.9145  1.6106
 4804TIP3    H238608   4.474   2.187  17.809 -3.4083  2.6943  0.1832
 4805TIP3   OH238609   6.893   5.522  17.732 -0.0500  0.0680  0.7937
 4805TIP3    H138610   6.838   5.448  17.705  0.1177  0.0741  0.4252
 4805TIP3    H238611   6.842   5.566  17.800 -0.0727 -0.4877  1.1406
 4806TIP3   OH238612   4.124   6.487  17.754 -0.2891 -0.0069 -0.7732
 4806TIP3    H138613   4.195   6.451  17.808 -2.0094 -0.2098  1.5109
 4806TIP3    H238614   4.080   6.410  17.719  0.6687  0.1232 -2.3380
 4807TIP3   OH238615   1.068   2.039  16.741  0.1478 -0.0131  0.0714
 4807TIP3    H138616   1.092   1.946  16.735 -2.6828 -0.8993  0.9241
 4807TIP3    H238617   1.066   2.069  16.650  0.4578 -0.9892 -0.2643
 4808TIP3   OH238618   4.328   0.816  18.035  0.1474  0.3069  0.1143
 4808TIP3    H138619   4.233   0.827  18.047  0.1365 -0.6756  1.0822
 4808TIP3    H238620   4.336   0.738  17.981  0.4209 -0.9207  1.8422
 4809TIP3   OH238621   3.126   1.272  19.288  0.4082 -0.5217 -0.1794
 4809TIP3    H138622   3.118   1.366  19.273  0.7128 -0.5854 -0.7608
 4809TIP3    H238623   3.147   1.264  19.381  1.2894  0.0442 -0.3152
 4810TIP3   OH238624   3.836   2.868  18.033 -0.3772 -0.4175  0.4427
 4810TIP3    H138625   3.867   2.914  18.111 -1.0735  0.6998  0.0768
 4810TIP3    H238626   3.781   2.798  18.068 -2.2831  1.2517  0.9597
 4811TIP3   OH238627   4.489   4.162  17.472  0.0200 -0.7707  0.0118
 4811TIP3    H138628   4.580   4.162  17.440 -0.3151 -0.5988 -0.9887
 4811TIP3    H238629   4.481   4.245  17.520  0.0059 -0.0925 -1.1175
 4812TIP3   OH238630   4.956   0.219  18.295 -0.5472  0.0160 -0.1247
 4812TIP3    H138631   4.902   0.163  18.238  0.3895 -1.5471  0.4564
 4812TIP3    H238632   4.920   0.205  18.383  0.3918 -0.5668  0.1776
 4813TIP3   OH238633   5.142   5.240  18.308 -0.3001  0.0402 -0.6689
 4813TIP3    H138634   5.125   5.165  18.251 -0.7550 -1.0158  0.8011
 4813TIP3    H238635   5.056   5.268  18.339  0.0145 -0.1879  0.4522
 4814TIP3   OH238636   5.434   3.863  18.190  0.3941 -0.0185 -0.2020
 4814TIP3    H138637   5.467   3.801  18.255  0.8417  1.5725  1.1404
 4814TIP3    H238638   5.456   3.822  18.106  1.0587 -1.4675  0.6228
 4815TIP3   OH238639   6.451   1.486  18.213  0.1491  0.6059  0.2295
 4815TIP3    H138640   6.371   1.459  18.260  0.9736 -1.7568  0.4392
 4815TIP3    H238641   6.419   1.523  18.131 -1.1878  0.2946  0.5754
 4816TIP3   OH238642   6.039   0.665  18.469 -0.0366 -0.6540 -0.2923
 4816TIP3    H138643   5.951   0.667  18.432  0.0665 -0.1707 -0.5191
 4816TIP3    H238644   6.091   0.616  18.405  1.0468  3.4351 -2.8844
 4817TIP3   OH238645   5.453   4.142  18.116 -0.1578 -0.4558  0.0709
 4817TIP3    H138646   5.493   4.059  18.142 -0.9520 -0.4765  1.2596
 4817TIP3    H238647   5.360   4.122  18.106 -0.0214 -0.2770 -2.1527
 4818TIP3   OH238648   1.708   2.881  16.771  0.3470 -0.2646 -0.5479
 4818TIP3    H138649   1.781   2.851  16.825  0.9389 -0.6306 -1.5198
 4818TIP3    H238650   1.721   2.837  16.686 -0.7828 -0.0318 -0.8648
 4819TIP3   OH238651   6.282   3.247  16.231  0.2864 -0.4750  0.8756
 4819TIP3    H138652   6.229   3.171  16.252 -1.3145  0.2212 -0.4540
 4819TIP3    H238653   6.219   3.317  16.214  1.4429 -0.0852 -2.6695
 4820TIP3   OH238654   7.680   4.689  16.637 -0.0698  0.0458 -0.2554
 4820TIP3    H138655   7.727   4.770  16.622 -1.9583  1.0237 -1.3232
 4820TIP3    H238656   7.642   4.699  16.724 -1.4414  0.9680 -0.9251
 4821TIP3   OH238657   3.330   6.562  18.315 -0.2212 -0.2982  0.0268
 4821TIP3    H138658   3.372   6.476  18.320  1.2596  0.3616 -0.4772
 4821TIP3    H238659   3.242   6.547  18.349  0.5516 -1.6605  1.6113
 4822TIP3   OH238660   2.651   1.608  18.400 -0.2380 -0.2442 -0.0078
 4822TIP3    H138661   2.682   1.536  18.454 -0.0893 -1.0140 -1.0736
 4822TIP3    H238662   2.729   1.640  18.355 -0.2169  0.9390  0.8467
 4823TIP3   OH238663   6.854   6.172  16.621 -0.0842  0.2987 -0.2580
 4823TIP3    H138664   6.879   6.123  16.543  1.1203 -0.0463  0.3275
 4823TIP3    H238665   6.931   6.224  16.643 -0.2220  0.0162  0.9865
 4824TIP3   OH238666   2.571   0.268  16.759  0.1727  0.3252 -0.3999
 4824TIP3    H138667   2.489   0.317  16.760  0.0876  0.1822  0.7545
 4824TIP3    H238668   2.636   0.331  16.727  0.6182  2.2136  3.5678
 4825TIP3   OH238669   6.060   4.217  16.858  0.2993  0.0642  0.3888
 4825TIP3    H138670   6.092   4.212  16.768 -0.6317 -1.6893  0.1091
 4825TIP3    H238671   6.128   4.266  16.905  3.2338 -3.0564 -0.2454
 4826TIP3   OH238672   6.254   6.804  17.252  0.0028 -0.0437  0.3941
 4826TIP3    H138673   6.308   6.863  17.305  0.5127 -2.2986  2.5154
 4826TIP3    H238674   6.294   6.808  17.165  0.2678  2.3481  0.5498
 4827TIP3   OH238675   0.045   4.876  18.959  0.0980  0.4989 -0.1353
 4827TIP3    H138676   0.046   4.966  18.925 -1.8330 -0.5082 -3.3494
 4827TIP3    H238677  -0.044   4.865  18.992 -0.0313 -0.5072 -0.7725
 4828TIP3   OH238678   0.483   1.834  17.875  0.0900 -0.1330 -0.0231
 4828TIP3    H138679   0.492   1.876  17.961  0.2874  0.7446 -0.4557
 4828TIP3    H238680   0.557   1.773  17.870  1.1361  1.1083 -0.2683
 4829TIP3   OH238681   3.248   2.385  18.727 -0.9519  0.0252  0.1613
 4829TIP3    H138682   3.171   2.440  18.714 -1.3671 -0.7438 -0.7305
 4829TIP3    H238683   3.215   2.296  18.724 -0.2375 -0.2992  1.2634
 4830TIP3   OH238684   5.206   6.161  17.954 -0.3672  0.2021  0.7848
 4830TIP3    H138685   5.162   6.083  17.988 -0.9081 -0.2375 -0.8220
 4830TIP3    H238686   5.215   6.218  18.030 -0.1706 -1.3161  1.9467
 4831TIP3   OH238687   2.669   6.692  16.924 -0.0579  0.0243 -0.2380
 4831TIP3    H138688   2.702   6.614  16.879 -2.5366 -0.7285 -0.9057
 4831TIP3    H238689   2.633   6.659  17.007 -2.2751  0.1618 -1.0743
 4832TIP3   OH238690   6.605   0.294  18.156 -0.6880 -0.1354  0.6198
 4832TIP3    H138691   6.625   0.382  18.123  0.3499 -0.0111  1.5019
 4832TIP3    H238692   6.673   0.238  18.118 -1.8496 -0.7421 -0.6305
 4833TIP3   OH238693   7.644   1.596  18.685  0.3483 -0.2353 -0.5932
 4833TIP3    H138694   7.606   1.509  18.673  0.4274 -0.3055 -0.3438
 4833TIP3    H238695   7.713   1.601  18.619  0.6070 -0.5162 -0.3492
 4834TIP3   OH238696   1.408   1.410  16.719  0.3014 -0.0934 -0.5501
 4834TIP3    H138697   1.472   1.475  16.746  1.4244 -0.8973 -1.1848
 4834TIP3    H238698   1.330   1.461  16.697  0.3154  0.8049  1.3064
 4835TIP3   OH238699   2.638   0.303  18.492  0.1327 -0.6498 -0.1737
 4835TIP3    H138700   2.560   0.347  18.460  0.7790 -0.1869 -1.1686
 4835TIP3    H238701   2.687   0.280  18.413  2.6301  2.0804  0.4211
 4836TIP3   OH238702   7.166   2.057  15.841 -0.4223 -0.3379 -0.1868
 4836TIP3    H138703   7.229   2.125  15.866 -0.1935 -0.1325 -1.2555
 4836TIP3    H238704   7.088   2.076  15.893  0.5590 -0.9107  1.5451
 4837TIP3   OH238705   7.507   0.171  16.754 -0.9579  0.3100 -0.3008
 4837TIP3    H138706   7.421   0.169  16.714 -2.1461 -1.4432  2.0916
 4837TIP3    H238707   7.555   0.099  16.714 -1.9470 -1.0846  0.9379
 4838TIP3   OH238708   3.424   0.031  15.911 -0.5150 -0.1645  0.4311
 4838TIP3    H138709   3.363  -0.015  15.968 -1.0717 -1.9002 -1.4420
 4838TIP3    H238710   3.372   0.100  15.870 -0.7703 -0.5354  0.1293
 4839TIP3   OH238711   6.143   7.162  17.084  0.7244  0.1635  0.1706
 4839TIP3    H138712   6.052   7.146  17.061  0.3853  1.8215  0.1863
 4839TIP3    H238713   6.139   7.228  17.154  1.8990 -0.8712  1.2867
 4840TIP3   OH238714   2.350   5.348  18.865  0.4404  0.1858  0.7218
 4840TIP3    H138715   2.322   5.436  18.891 -0.6564 -0.4721  1.8672
 4840TIP3    H238716   2.273   5.309  18.825  1.4760  0.3843 -1.6710
 4841TIP3   OH238717   2.245   0.797  18.233 -0.0079  0.3018  0.2353
 4841TIP3    H138718   2.308   0.737  18.194 -0.2697  0.0518  0.1970
 4841TIP3    H238719   2.261   0.881  18.189 -2.1803 -0.5934 -2.5239
 4842TIP3   OH238720   6.730   6.209  18.827 -0.3074  0.1310  0.0331
 4842TIP3    H138721   6.671   6.245  18.760 -1.1816 -0.3295  0.5418
 4842TIP3    H238722   6.692   6.124  18.850 -1.5562  1.3874  3.0447
 4843TIP3   OH238723   6.973   7.191  18.252 -0.2690  0.1372 -0.1235
 4843TIP3    H138724   6.941   7.159  18.336  0.2213 -1.0825 -0.3791
 4843TIP3    H238725   6.920   7.147  18.186  1.4337 -1.4455 -0.5331
 4844TIP3   OH238726   5.141   0.941  16.416 -0.2352  0.6513  0.5892
 4844TIP3    H138727   5.219   0.995  16.425 -1.2051  2.2838 -0.2792
 4844TIP3    H238728   5.069   0.996  16.447 -1.2716 -0.1172 -0.3308
 4845TIP3   OH238729   6.650   5.286  16.638 -0.6169 -0.0228  0.1625
 4845TIP3    H138730   6.572   5.343  16.633  0.2091  1.0211 -2.4118
 4845TIP3    H238731   6.695   5.301  16.555  1.4691 -1.8938  0.8902
 4846TIP3   OH238732   0.667   5.668  18.504  0.2524 -0.0479  0.1725
 4846TIP3    H138733   0.642   5.629  18.420  1.0407 -0.9184  0.3286
 4846TIP3    H238734   0.755   5.702  18.490 -0.0019  0.7137  0.3632
 4847TIP3   OH238735   3.317   7.453  17.435 -0.2113  0.2511  0.0103
 4847TIP3    H138736   3.328   7.454  17.530  1.4887 -0.3970 -0.1451
 4847TIP3    H238737   3.238   7.505  17.419  0.2426  1.5385  1.6809
 4848TIP3   OH238738   3.161   6.816  17.334 -0.6389 -0.2896  0.0993
 4848TIP3    H138739   3.249   6.849  17.349 -0.5673  0.5878 -1.9312
 4848TIP3    H238740   3.169   6.721  17.346  0.4474 -0.1681  0.4334
 4849TIP3   OH238741   4.461   3.465  18.087  0.1943 -0.1587 -0.1607
 4849TIP3    H138742   4.367   3.473  18.103  0.3455  0.7279  0.3015
 4849TIP3    H238743   4.494   3.554  18.089  1.1091 -0.4898  0.0284
 4850TIP3   OH238744   3.585   6.519  18.046  0.4557  0.5336 -0.2498
 4850TIP3    H138745   3.640   6.447  18.015  1.5128  2.2535 -2.7010
 4850TIP3    H238746   3.509   6.517  17.988 -1.8961 -1.3231  2.5946
 4851TIP3   OH238747   2.941   7.641  17.100  0.5619  0.4024 -0.0518
 4851TIP3    H138748   2.960   7.547  17.089 -0.3574  0.0704  0.9843
 4851TIP3    H238749   2.916   7.649  17.192  1.0433  1.7528 -0.0240
 4852TIP3   OH238750   1.808   2.268  17.792  0.4529 -0.3108 -0.1485
 4852TIP3    H138751   1.900   2.245  17.809 -0.2649 -2.4827  1.3054
 4852TIP3    H238752   1.770   2.187  17.757 -1.3709 -0.2013  1.3979
 4853TIP3   OH238753   4.641   6.798  17.501 -0.6796  0.1744 -0.0737
 4853TIP3    H138754   4.698   6.752  17.562  0.4133 -1.0017 -1.8856
 4853TIP3    H238755   4.553   6.787  17.538  0.0598  0.8941  2.0733
 4854TIP3   OH238756   5.640   2.971  16.046 -0.8430  0.3650 -0.0299
 4854TIP3    H138757   5.551   2.986  16.015 -0.8872 -2.2447 -1.4640
 4854TIP3    H238758   5.645   2.876  16.058  1.1610  0.6453  2.0107
 4855TIP3   OH238759   0.652   6.865  17.482  0.2295  0.1759  0.2639
 4855TIP3    H138760   0.661   6.860  17.577 -1.0755 -0.5032  0.3632
 4855TIP3    H238761   0.692   6.784  17.450 -1.6100 -0.8364  0.4280
 4856TIP3   OH238762   1.400   1.915  17.288 -0.1474 -0.1563 -0.5214
 4856TIP3    H138763   1.360   1.886  17.207 -0.5118 -0.8981 -0.0805
 4856TIP3    H238764   1.344   1.987  17.318 -0.8958 -0.8730 -0.1557
 4857TIP3   OH238765   4.438   4.459  18.095 -0.1038  0.5334 -0.5676
 4857TIP3    H138766   4.447   4.395  18.024 -0.7481 -0.2577  0.0368
 4857TIP3    H238767   4.518   4.448  18.146 -0.7708 -0.7463  0.2626
 4858TIP3   OH238768   1.292   0.908  18.548 -0.0840 -0.6809  0.5296
 4858TIP3    H138769   1.370   0.858  18.523  1.1825  1.7052 -0.6828
 4858TIP3    H238770   1.220   0.845  18.542  1.3922 -2.3444 -0.8796
 4859TIP3   OH238771   6.398   0.466  17.135  0.0414 -0.4758  0.6488
 4859TIP3    H138772   6.430   0.522  17.206 -0.1383 -0.2171  0.5244
 4859TIP3    H238773   6.475   0.416  17.108  0.0276 -0.8217  1.2577
 4860TIP3   OH238774   1.160   2.843  18.865 -0.0534 -0.2050  0.3706
 4860TIP3    H138775   1.132   2.932  18.843  1.4774  0.0364 -0.8189
 4860TIP3    H238776   1.081   2.800  18.898 -0.5705  1.9321  2.1614
 4861TIP3   OH238777   0.088   2.149  16.753 -0.3481  0.6224 -0.3780
 4861TIP3    H138778   0.043   2.067  16.773 -2.2771  1.4583 -1.0490
 4861TIP3    H238779   0.147   2.164  16.827 -0.8618 -0.7410  0.3236
 4862TIP3   OH238780   0.816   6.653  17.183  0.3667  0.0855  0.5143
 4862TIP3    H138781   0.727   6.642  17.147  0.5977  2.8278 -1.1776
 4862TIP3    H238782   0.874   6.639  17.108  1.0833  2.1436  0.6127
 4863TIP3   OH238783   1.542   2.656  17.929  0.1823 -0.1663  0.2697
 4863TIP3    H138784   1.547   2.672  17.835 -1.3547  0.2510  0.2240
 4863TIP3    H238785   1.605   2.586  17.945  0.8741  0.1471 -0.9669
 4864TIP3   OH238786   6.901   6.470  18.790  0.1643  0.6234 -0.5402
 4864TIP3    H138787   6.849   6.494  18.712 -0.4598  0.7248 -0.1004
 4864TIP3    H238788   6.854   6.395  18.827  0.4526  0.5879 -0.2459
 4865TIP3   OH238789   1.044   5.036  16.913  0.0960 -0.4863  0.3355
 4865TIP3    H138790   0.952   5.060  16.901  0.6683  1.5478 -0.3392
 4865TIP3    H238791   1.064   4.981  16.837 -0.4299 -0.5972  0.2690
 4866TIP3   OH238792   1.861   3.835  17.075  0.0031  0.2787 -0.0569
 4866TIP3    H138793   1.956   3.834  17.064  0.0211  0.0867  0.1000
 4866TIP3    H238794   1.848   3.863  17.166 -0.0337 -1.0118  0.3649
 4867TIP3   OH238795   1.891   2.616  18.280  0.4639  0.0674  0.4112
 4867TIP3    H138796   1.799   2.639  18.267  0.5441  1.4653  2.0014
 4867TIP3    H238797   1.889   2.543  18.342  0.4091 -0.3406 -0.0680
 4868TIP3   OH238798   4.905   5.052  18.172 -0.5032  0.1272  0.1023
 4868TIP3    H138799   4.993   5.021  18.152 -0.3659  0.4195  0.2412
 4868TIP3    H238800   4.885   5.014  18.258 -0.7692 -0.4620 -0.2129
 4869TIP3   OH238801   4.061   5.271  18.557  0.1236  0.1976 -0.1334
 4869TIP3    H138802   3.975   5.242  18.527 -0.2349  2.3162 -1.4162
 4869TIP3    H238803   4.113   5.191  18.563 -1.3793 -0.9262 -1.2540
 4870TIP3   OH238804   7.020   1.991  16.903 -0.0328 -0.6519  0.6906
 4870TIP3    H138805   6.993   2.007  16.813 -0.0605  2.3078  1.0996
 4870TIP3    H238806   7.113   2.015  16.905 -0.2067  0.0391  1.5586
 4871TIP3   OH238807   0.018   7.499  17.618  1.0165 -1.1566 -0.5449
 4871TIP3    H138808   0.010   7.595  17.622  2.3073 -1.0310  2.9734
 4871TIP3    H238809  -0.071   7.467  17.632  0.9349 -0.3642  1.0002
 4872TIP3   OH238810   6.179   3.788  17.073 -0.5384  0.1735 -0.2635
 4872TIP3    H138811   6.147   3.797  16.983 -1.2727 -0.6801 -0.1011
 4872TIP3    H238812   6.149   3.868  17.116 -1.0283  0.1417 -0.5358
 4873TIP3   OH238813   5.823   0.069  16.859 -0.1579  0.2285 -0.2558
 4873TIP3    H138814   5.742   0.082  16.909 -0.2416  0.4149 -0.4395
 4873TIP3    H238815   5.793   0.039  16.773 -0.1731  2.4538 -1.0967
 4874TIP3   OH238816   6.812   7.618  18.323 -0.0274  0.0537 -0.4755
 4874TIP3    H138817   6.905   7.612  18.302 -0.5534 -1.8344 -2.7621
 4874TIP3    H238818   6.800   7.558  18.396  0.4942 -0.0369 -0.4621
 4875TIP3   OH238819   0.085   2.266  17.709  0.2647  0.6409  0.0792
 4875TIP3    H138820   0.131   2.274  17.625  0.9831  0.7923  0.4834
 4875TIP3    H238821  -0.006   2.249  17.684  0.8205 -1.4503 -0.7444
 4876TIP3   OH238822   3.428   5.607  18.257 -0.2714 -0.2678  0.3412
 4876TIP3    H138823   3.465   5.529  18.299 -0.8469 -0.3405  0.7322
 4876TIP3    H238824   3.346   5.576  18.218  0.5830 -0.3608 -1.4543
 4877TIP3   OH238825   0.209   4.528  17.579 -0.5060 -0.0904 -0.7266
 4877TIP3    H138826   0.238   4.488  17.661  0.3526 -0.1405 -1.0453
 4877TIP3    H238827   0.201   4.621  17.600 -2.0053 -0.3152 -0.1274
 4878TIP3   OH238828   0.026   0.068  18.897  0.2497  0.3122  0.1733
 4878TIP3    H138829   0.065   0.148  18.861 -2.6817  2.2182  0.8665
 4878TIP3    H238830  -0.011   0.094  18.981 -1.1729 -1.6755  0.2415
 4879TIP3   OH238831   6.112   0.448  16.576 -0.0823 -0.1481  0.7061
 4879TIP3    H138832   6.200   0.413  16.562  0.0803  0.4285  0.2621
 4879TIP3    H238833   6.066   0.379  16.624 -0.3566 -1.8142 -1.7801
 4880TIP3   OH238834   5.322   6.183  16.560 -0.5579  0.3212  0.4569
 4880TIP3    H138835   5.272   6.265  16.564  1.4795  1.6772 -0.1498
 4880TIP3    H238836   5.369   6.188  16.477 -0.7696 -1.7348  0.1779
 4881TIP3   OH238837   5.037   2.695  17.869 -0.3587  0.1334  0.0540
 4881TIP3    H138838   4.997   2.663  17.949  3.3936 -1.4354  1.5436
 4881TIP3    H238839   4.999   2.642  17.799 -0.2900 -1.8379  1.4538
 4882TIP3   OH238840   6.458   0.912  18.778 -0.1198 -0.1269 -0.3274
 4882TIP3    H138841   6.422   1.001  18.782 -0.5281 -0.3230  0.3754
 4882TIP3    H238842   6.477   0.890  18.869  0.4061 -0.5902 -0.5486
 4883TIP3   OH238843   7.315   1.112  17.489 -0.5549 -0.0339 -0.3810
 4883TIP3    H138844   7.410   1.112  17.497 -0.6506  1.3969  1.4151
 4883TIP3    H238845   7.286   1.036  17.538 -0.2917 -2.5741 -3.7719
 4884TIP3   OH238846   5.409   4.118  17.621  0.0633 -0.7113  0.0181
 4884TIP3    H138847   5.364   4.202  17.622 -0.5431 -1.0118 -0.9290
 4884TIP3    H238848   5.488   4.133  17.568  0.0302 -0.7077 -0.0299
 4885TIP3   OH238849   3.163   6.336  16.658  0.5816  0.2493  0.0929
 4885TIP3    H138850   3.126   6.278  16.591  0.8112 -0.5149  0.6176
 4885TIP3    H238851   3.089   6.356  16.716  0.4467  0.6922 -0.2200
 4886TIP3   OH238852   2.116   5.780  17.646 -0.6122  0.2476 -0.0884
 4886TIP3    H138853   2.182   5.710  17.648 -1.3338 -0.4341  0.2630
 4886TIP3    H238854   2.130   5.829  17.727 -1.7889 -1.0945  0.9719
 4887TIP3   OH238855   2.081   7.159  17.092  0.2821 -0.1849  0.3565
 4887TIP3    H138856   2.023   7.154  17.016  1.5564 -1.2584 -0.5854
 4887TIP3    H238857   2.110   7.069  17.107  1.9946  0.3639  0.5643
 4888TIP3   OH238858   0.299   3.788  18.220 -0.6245 -0.0710  0.0326
 4888TIP3    H138859   0.393   3.770  18.215 -0.6343  0.0636 -0.9147
 4888TIP3    H238860   0.257   3.703  18.214 -0.5989  0.0006 -1.5215
 4889TIP3   OH238861   0.171   5.121  18.654  0.0793  0.5602 -0.0955
 4889TIP3    H138862   0.258   5.081  18.650 -0.0609 -0.0214  1.6055
 4889TIP3    H238863   0.114   5.060  18.608  0.5565  0.9640 -1.2566
 4890TIP3   OH238864   0.740   6.351  17.156 -0.3005  0.5036  0.0850
 4890TIP3    H138865   0.682   6.276  17.144  0.7576 -0.1828 -0.8520
 4890TIP3    H238866   0.684   6.427  17.140 -1.1814 -0.0997  0.2169
 4891TIP3   OH238867   0.613   3.816  16.644 -0.5837  0.1750  0.1254
 4891TIP3    H138868   0.676   3.885  16.661 -1.6175  1.4312 -0.9022
 4891TIP3    H238869   0.657   3.757  16.583  0.1660  0.1248  0.7011
 4892TIP3   OH238870   7.640   6.889  17.562  0.1031 -0.0576  0.4023
 4892TIP3    H138871   7.668   6.968  17.609 -2.6825  0.9717  0.5393
 4892TIP3    H238872   7.642   6.913  17.470 -0.4505  0.0820  0.4237
 4893TIP3   OH238873   4.039   0.180  18.065 -0.4423 -0.0606  0.0994
 4893TIP3    H138874   4.015   0.272  18.078 -1.7118 -0.5709  1.6954
 4893TIP3    H238875   3.994   0.155  17.984  0.2619  0.8069 -0.5873
 4894TIP3   OH238876   3.081   5.343  16.412 -0.1672 -0.4371 -0.3318
 4894TIP3    H138877   3.051   5.308  16.328  2.6454 -1.0060 -1.2189
 4894TIP3    H238878   3.174   5.363  16.397  0.3195 -0.1945  2.5504
 4895TIP3   OH238879   1.712   3.979  16.884  0.0161 -0.6390  0.0983
 4895TIP3    H138880   1.767   4.049  16.849 -2.7299  2.6159  1.6510
 4895TIP3    H238881   1.771   3.929  16.940  1.7669  1.6839  0.5204
 4896TIP3   OH238882   3.457   3.256  16.820 -0.4205 -0.4770 -0.2487
 4896TIP3    H138883   3.404   3.277  16.897 -1.2897 -0.9624 -0.6882
 4896TIP3    H238884   3.541   3.299  16.835 -1.2450  1.1025  0.0579
 4897TIP3   OH238885   2.849   0.372  17.652  0.0044 -0.5783 -0.3293
 4897TIP3    H138886   2.818   0.315  17.582  2.0194 -2.2370  0.0479
 4897TIP3    H238887   2.777   0.433  17.667 -1.1489 -1.2739 -2.6358
 4898TIP3   OH238888   0.994   0.299  17.449  0.7265 -0.5077 -0.4603
 4898TIP3    H138889   0.936   0.251  17.390 -2.4237  2.0176  0.2936
 4898TIP3    H238890   1.054   0.345  17.390  1.6459 -2.6857 -1.3071
 4899TIP3   OH238891   4.539   2.214  17.610 -0.1682  0.1064 -0.1187
 4899TIP3    H138892   4.484   2.138  17.592 -0.7516  0.8162 -1.4407
 4899TIP3    H238893   4.545   2.260  17.526  0.1115  1.5636  0.6732
 4900TIP3   OH238894   7.439   7.379  17.248 -0.4626  0.1433 -0.1315
 4900TIP3    H138895   7.447   7.435  17.325 -0.9793 -1.7663  1.4105
 4900TIP3    H238896   7.529   7.360  17.222 -0.2574 -0.2488  0.8383
 4901TIP3   OH238897   1.609   3.674  16.747 -0.5153  0.3024  1.1411
 4901TIP3    H138898   1.532   3.729  16.760 -0.6891 -0.0753  1.7893
 4901TIP3    H238899   1.572   3.588  16.723 -0.2435  0.5249 -0.1039
 4902TIP3   OH238900   3.399   2.983  15.861  0.3048 -0.4228  0.7812
 4902TIP3    H138901   3.356   3.034  15.930 -1.8022  2.3308 -2.2615
 4902TIP3    H238902   3.328   2.942  15.813  1.1350  1.4114 -2.3435
 4903TIP3   OH238903   4.316   4.894  18.094  0.1570  0.2850  0.2547
 4903TIP3    H138904   4.278   4.946  18.165  0.0824 -1.1729  1.3217
 4903TIP3    H238905   4.242   4.869  18.039 -0.1802 -0.8211  1.1804
 4904TIP3   OH238906   0.036   5.464  17.604 -0.2238  0.6331  0.4203
 4904TIP3    H138907   0.094   5.525  17.650  2.8724 -0.8697 -1.1883
 4904TIP3    H238908   0.041   5.492  17.512 -0.4454 -0.7620 -0.0293
 4905TIP3   OH238909   2.926   4.995  17.751 -0.2975 -0.5803 -0.0226
 4905TIP3    H138910   2.964   4.931  17.690  0.1510 -0.5872  0.2685
 4905TIP3    H238911   3.001   5.041  17.789 -0.6071 -0.0462 -0.0429
 4906TIP3   OH238912   0.081   1.593  17.386 -0.2048  0.8819 -0.4443
 4906TIP3    H138913   0.077   1.645  17.305  1.8910  0.7888 -0.6662
 4906TIP3    H238914   0.023   1.639  17.447 -0.7798  1.7164 -1.5864
 4907TIP3   OH238915   6.168   3.038  17.382  0.3288 -0.5048  0.4181
 4907TIP3    H138916   6.130   3.088  17.310 -2.0936  0.0458  1.9815
 4907TIP3    H238917   6.219   3.102  17.432 -0.2335 -0.2571  0.6852
 4908TIP3   OH238918   4.021   3.476  16.582 -0.1275 -0.3170 -0.2196
 4908TIP3    H138919   4.100   3.460  16.531  0.6186  1.7667  0.1726
 4908TIP3    H238920   3.949   3.472  16.519  0.6281  0.7952 -1.1671
 4909TIP3   OH238921   6.988   3.184  18.532  0.1332  0.5875 -0.8162
 4909TIP3    H138922   7.042   3.263  18.524  0.1260  0.5689 -1.0561
 4909TIP3    H238923   6.940   3.197  18.614  0.6378  0.5139 -0.5069
 4910TIP3   OH238924   0.998   2.667  17.187 -0.0108 -0.3988 -0.3116
 4910TIP3    H138925   1.046   2.747  17.206 -1.8625  0.8239 -0.5112
 4910TIP3    H238926   1.045   2.598  17.234  1.4302  0.8480  0.1252
 4911TIP3   OH238927   0.851   4.321  16.905  0.2044  0.1232 -0.0332
 4911TIP3    H138928   0.884   4.297  16.819  1.2232  0.5913  0.2039
 4911TIP3    H238929   0.778   4.261  16.921 -0.2386  0.2837 -1.3659
 4912TIP3   OH238930   3.446   1.022  15.895  0.2222 -0.4401  0.1738
 4912TIP3    H138931   3.397   1.096  15.859 -0.2385 -0.1321  1.3834
 4912TIP3    H238932   3.457   0.962  15.822  0.6183  0.8265 -0.8408
 4913TIP3   OH238933   4.290   6.594  16.617  0.4140 -0.0373 -0.4421
 4913TIP3    H138934   4.230   6.530  16.579  1.9987 -1.1255 -1.2189
 4913TIP3    H238935   4.337   6.631  16.542  2.7509 -1.3338  0.2698
 4914TIP3   OH238936   2.038   0.207  17.422 -0.3577 -0.8322  0.2212
 4914TIP3    H138937   1.973   0.137  17.422 -3.0058  1.4710 -0.9021
 4914TIP3    H238938   2.088   0.192  17.502 -0.4775 -4.1989 -0.1795
 4915TIP3   OH238939   7.610   4.510  17.535  0.7295  0.4728 -0.3773
 4915TIP3    H138940   7.700   4.508  17.566  0.8062 -0.4672 -0.6422
 4915TIP3    H238941   7.614   4.481  17.444  0.2167  0.9196 -0.5506
 4916TIP3   OH238942   6.774   7.003  17.113 -0.0160 -0.0186 -0.6972
 4916TIP3    H138943   6.755   7.060  17.187 -1.3079 -2.9884  1.4440
 4916TIP3    H238944   6.850   6.952  17.140 -0.2234 -0.8410 -1.5863
 4917TIP3   OH238945   3.211   4.268  16.606 -0.2305 -0.5430  0.0758
 4917TIP3    H138946   3.174   4.349  16.570  2.0325  1.1361  1.2978
 4917TIP3    H238947   3.201   4.277  16.700  0.7753 -1.3143  0.2709
 4918TIP3   OH238948   5.586   2.689  18.116  0.0825 -0.0058  0.2471
 4918TIP3    H138949   5.631   2.618  18.070 -1.0907 -0.5120 -0.1532
 4918TIP3    H238950   5.583   2.760  18.052 -1.3423 -0.6297 -0.4147
 4919TIP3   OH238951   2.848   2.144  16.288  0.0578  0.2738  0.4853
 4919TIP3    H138952   2.819   2.157  16.198  1.4363  2.2218  0.2648
 4919TIP3    H238953   2.912   2.073  16.283 -0.5536 -0.2607  0.1028
 4920TIP3   OH238954   5.908   1.283  16.431 -0.0715 -0.1184 -0.4104
 4920TIP3    H138955   5.921   1.189  16.420 -3.4956 -1.0262  1.8492
 4920TIP3    H238956   5.961   1.306  16.507 -0.1150 -0.4674 -0.2721
 4921TIP3   OH238957   0.306   7.520  18.617  0.3047  0.2474 -0.4874
 4921TIP3    H138958   0.223   7.559  18.590  0.7712  0.4596 -1.6936
 4921TIP3    H238959   0.372   7.570  18.570  1.0045 -0.9616 -0.8350
 4922TIP3   OH238960   2.508   5.812  17.199 -0.2629 -0.0237 -0.3678
 4922TIP3    H138961   2.455   5.733  17.196 -1.2171  0.5932 -0.3387
 4922TIP3    H238962   2.510   5.835  17.292  0.6044 -0.3980 -0.2908
 4923TIP3   OH238963   3.338   2.381  17.867 -0.1819  0.1864  0.1383
 4923TIP3    H138964   3.420   2.429  17.872 -0.2564  0.2381  1.0325
 4923TIP3    H238965   3.305   2.398  17.779  1.1913 -0.5458 -0.5498
 4924TIP3   OH238966   2.331   1.675  18.539 -0.2173 -0.1804  0.0812
 4924TIP3    H138967   2.367   1.599  18.585 -0.5487 -1.0847 -1.1046
 4924TIP3    H238968   2.249   1.693  18.585 -1.4595 -2.2017 -1.1704
 4925TIP3   OH238969   4.006   1.742  18.711 -0.1746 -0.4820  0.7825
 4925TIP3    H138970   3.979   1.832  18.729  0.6973 -0.2420  0.9626
 4925TIP3    H238971   4.037   1.709  18.796 -0.0825 -0.8037  0.6254
 4926TIP3   OH238972   6.689   4.453  17.038 -0.3672 -0.0254 -0.2006
 4926TIP3    H138973   6.641   4.536  17.032  0.9359  1.0407  2.5473
 4926TIP3    H238974   6.778   4.477  17.063  0.3366 -2.2069 -0.3403
 4927TIP3   OH238975   5.436   4.496  16.699  0.3167  0.1130 -0.1823
 4927TIP3    H138976   5.498   4.506  16.627 -0.4426 -3.0979 -1.4429
 4927TIP3    H238977   5.371   4.565  16.684  1.1641  0.6734 -1.4701
 4928TIP3   OH238978   2.497   1.044  19.003 -0.7074  0.4912 -0.3770
 4928TIP3    H138979   2.577   1.021  19.049 -1.0176 -0.4486 -0.2954
 4928TIP3    H238980   2.429   0.990  19.044 -0.9510 -0.5540 -2.0660
 4929TIP3   OH238981   3.961   5.049  17.952  0.3127  0.0012  0.4115
 4929TIP3    H138982   3.896   5.016  17.891  0.4310  1.7180 -0.7019
 4929TIP3    H238983   3.991   4.971  18.000 -1.4058 -1.0390 -0.1285
 4930TIP3   OH238984   6.713   0.902  17.191  0.5199 -0.2081  0.1716
 4930TIP3    H138985   6.788   0.842  17.193  0.2730 -0.5120  1.8529
 4930TIP3    H238986   6.654   0.869  17.259 -0.6328  0.6828 -0.3649
 4931TIP3   OH238987   7.186   0.601  16.045  0.0071  0.1736  0.0662
 4931TIP3    H138988   7.270   0.559  16.027  1.6110  3.1665 -0.1385
 4931TIP3    H238989   7.159   0.565  16.129  0.9363 -1.6264 -0.3479
 4932TIP3   OH238990   2.152   2.564  18.161 -0.6125 -0.3586 -0.6163
 4932TIP3    H138991   2.145   2.658  18.176 -1.8704 -0.1976 -1.9467
 4932TIP3    H238992   2.086   2.526  18.219 -1.0745 -0.2855 -1.0852
 4933TIP3   OH238993   6.861   5.085  17.433  0.2820  0.0350  0.0241
 4933TIP3    H138994   6.917   5.161  17.417 -2.0574  1.8833 -0.0565
 4933TIP3    H238995   6.815   5.071  17.351 -2.5030  1.4358  1.2089
 4934TIP3   OH238996   1.875   1.306  16.816 -0.1874  0.5469  0.2361
 4934TIP3    H138997   1.948   1.254  16.850 -1.0702 -0.4463  0.6922
 4934TIP3    H238998   1.912   1.354  16.742  0.4611 -1.5749 -0.9360
 4935TIP3   OH238999   0.500   3.339  17.778  0.1258 -0.6011 -0.7409
 4935TIP3    H139000   0.440   3.404  17.814 -0.3803 -1.4577  0.0187
 4935TIP3    H239001   0.525   3.374  17.692  1.7529  1.7543  0.5664
 4936TIP3   OH239002   7.659   6.982  16.703  0.1147 -0.1409 -0.0668
 4936TIP3    H139003   7.601   6.945  16.636  0.1328 -0.5924  0.1570
 4936TIP3    H239004   7.721   6.911  16.722 -0.0305 -0.1018  0.5810
 4937TIP3   OH239005   5.839   6.027  18.616 -0.1865 -0.4164  0.4334
 4937TIP3    H139006   5.744   6.036  18.605 -0.1683 -0.9987 -0.2507
 4937TIP3    H239007   5.863   5.953  18.560  0.9469  0.8999 -0.9089
 4938TIP3   OH239008   6.049   1.660  18.608  0.5180  0.1272 -0.3696
 4938TIP3    H139009   6.108   1.629  18.541  0.0281 -1.1057 -0.2507
 4938TIP3    H239010   5.965   1.670  18.564  0.1987 -0.6680  0.0329
 4939TIP3   OH239011   3.053   6.635  17.978  0.2281  0.1876 -0.8322
 4939TIP3    H139012   3.127   6.697  17.972  0.9977 -0.6936 -0.7206
 4939TIP3    H239013   3.023   6.644  18.069  0.7861 -0.0878 -0.6130
 4940TIP3   OH239014   0.331   5.772  17.979 -0.0830 -0.3959  0.1318
 4940TIP3    H139015   0.382   5.746  17.903 -0.5884 -0.1152 -0.3063
 4940TIP3    H239016   0.361   5.860  18.000 -0.9747  0.0976 -0.6398
 4941TIP3   OH239017   4.243   2.199  17.054  0.2336 -0.2148 -0.0011
 4941TIP3    H139018   4.197   2.221  17.135 -1.0017  1.0493 -1.0052
 4941TIP3    H239019   4.316   2.261  17.050  0.0556 -0.0090 -0.0584
 4942TIP3   OH239020   2.310   1.324  18.418  0.3988 -0.1761  0.5598
 4942TIP3    H139021   2.330   1.281  18.501 -0.0184 -3.2902 -0.8306
 4942TIP3    H239022   2.395   1.333  18.375  0.3405 -0.7787  0.3216
 4943TIP3   OH239023   3.416   0.608  18.883 -0.4676 -0.1512  0.2219
 4943TIP3    H139024   3.400   0.609  18.789 -0.5241 -1.8949  0.1818
 4943TIP3    H239025   3.414   0.701  18.909 -1.2539  0.2997 -1.3431
 4944TIP3   OH239026   5.108   3.951  16.887 -0.6553  0.6411 -0.4633
 4944TIP3    H139027   5.151   3.981  16.807  1.1015  0.1463  0.2380
 4944TIP3    H239028   5.151   3.868  16.908 -0.6835  1.0152  1.2632
 4945TIP3   OH239029   1.259   5.578  19.033 -0.1008  0.3128 -0.5623
 4945TIP3    H139030   1.180   5.605  18.986  0.1121 -0.0850 -1.1543
 4945TIP3    H239031   1.319   5.548  18.965 -0.4780 -2.0894  0.0744
 4946TIP3   OH239032   1.975   1.070  18.588  0.2356  0.3807  0.2281
 4946TIP3    H139033   1.979   1.156  18.630 -2.3448  0.5311  0.3207
 4946TIP3    H239034   1.920   1.084  18.511  0.3160 -1.0725 -0.1132
 4947TIP3   OH239035   3.087   1.954  18.323 -0.1845  0.2962 -0.2611
 4947TIP3    H139036   3.163   1.973  18.268  0.3709  1.0631  0.7287
 4947TIP3    H239037   3.110   1.874  18.371 -0.6190 -0.3042 -1.0408
 4948TIP3   OH239038   3.899   7.057  16.968  0.3774 -0.3363 -0.0715
 4948TIP3    H139039   3.949   7.022  17.042 -0.5690  0.0898  0.7888
 4948TIP3    H239040   3.915   7.152  16.972 -0.1071 -0.2511 -0.0780
 4949TIP3   OH239041   7.165   2.665  17.829  0.6882  0.3462  0.0961
 4949TIP3    H139042   7.210   2.622  17.756 -1.6409 -1.2214 -0.5536
 4949TIP3    H239043   7.175   2.604  17.902 -0.7172 -0.2584 -0.1918
 4950TIP3   OH239044   3.275   5.872  16.924 -0.6578 -0.0503 -0.3420
 4950TIP3    H139045   3.365   5.869  16.957 -0.7039  1.3824 -0.0010
 4950TIP3    H239046   3.271   5.803  16.858  0.9451  0.3920 -0.9538
 4951TIP3   OH239047   6.697   5.248  18.077  0.2567 -0.1140  0.1267
 4951TIP3    H139048   6.636   5.239  18.004 -0.2042 -0.2328  0.5288
 4951TIP3    H239049   6.693   5.341  18.101  1.0933  0.1288 -0.5859
 4952TIP3   OH239050   0.885   2.939  18.114  0.3181 -0.3742 -0.1870
 4952TIP3    H139051   0.951   3.009  18.122 -0.4793  0.7356 -2.3754
 4952TIP3    H239052   0.924   2.876  18.053 -0.5194  0.2191 -1.3849
 4953TIP3   OH239053   1.076   1.771  16.745  0.0491 -0.0294 -0.3316
 4953TIP3    H139054   1.126   1.692  16.763 -1.8881 -1.3600 -0.5222
 4953TIP3    H239055   1.032   1.792  16.827 -1.5274 -0.7460 -0.9457
 4954TIP3   OH239056   1.405   7.373  18.347  1.0569 -0.1040 -0.0308
 4954TIP3    H139057   1.469   7.428  18.301 -0.5386  1.6743 -0.2275
 4954TIP3    H239058   1.410   7.400  18.438  0.4330  0.2016 -0.0835
 4955TIP3   OH239059   4.719   0.388  17.374  0.2379 -0.3104 -0.0109
 4955TIP3    H139060   4.656   0.456  17.397 -0.4855 -1.2321  0.7831
 4955TIP3    H239061   4.780   0.386  17.448 -0.2596 -1.1153  0.3929
 4956TIP3   OH239062   3.596   2.696  18.148 -0.2978 -0.3041  0.3607
 4956TIP3    H139063   3.549   2.677  18.229  0.2996  0.8453  0.9997
 4956TIP3    H239064   3.669   2.634  18.148  0.2917  0.3589  1.2410
 4957TIP3   OH239065   7.224   0.762  16.770 -0.4146 -0.1307  0.0431
 4957TIP3    H139066   7.254   0.853  16.767 -1.9138  0.3809 -0.2525
 4957TIP3    H239067   7.142   0.765  16.818 -0.6838 -1.2761 -0.3055
 4958TIP3   OH239068   3.049   2.984  17.387  0.3144  0.3780 -0.0085
 4958TIP3    H139069   3.118   2.919  17.369 -0.5290 -0.1310 -1.5373
 4958TIP3    H239070   2.970   2.947  17.347 -0.6026  1.4879  0.7297
 4959TIP3   OH239071   6.805   2.427  16.541 -0.1188 -0.5024  0.3563
 4959TIP3    H139072   6.832   2.499  16.483 -1.7572  0.0124  0.1683
 4959TIP3    H239073   6.881   2.369  16.545  0.8122  0.6157 -0.4860
 4960TIP3   OH239074   6.100   4.465  18.274  0.3845 -0.6076 -0.0922
 4960TIP3    H139075   6.110   4.481  18.180 -1.3855 -0.9370 -0.3562
 4960TIP3    H239076   6.049   4.539  18.306  0.8276 -0.5874  0.5963
 4961TIP3   OH239077   5.535   1.336  18.002  0.4231 -0.1095  0.3545
 4961TIP3    H139078   5.518   1.414  17.950 -0.2756 -0.0181  0.7126
 4961TIP3    H239079   5.453   1.320  18.049  1.1787  0.0959  1.7996
 4962TIP3   OH239080   0.178   4.898  16.630  0.3477 -0.3398  0.3606
 4962TIP3    H139081   0.151   4.961  16.563 -1.6196 -0.3825  1.0458
 4962TIP3    H239082   0.264   4.930  16.659 -0.0243  1.2812 -0.2031
 4963TIP3   OH239083   3.692   7.116  16.518 -0.6775 -0.3679  0.4164
 4963TIP3    H139084   3.609   7.129  16.563  0.1633 -2.7926  2.8966
 4963TIP3    H239085   3.759   7.145  16.580  0.4633 -1.8379 -0.0735
 4964TIP3   OH239086   1.946   1.556  18.151 -0.7712  0.1211 -0.0312
 4964TIP3    H139087   2.040   1.558  18.131 -0.5142  0.9591  1.1237
 4964TIP3    H239088   1.927   1.644  18.185 -2.0061 -0.0015 -0.3470
 4965TIP3   OH239089   3.530   1.109  18.119  0.1138 -0.0492 -0.0607
 4965TIP3    H139090   3.496   1.174  18.180 -0.1753 -0.3549  0.1092
 4965TIP3    H239091   3.453   1.081  18.069  0.5244  0.9523 -1.2799
 4966TIP3   OH239092   7.169   5.239  17.993 -0.5490  0.2192 -0.3881
 4966TIP3    H139093   7.145   5.167  17.935 -0.8092 -0.3998  0.4652
 4966TIP3    H239094   7.098   5.243  18.058 -0.7064  1.4535 -0.6022
 4967TIP3   OH239095   4.844   1.007  16.402 -0.3068  0.0927  0.6039
 4967TIP3    H139096   4.846   0.990  16.496 -0.0361  0.7604  0.7287
 4967TIP3    H239097   4.778   0.947  16.368 -1.2398  0.6370  1.3971
 4968TIP3   OH239098   6.326   6.626  16.523  0.3180  0.0067 -0.1225
 4968TIP3    H139099   6.234   6.616  16.502 -0.0403 -0.4496  1.5073
 4968TIP3    H239100   6.327   6.642  16.618  1.9948 -1.5713  0.1791
 4969TIP3   OH239101   1.423   6.982  17.377  0.3137  0.4385 -0.3571
 4969TIP3    H139102   1.431   6.891  17.349  0.0594 -0.0678  1.1207
 4969TIP3    H239103   1.353   6.981  17.443  0.8902  1.5486  0.3041
 4970TIP3   OH239104   7.412   5.373  18.036 -0.6190 -0.0360 -0.1424
 4970TIP3    H139105   7.375   5.416  18.113 -0.1915 -1.6337  0.9955
 4970TIP3    H239106   7.337   5.361  17.977 -1.3376 -0.5085  0.8497
 4971TIP3   OH239107   4.119   1.606  18.468 -0.1961  0.0407  0.4414
 4971TIP3    H139108   4.074   1.655  18.537  0.2003  1.4893 -0.2912
 4971TIP3    H239109   4.211   1.604  18.496 -0.1346  0.1185  0.2429
 4972TIP3   OH239110   3.297   7.150  16.820  0.2414  0.3125  0.2024
 4972TIP3    H139111   3.381   7.195  16.826  0.1236  0.4356  1.2553
 4972TIP3    H239112   3.289   7.104  16.904  0.1926 -1.4023 -0.6962
 4973TIP3   OH239113   7.405   5.926  18.566  0.4756  0.9028  0.4069
 4973TIP3    H139114   7.356   5.976  18.502 -0.4024 -0.1622  0.2217
 4973TIP3    H239115   7.340   5.870  18.609  1.3808  0.0651  0.7427
 4974TIP3   OH239116   2.285   0.094  17.106  0.3111  0.5066  0.0213
 4974TIP3    H139117   2.314   0.004  17.122 -0.0993  0.1078 -1.2949
 4974TIP3    H239118   2.340   0.124  17.033  0.2073  1.2025  0.2237
 4975TIP3   OH239119   3.284   2.034  18.140  0.2653  0.6942 -0.2242
 4975TIP3    H139120   3.285   1.940  18.123 -1.8952  0.7135 -0.7492
 4975TIP3    H239121   3.337   2.073  18.071  1.6053 -0.1520  0.3014
 4976TIP3   OH239122   4.480   4.712  18.207  0.4412  0.1075  0.3903
 4976TIP3    H139123   4.430   4.784  18.169 -0.2066  0.5651  2.0134
 4976TIP3    H239124   4.420   4.638  18.206  0.2237  0.2685  0.9977
 4977TIP3   OH239125   2.579   1.324  18.350 -0.5611  0.4010  0.8881
 4977TIP3    H139126   2.642   1.357  18.414 -0.5115  0.8097  0.6326
 4977TIP3    H239127   2.625   1.252  18.306  0.3030  1.6393 -0.3261
 4978TIP3   OH239128   5.478   3.283  16.519 -0.2391 -0.1416  0.3894
 4978TIP3    H139129   5.516   3.361  16.477 -0.2835 -0.1618  0.3100
 4978TIP3    H239130   5.494   3.213  16.457  2.9209 -0.9673  1.9085
 4979TIP3   OH239131   6.376   3.172  17.604 -0.0957 -0.4432 -0.0348
 4979TIP3    H139132   6.415   3.241  17.659  0.1614 -0.4066 -0.2644
 4979TIP3    H239133   6.428   3.172  17.524 -0.7870 -0.1443 -0.4970
 4980TIP3   OH239134   1.765   4.359  17.178  0.1942  0.0500  0.2633
 4980TIP3    H139135   1.679   4.360  17.220  0.2695  2.0048  0.4716
 4980TIP3    H239136   1.749   4.322  17.091 -0.2455 -2.5947  1.3623
 4981TIP3   OH239137   6.513   5.256  17.290 -0.0300  0.3665  0.6325
 4981TIP3    H139138   6.509   5.311  17.368 -0.5392 -0.3245  1.1095
 4981TIP3    H239139   6.422   5.252  17.260  0.1134  0.3555  0.1898
 4982TIP3   OH239140   4.109   5.818  17.765 -0.4867  0.5787  0.0629
 4982TIP3    H139141   4.124   5.725  17.780 -1.3038 -0.1859 -3.0252
 4982TIP3    H239142   4.153   5.862  17.837  0.0529 -2.1705  1.5469
 4983TIP3   OH239143   6.852   2.703  17.052 -0.0621 -0.5352 -0.3696
 4983TIP3    H139144   6.899   2.777  17.089  2.2917 -0.5674 -2.9534
 4983TIP3    H239145   6.810   2.738  16.973 -1.9971 -1.2070  0.2971
 4984TIP3   OH239146   4.949   5.239  15.795  0.2056 -0.0681  0.2682
 4984TIP3    H139147   4.862   5.200  15.789  1.3803 -2.7702 -1.2245
 4984TIP3    H239148   4.936   5.331  15.772 -2.1412 -0.5788 -0.7666
 4985TIP3   OH239149   1.730   7.408  18.472  0.1895 -0.2007  0.0943
 4985TIP3    H139150   1.781   7.470  18.525  1.0062  0.7418 -1.6969
 4985TIP3    H239151   1.648   7.398  18.519  0.1480  2.0335  0.6113
 4986TIP3   OH239152   6.383   6.288  17.830 -0.0961 -0.2664  0.1605
 4986TIP3    H139153   6.345   6.287  17.917  0.2840 -0.9111  0.3326
 4986TIP3    H239154   6.420   6.200  17.820  2.0086  0.5415  0.3200
 4987TIP3   OH239155   2.362   6.508  18.708 -0.6587  0.1568  0.2965
 4987TIP3    H139156   2.377   6.582  18.649  0.2266  1.3096  1.8887
 4987TIP3    H239157   2.449   6.473  18.725 -1.0683 -1.2691 -0.4143
 4988TIP3   OH239158   6.683   7.172  17.356 -0.5678  0.3860 -0.4117
 4988TIP3    H139159   6.723   7.129  17.432  1.6340  1.0187 -1.1388
 4988TIP3    H239160   6.619   7.232  17.394  0.0911  0.2896  0.9363
 4989TIP3   OH239161   6.462   5.309  18.301 -0.5607  0.6787  0.3387
 4989TIP3    H139162   6.400   5.269  18.362  0.2318 -0.5397  0.3785
 4989TIP3    H239163   6.547   5.275  18.327 -0.0019  1.4221 -0.4365
 4990TIP3   OH239164   0.679   4.925  16.356  0.1006 -0.0147  0.1381
 4990TIP3    H139165   0.720   4.950  16.274 -0.0617 -0.4219 -0.0652
 4990TIP3    H239166   0.752   4.896  16.411  0.1569 -0.1623 -0.0129
 4991TIP3   OH239167   0.602   5.401  17.006  0.3053  0.0268  0.3232
 4991TIP3    H139168   0.649   5.319  17.020 -2.3894 -1.8335 -0.7262
 4991TIP3    H239169   0.659   5.468  17.044  2.4970 -2.3230  1.4848
 4992TIP3   OH239170   5.194   5.228  17.280  0.5564  0.1484  0.5293
 4992TIP3    H139171   5.111   5.201  17.318  1.8647 -1.9184  2.1024
 4992TIP3    H239172   5.205   5.173  17.203  1.0907 -0.6398  1.1456
 4993TIP3   OH239173   1.266   7.579  17.084  0.5443 -0.4875  0.1981
 4993TIP3    H139174   1.262   7.492  17.124  1.2352 -0.7091 -0.2011
 4993TIP3    H239175   1.179   7.592  17.047 -0.3159 -0.0411  2.2266
 4994TIP3   OH239176   2.563   1.021  18.538  0.3475  0.0367  0.0167
 4994TIP3    H139177   2.490   1.052  18.485  0.7491  0.0379 -0.5444
 4994TIP3    H239178   2.588   0.938  18.498  1.3971  0.5937 -0.5276
 4995TIP3   OH239179   1.333   1.341  17.632 -0.4506 -0.2614 -0.2373
 4995TIP3    H139180   1.395   1.358  17.703 -1.1620 -1.0850  0.6079
 4995TIP3    H239181   1.276   1.418  17.630  0.4393  0.4023 -0.8749
 4996TIP3   OH239182   0.198   7.097  17.502 -0.3836  0.0368 -0.2993
 4996TIP3    H139183   0.147   7.056  17.433 -0.7457 -0.7051  0.3908
 4996TIP3    H239184   0.282   7.051  17.501 -0.2279  0.3248 -0.5332
 4997TIP3   OH239185   0.635   7.424  16.842 -0.7939 -0.2098 -0.5350
 4997TIP3    H139186   0.550   7.380  16.834 -0.0213 -1.8600 -0.0502
 4997TIP3    H239187   0.699   7.361  16.810  0.5088 -0.0902  1.5723
 4998TIP3   OH239188   3.625   2.784  18.862 -0.1447  0.3108  0.1942
 4998TIP3    H139189   3.717   2.763  18.847  0.3053  0.1243  2.7611
 4998TIP3    H239190   3.582   2.700  18.877 -0.1510  0.5306  1.6040
 4999TIP3   OH239191   2.412   7.569  18.337 -0.5948 -0.7473 -0.1886
 4999TIP3    H139192   2.384   7.652  18.374 -0.5328 -1.0140  0.4749
 4999TIP3    H239193   2.379   7.503  18.398 -0.0350 -1.1667 -0.3277
 5000TIP3   OH239194   0.874   4.653  18.450 -0.1400  0.2190 -0.1233
 5000TIP3    H139195   0.841   4.568  18.477 -0.2442  0.0007 -0.9224
 5000TIP3    H239196   0.796   4.708  18.443 -0.2581 -0.0617 -1.1627
 5001TIP3   OH239197   2.240   6.214  15.848  0.2555 -0.1650 -0.0743
 5001TIP3    H139198   2.174   6.147  15.830  0.3345 -0.0184 -0.9950
 5001TIP3    H239199   2.192   6.284  15.891  0.2385 -0.9384  1.2143
 5002TIP3   OH239200   3.546   6.956  16.751  0.0041 -0.3994 -0.4382
 5002TIP3    H139201   3.469   6.931  16.699  1.4864 -0.2634 -2.8721
 5002TIP3    H239202   3.589   7.024  16.699  2.0436 -0.8205  0.5895
 5003TIP3   OH239203   2.487   5.546  16.510 -0.0941 -0.3018  0.2080
 5003TIP3    H139204   2.553   5.578  16.571 -0.3551 -0.2169  0.4507
 5003TIP3    H239205   2.453   5.624  16.467 -0.1271 -0.3339  0.1763
 5004TIP3   OH239206   4.503   5.092  17.071  0.3543  0.1820 -0.3506
 5004TIP3    H139207   4.551   5.031  17.127  2.0642  0.7288 -1.1526
 5004TIP3    H239208   4.481   5.165  17.129  0.8550  0.1093 -0.0673
 5005TIP3   OH239209   0.522   2.881  15.789 -0.2495 -0.0729 -0.3433
 5005TIP3    H139210   0.549   2.915  15.874 -0.0152 -0.3489 -0.3095
 5005TIP3    H239211   0.475   2.800  15.808  1.7968 -1.4082 -0.5946
 5006TIP3   OH239212   3.786   7.602  18.312  0.0007 -0.1288  0.2753
 5006TIP3    H139213   3.741   7.638  18.236  0.3094 -0.5594 -0.1171
 5006TIP3    H239214   3.717   7.590  18.377 -0.3605 -0.2880 -0.1316
 5007TIP3   OH239215   3.495   1.787  16.280 -0.5986  0.5722  0.0827
 5007TIP3    H139216   3.532   1.773  16.193 -0.5828 -0.0929  0.1879
 5007TIP3    H239217   3.401   1.773  16.269 -0.5176 -0.1569  0.2984
 5008TIP3   OH239218   6.202   4.239  15.823 -0.6949  0.1728 -0.3501
 5008TIP3    H139219   6.239   4.164  15.777  0.5861  0.3311  0.3836
 5008TIP3    H239220   6.278   4.293  15.845 -1.4891  1.1048  0.1471
 5009TIP3   OH239221   1.869   3.968  17.663  0.5072  0.2123  0.1296
 5009TIP3    H139222   1.950   3.919  17.648 -0.5117 -1.7141  0.5705
 5009TIP3    H239223   1.868   4.035  17.595  1.2690 -1.3191 -1.4490
 5010TIP3   OH239224   1.815   7.509  16.304  0.1112 -0.1446  0.3754
 5010TIP3    H139225   1.883   7.483  16.241 -0.1919 -1.2093  0.4527
 5010TIP3    H239226   1.844   7.471  16.387  0.4619  1.1785  0.8823
 5011TIP3   OH239227   6.356   6.962  16.497 -0.4412  0.2807  0.0213
 5011TIP3    H139228   6.331   6.920  16.415 -2.9850  3.6919 -1.2000
 5011TIP3    H239229   6.342   6.894  16.564 -1.6284 -1.5939 -1.9946
 5012TIP3   OH239230   7.236   5.913  16.490 -0.0202  0.1729  0.2122
 5012TIP3    H139231   7.245   5.993  16.437  0.1689  0.0575  0.0693
 5012TIP3    H239232   7.149   5.880  16.469 -0.2058  0.4825  0.4682
 5013TIP3   OH239233   5.807   5.658  17.816  0.0829  0.0134  0.6000
 5013TIP3    H139234   5.886   5.713  17.809  0.2604 -0.2544  0.4745
 5013TIP3    H239235   5.811   5.602  17.739  0.5345 -0.9999  1.3438
 5014TIP3   OH239236   0.609   0.860  16.674 -0.1026  0.0011  0.0627
 5014TIP3    H139237   0.644   0.817  16.597 -0.0746  0.7474 -0.3455
 5014TIP3    H239238   0.612   0.953  16.654  0.1828  0.2266  1.0816
 5015TIP3   OH239239   4.619   5.601  17.848  0.4896  0.1455 -0.0649
 5015TIP3    H139240   4.678   5.526  17.856  0.0023 -0.2097  0.2495
 5015TIP3    H239241   4.663   5.671  17.897  2.6011  1.1394 -3.0955
 5016TIP3   OH239242   0.109   4.780  17.655  0.7019  0.0071 -0.0497
 5016TIP3    H139243   0.024   4.817  17.679  0.1130 -1.2036 -0.1834
 5016TIP3    H239244   0.153   4.850  17.606 -0.7475  0.2148 -1.1252
 5017TIP3   OH239245   7.422   7.519  17.712  0.3512  0.3434 -0.1030
 5017TIP3    H139246   7.414   7.589  17.648  0.0149  1.4660  1.1318
 5017TIP3    H239247   7.340   7.522  17.761 -0.7921 -2.5594 -1.5816
 5018TIP3   OH239248   3.339   1.076  16.592 -0.0276  0.1815  0.4681
 5018TIP3    H139249   3.434   1.070  16.602  0.3081 -1.8143 -2.6305
 5018TIP3    H239250   3.307   0.990  16.619 -0.9636  0.7357  1.1928
 5019TIP3   OH239251   7.300   0.140  18.131 -0.0403  0.8316 -0.0640
 5019TIP3    H139252   7.346   0.162  18.212 -0.6603 -2.2587  1.2953
 5019TIP3    H239253   7.353   0.179  18.062  1.2593  2.4449  1.7501
 5020TIP3   OH239254   4.418   7.426  16.299 -0.2942 -0.2039  0.0301
 5020TIP3    H139255   4.360   7.398  16.228  0.0340  0.1984 -0.4054
 5020TIP3    H239256   4.436   7.518  16.279  0.3093 -0.2653  0.2870
 5021TIP3   OH239257   5.825   5.178  18.092 -0.1402  0.2437 -0.1684
 5021TIP3    H139258   5.750   5.220  18.049 -0.6636  0.1798  0.6775
 5021TIP3    H239259   5.898   5.238  18.076  0.0053 -0.3998 -2.2918
 5022TIP3   OH239260   1.062   1.816  17.254  0.0242 -0.1470  0.2337
 5022TIP3    H139261   1.042   1.878  17.324  0.6111  0.4395 -0.1062
 5022TIP3    H239262   1.040   1.731  17.291  0.5687  0.1257  1.2418
 5023TIP3   OH239263   5.637   6.085  16.750 -0.1580 -0.5713  0.3002
 5023TIP3    H139264   5.545   6.098  16.775 -1.2385 -1.3986 -2.7027
 5023TIP3    H239265   5.649   6.142  16.674  1.8962 -0.3674  0.7409
 5024TIP3   OH239266   2.622   3.546  18.576  0.1251 -0.2766 -0.0118
 5024TIP3    H139267   2.529   3.523  18.580  0.3203 -1.1454 -0.1524
 5024TIP3    H239268   2.623   3.641  18.578 -0.7334 -0.2676  0.6453
 5025TIP3   OH239269   7.600   4.745  18.539 -0.0534 -0.4974 -0.3702
 5025TIP3    H139270   7.688   4.717  18.514  0.7506  1.0884  0.5484
 5025TIP3    H239271   7.554   4.664  18.561  1.4060 -1.2854 -0.1315
 5026TIP3   OH239272   7.036   3.733  18.409  0.2038  0.5661 -0.3970
 5026TIP3    H139273   6.946   3.701  18.401  0.3024 -0.1977  1.2247
 5026TIP3    H239274   7.080   3.699  18.330 -0.0696 -2.1522  0.5077
 5027TIP3   OH239275   2.824   2.860  17.287  0.1551  0.0923  0.0216
 5027TIP3    H139276   2.827   2.872  17.192 -2.0239  1.9245  0.1176
 5027TIP3    H239277   2.821   2.765  17.299 -0.5870 -0.1465 -1.7955
 5028TIP3   OH239278   1.201   6.249  18.593 -0.0584  0.5644 -0.3156
 5028TIP3    H139279   1.292   6.269  18.613  0.5906 -2.4663  0.3060
 5028TIP3    H239280   1.152   6.323  18.627  1.8670  0.4839  3.1156
 5029TIP3   OH239281   5.987   0.167  16.008  0.0949 -0.0856  0.6261
 5029TIP3    H139282   5.913   0.215  15.971  1.6045  0.1738 -2.3449
 5029TIP3    H239283   6.004   0.211  16.092 -2.2496  0.6738  0.7840
 5030TIP3   OH239284   0.220   0.159  18.302 -0.3878  0.3670  0.2207
 5030TIP3    H139285   0.272   0.231  18.338 -0.5837  0.5587  0.1197
 5030TIP3    H239286   0.175   0.198  18.227  0.1286 -0.0584 -0.3265
 5031TIP3   OH239287   3.616   7.059  17.935  0.0119 -0.2329 -0.4540
 5031TIP3    H139288   3.694   7.008  17.960 -0.4728 -2.2161 -2.5868
 5031TIP3    H239289   3.550   7.035  18.000  0.2468 -1.2227 -0.5520
 5032TIP3   OH239290   7.196   5.584  18.104 -0.6137  0.1168  0.0840
 5032TIP3    H139291   7.112   5.621  18.130 -0.3414 -0.0703  1.2905
 5032TIP3    H239292   7.205   5.504  18.156  0.2012  0.0078 -0.1978
 5033TIP3   OH239293   6.048   1.530  18.866  0.4009  0.0592 -0.9280
 5033TIP3    H139294   5.961   1.505  18.835  0.2784 -1.1051  0.3032
 5033TIP3    H239295   6.074   1.601  18.807 -1.1419  0.0646 -1.6604
 5034TIP3   OH239296   7.272   1.785  18.837 -0.0801  0.7091 -0.5503
 5034TIP3    H139297   7.194   1.743  18.801  0.0601 -0.5796  0.5737
 5034TIP3    H239298   7.277   1.753  18.927  0.2951  2.8479  0.2251
 5035TIP3   OH239299   2.073   6.004  15.848  0.1262 -0.4577 -0.0835
 5035TIP3    H139300   1.988   6.044  15.863 -0.0228 -0.2840 -1.2703
 5035TIP3    H239301   2.094   5.960  15.930  0.8084  2.8709  1.6948
 5036TIP3   OH239302   0.412   5.178  17.638 -0.0611  0.4778  0.4146
 5036TIP3    H139303   0.442   5.249  17.694  0.8610 -0.1013  0.6845
 5036TIP3    H239304   0.455   5.194  17.554 -2.2910  1.9617 -0.5353
 5037TIP3   OH239305   1.014   2.780  17.928  0.0086  0.0400 -0.3900
 5037TIP3    H139306   0.966   2.761  17.847  2.5003 -1.9651 -1.5548
 5037TIP3    H239307   1.106   2.781  17.900  0.8666  0.5671  2.2366
 5038TIP3   OH239308   5.276   7.381  18.420  0.6682  0.2137 -0.6262
 5038TIP3    H139309   5.272   7.464  18.373 -0.8584  0.2329 -0.5088
 5038TIP3    H239310   5.273   7.314  18.352 -0.6613  0.2503 -0.6258
 5039TIP3   OH239311   7.250   6.039  17.650 -0.3560  0.0315 -1.0618
 5039TIP3    H139312   7.213   6.068  17.567 -2.2933  0.7410 -0.0155
 5039TIP3    H239313   7.189   5.973  17.682 -0.7850  1.2075  0.7094
 5040TIP3   OH239314   3.745   0.495  18.200  0.1540  0.3621 -0.4500
 5040TIP3    H139315   3.727   0.520  18.110  0.5945 -0.4775 -0.7729
 5040TIP3    H239316   3.838   0.514  18.212 -0.2115  1.8821  0.3044
 5041TIP3   OH239317   4.710   0.807  17.273  0.2454 -0.0186  0.1090
 5041TIP3    H139318   4.736   0.893  17.307 -2.3612  1.1578 -0.5345
 5041TIP3    H239319   4.746   0.804  17.185 -2.6881  2.2470 -1.3644
 5042TIP3   OH239320   6.636   3.283  17.093  0.0024  0.1286  0.1760
 5042TIP3    H139321   6.610   3.203  17.047 -1.0876  0.1716  0.6828
 5042TIP3    H239322   6.686   3.252  17.169  3.0438  0.0994 -1.6805
 5043TIP3   OH239323   5.730   4.204  16.314 -0.0614  0.0249 -0.0415
 5043TIP3    H139324   5.690   4.122  16.284 -0.8950  0.0303  1.0098
 5043TIP3    H239325   5.716   4.265  16.242 -0.3433 -0.4739 -0.4167
 5044TIP3   OH239326   2.866   2.494  17.922  0.3292  0.1145 -0.3076
 5044TIP3    H139327   2.923   2.426  17.885 -1.2457 -0.5048 -1.7604
 5044TIP3    H239328   2.814   2.447  17.987  1.5912  0.7316  1.1929
 5045TIP3   OH239329   3.783   6.966  17.330 -0.1247 -0.4150  0.1103
 5045TIP3    H139330   3.724   6.892  17.336  0.3045 -0.8997 -1.3269
 5045TIP3    H239331   3.858   6.934  17.280  0.0386  0.9936 -0.6104
 5046TIP3   OH239332   6.736   6.560  16.475  0.0154 -0.3946 -0.1052
 5046TIP3    H139333   6.675   6.615  16.425  0.2680  1.2680  1.2858
 5046TIP3    H239334   6.820   6.571  16.430  0.1939  0.9122  0.4742
 5047TIP3   OH239335   6.639   0.323  16.725  0.1258  0.7521 -0.2945
 5047TIP3    H139336   6.700   0.394  16.707  0.1916  0.9797  0.7618
 5047TIP3    H239337   6.641   0.313  16.820 -0.8062  0.1580 -0.3235
 5048TIP3   OH239338   6.336   2.217  16.747 -0.1576 -0.5353 -0.1053
 5048TIP3    H139339   6.422   2.258  16.752 -0.4522  0.2670 -1.2473
 5048TIP3    H239340   6.288   2.251  16.823  0.8092 -1.7414  1.1028
 5049TIP3   OH239341   4.384   5.477  17.863 -0.2385  0.3195 -0.1768
 5049TIP3    H139342   4.406   5.389  17.831 -0.8238  0.0653  0.1177
 5049TIP3    H239343   4.462   5.529  17.842 -0.2645 -0.0338 -1.2497
 5050TIP3   OH239344   0.771   2.671  16.990 -0.2422 -0.2760 -0.2047
 5050TIP3    H139345   0.813   2.608  16.931  1.7295  1.2594 -0.5613
 5050TIP3    H239346   0.837   2.687  17.058 -0.0682  2.4852 -0.9476
 5051TIP3   OH239347   2.157   1.898  17.913 -0.5211 -0.0052  0.2763
 5051TIP3    H139348   2.231   1.850  17.951 -0.1486  0.5481  0.2665
 5051TIP3    H239349   2.093   1.831  17.891  0.0561 -0.5074  0.1169
 5052TIP3   OH239350   6.980   6.594  16.326 -0.4212 -0.4064 -0.1465
 5052TIP3    H139351   7.017   6.506  16.341  0.0316 -0.1155  0.5092
 5052TIP3    H239352   7.057   6.648  16.306  0.0185  0.8212  3.9309
 5053TIP3   OH239353   3.313   2.079  18.934 -0.4889  0.6161 -0.0371
 5053TIP3    H139354   3.385   2.116  18.985  0.3899 -2.4213  1.1859
 5053TIP3    H239355   3.243   2.065  18.998 -0.3699 -0.7943 -0.1857
 5054TIP3   OH239356   2.249   4.116  17.480  0.0394 -0.4770 -0.0217
 5054TIP3    H139357   2.278   4.149  17.394  0.5221 -2.5313 -0.6930
 5054TIP3    H239358   2.312   4.153  17.542  1.2083 -0.9662 -0.8809
 5055TIP3   OH239359   5.345   6.808  18.740 -0.7179  0.5085  0.0878
 5055TIP3    H139360   5.274   6.860  18.777  0.6048  1.6513  1.1094
 5055TIP3    H239361   5.419   6.867  18.737  0.3938 -0.8480 -0.3030
 5056TIP3   OH239362   3.234   4.686  17.340  0.0905  0.2839 -0.3684
 5056TIP3    H139363   3.240   4.757  17.404 -1.0291 -1.0639  1.3077
 5056TIP3    H239364   3.306   4.627  17.361 -0.1971 -0.0980 -0.4326
 5057TIP3   OH239365   4.145   3.169  18.450  0.0674 -0.4227 -0.2462
 5057TIP3    H139366   4.165   3.193  18.360 -2.1846  2.5353 -0.1011
 5057TIP3    H239367   4.117   3.078  18.445 -0.3449 -0.2273 -2.5828
 5058TIP3   OH239368   1.835   0.235  16.837  0.3559 -0.1942 -0.0869
 5058TIP3    H139369   1.796   0.189  16.763  0.8977  0.0593 -0.5453
 5058TIP3    H239370   1.906   0.178  16.866 -0.1974 -0.5379  0.5773
 5059TIP3   OH239371   5.107   2.096  18.496 -0.2566 -0.5916 -0.8077
 5059TIP3    H139372   5.025   2.133  18.462  0.7144  1.0823 -1.4158
 5059TIP3    H239373   5.142   2.164  18.553  1.4401 -0.6463 -1.7282
 5060TIP3   OH239374   1.156   6.297  16.204  0.0680  0.1462 -0.5825
 5060TIP3    H139375   1.214   6.290  16.280  0.4516 -0.4837 -0.9193
 5060TIP3    H239376   1.215   6.304  16.129 -0.2266 -1.6948 -1.0515
 5061TIP3   OH239377   3.575   4.719  17.870 -0.3729 -0.0343 -0.4881
 5061TIP3    H139378   3.545   4.628  17.877 -1.5882  0.4041  0.0768
 5061TIP3    H239379   3.514   4.759  17.808 -0.4399  0.6528  0.0226
 5062TIP3   OH239380   0.678   3.309  18.028 -0.3945  0.1029  0.0030
 5062TIP3    H139381   0.602   3.306  17.969 -1.7695  0.8795  1.6378
 5062TIP3    H239382   0.709   3.399  18.022  0.0289 -0.0515 -0.1818
 5063TIP3   OH239383   4.474   6.507  18.235 -0.0237  0.4222 -0.0466
 5063TIP3    H139384   4.396   6.539  18.280 -1.2783 -2.4679  0.0329
 5063TIP3    H239385   4.440   6.463  18.157  1.7159  0.8840 -1.1114
 5064TIP3   OH239386   2.395   2.228  18.962  0.3556 -0.9157 -0.0463
 5064TIP3    H139387   2.348   2.231  18.878  0.0518  0.7724  0.1598
 5064TIP3    H239388   2.326   2.223  19.028  0.2709  2.8237  0.3340
 5065TIP3   OH239389   3.006   4.084  16.630  0.0075 -0.8204 -0.3440
 5065TIP3    H139390   3.076   4.142  16.601 -1.3019  0.9795 -0.0380
 5065TIP3    H239391   2.930   4.141  16.639 -0.7683 -2.1411  2.2868
 5066TIP3   OH239392   7.132   0.367  18.001 -0.0822 -0.5199 -0.3350
 5066TIP3    H139393   7.147   0.461  17.992 -1.8156 -0.1354  0.4453
 5066TIP3    H239394   7.193   0.339  18.069 -0.6358  0.3406  0.5300
 5067TIP3   OH239395   5.811   3.761  17.880 -0.0099 -0.4807  0.2736
 5067TIP3    H139396   5.904   3.742  17.875  0.1307 -0.0810  1.1568
 5067TIP3    H239397   5.778   3.743  17.792  1.1819  0.8738 -0.5079
 5068TIP3   OH239398   3.027   1.047  16.900  0.0369  0.4430 -0.1984
 5068TIP3    H139399   3.024   1.106  16.824  1.1847 -0.1015 -0.6816
 5068TIP3    H239400   3.117   1.051  16.930 -0.8672  2.4399  2.6107
 5069TIP3   OH239401   5.148   0.373  17.984  0.1187  0.3809 -0.1402
 5069TIP3    H139402   5.064   0.413  17.962 -1.0557 -0.5202  2.3390
 5069TIP3    H239403   5.132   0.279  17.980  0.3159  0.1613  2.3899
 5070TIP3   OH239404   5.717   2.743  18.355 -0.0747 -0.2853  0.0989
 5070TIP3    H139405   5.754   2.659  18.385  0.7758 -0.4039 -1.1991
 5070TIP3    H239406   5.672   2.721  18.273  2.0924  0.8648 -1.4934
 5071TIP3   OH239407   4.530   5.331  18.286  0.7295  0.2355 -0.5291
 5071TIP3    H139408   4.539   5.426  18.286  0.4935  0.2589 -1.0609
 5071TIP3    H239409   4.583   5.301  18.212 -0.8052  0.1188 -1.6269
 5072TIP3   OH239410   6.093   3.812  18.331 -0.4624 -0.5765 -0.2036
 5072TIP3    H139411   6.070   3.721  18.315  0.1190 -0.8586  0.4918
 5072TIP3    H239412   6.183   3.808  18.364 -0.1919  0.3078 -0.8155
 5073TIP3   OH239413   5.214   2.618  18.476 -0.1581  0.1988 -0.2298
 5073TIP3    H139414   5.252   2.578  18.397 -0.9538  1.1066 -1.0957
 5073TIP3    H239415   5.270   2.694  18.494 -0.5039  0.5132 -0.4625
 5074TIP3   OH239416   2.205   5.132  16.674 -0.0421  0.5739 -0.3180
 5074TIP3    H139417   2.123   5.181  16.674 -0.4658 -0.1205  0.0234
 5074TIP3    H239418   2.178   5.041  16.680  0.7791  0.3870  0.8761
 5075TIP3   OH239419   5.727   0.254  15.957  0.1566 -0.2677 -0.0390
 5075TIP3    H139420   5.722   0.279  16.049  0.9806 -2.0962  0.5615
 5075TIP3    H239421   5.664   0.310  15.913  0.2818  1.1785  1.5099
 5076TIP3   OH239422   3.661   2.211  16.666 -0.6502  0.4137  0.2651
 5076TIP3    H139423   3.673   2.303  16.643  0.9947  0.1069 -0.1951
 5076TIP3    H239424   3.749   2.176  16.675 -1.1196 -1.8055 -2.3574
 5077TIP3   OH239425   0.776   0.022  17.587 -0.0442  0.1547 -0.2864
 5077TIP3    H139426   0.710   0.047  17.523  0.8600  1.4003 -0.7888
 5077TIP3    H239427   0.799   0.104  17.631  0.1484 -0.4972  0.8629
 5078TIP3   OH239428   3.675   1.699  16.593  0.8129  0.2088 -0.3220
 5078TIP3    H139429   3.619   1.716  16.668  0.3695 -0.8843 -0.3780
 5078TIP3    H239430   3.688   1.784  16.552  0.9845  0.8038  0.9294
 5079TIP3   OH239431   6.088   3.528  18.390  0.2459  0.2144 -0.5732
 5079TIP3    H139432   6.181   3.552  18.394  0.1606  0.5073 -0.4050
 5079TIP3    H239433   6.082   3.448  18.442  0.4837 -0.0520 -0.9465
 5080TIP3   OH239434   5.060   1.116  18.153 -0.0270 -0.2558 -0.6027
 5080TIP3    H139435   5.008   1.183  18.198  0.1013  0.0638 -0.9274
 5080TIP3    H239436   4.999   1.075  18.092  0.3450  0.8509 -1.7674
 5081TIP3   OH239437   0.432   5.814  16.422 -0.3282  0.2567  0.9377
 5081TIP3    H139438   0.456   5.906  16.415 -0.1197  0.2556  1.5863
 5081TIP3    H239439   0.362   5.802  16.357 -0.2297  0.8236  0.7257
 5082TIP3   OH239440   7.361   2.408  16.399 -0.1230 -0.4647  0.2676
 5082TIP3    H139441   7.292   2.468  16.428 -0.1052 -0.6609  0.7129
 5082TIP3    H239442   7.315   2.333  16.362 -0.1661  0.4553 -1.6690
 5083TIP3   OH239443   5.551   6.240  17.582  0.6353 -0.4585  0.0876
 5083TIP3    H139444   5.471   6.212  17.538 -0.0228  0.2239  0.8285
 5083TIP3    H239445   5.535   6.224  17.675  0.4689  1.7034  0.4882
 5084TIP3   OH239446   4.381   5.592  15.422 -0.0996 -0.4073 -0.6467
 5084TIP3    H139447   4.462   5.559  15.384  1.8071  1.3296  1.5585
 5084TIP3    H239448   4.398   5.686  15.435 -1.2395 -0.5283  2.6070
 5085TIP3   OH239449   1.590   2.518  17.233  0.4961  1.0061  0.3965
 5085TIP3    H139450   1.633   2.534  17.149 -1.0250  0.5192 -0.5113
 5085TIP3    H239451   1.661   2.522  17.297  1.7508  1.0422 -0.9425
 5086TIP3   OH239452   1.604   6.021  18.758 -0.4847 -0.3254  0.0454
 5086TIP3    H139453   1.664   6.071  18.813 -0.6422  0.7066 -0.6955
 5086TIP3    H239454   1.602   5.934  18.798  1.6137 -0.4453 -0.0193
 5087TIP3   OH239455   0.955   1.181  18.212 -0.1403 -0.5013  0.0069
 5087TIP3    H139456   0.871   1.151  18.245  0.5674  0.4000  2.9064
 5087TIP3    H239457   1.020   1.129  18.260  0.9813  0.2698 -0.6245
 5088TIP3   OH239458   0.112   3.043  16.158 -0.0726 -0.0591  0.2256
 5088TIP3    H139459   0.108   2.994  16.240  1.4878 -0.0322  0.3639
 5088TIP3    H239460   0.088   3.132  16.182 -0.7532 -0.2933  0.4221
 5089TIP3   OH239461   2.162   0.790  17.494  0.2424 -0.6167  0.0728
 5089TIP3    H139462   2.100   0.833  17.435  0.5319  0.7811  0.7508
 5089TIP3    H239463   2.226   0.749  17.436  0.8644  1.2471 -0.6012
 5090TIP3   OH239464   6.969   4.869  17.669 -0.0256 -0.0402  0.0969
 5090TIP3    H139465   6.915   4.921  17.610 -0.2010  0.9007  1.0739
 5090TIP3    H239466   6.914   4.853  17.745  0.3104 -0.9722  0.1570
 5091TIP3   OH239467   5.665   1.638  16.076 -0.1596  0.2233 -0.2935
 5091TIP3    H139468   5.697   1.637  15.986  0.7128  0.9531 -0.0092
 5091TIP3    H239469   5.722   1.701  16.120 -0.9041  0.2453  0.6478
 5092TIP3   OH239470   5.845   3.113  16.103  0.1095 -0.1763 -0.2810
 5092TIP3    H139471   5.762   3.076  16.073 -0.9731  1.2506  0.8369
 5092TIP3    H239472   5.839   3.206  16.081  0.8040  0.2162  1.0765
 5093TIP3   OH239473   6.432   5.382  16.889 -0.1983  0.2584  0.3817
 5093TIP3    H139474   6.430   5.404  16.796 -4.7444 -0.4547  0.0826
 5093TIP3    H239475   6.388   5.456  16.932 -0.0716 -0.3861  1.6583
 5094TIP3   OH239476   7.376   1.444  16.192  0.3215  0.2040 -0.2624
 5094TIP3    H139477   7.307   1.377  16.185  0.2436  0.3409 -0.8430
 5094TIP3    H239478   7.392   1.471  16.102 -0.5624  1.9153  0.0588
 5095TIP3   OH239479   4.717   1.819  17.754 -0.0380 -0.0408 -0.5056
 5095TIP3    H139480   4.721   1.829  17.659  0.0998  1.5140 -0.3679
 5095TIP3    H239481   4.750   1.902  17.788 -2.3526  0.4092  0.8748
 5096TIP3   OH239482   1.959   2.412  18.042  0.5282  0.5288 -0.5298
 5096TIP3    H139483   2.014   2.358  17.984 -2.2471  1.3598 -4.3299
 5096TIP3    H239484   1.980   2.502  18.018  0.4849  0.9593  1.0016
 5097TIP3   OH239485   3.438   3.867  16.527 -0.6443  0.1391 -0.5913
 5097TIP3    H139486   3.518   3.815  16.525 -0.8397 -0.1626 -0.5489
 5097TIP3    H239487   3.382   3.828  16.460 -0.4037  0.9142 -1.2680
 5098TIP3   OH239488   7.017   3.925  27.441 -0.3528  0.4790  0.2460
 5098TIP3    H139489   6.936   3.970  27.417  1.0143  2.4704 -0.9126
 5098TIP3    H239490   7.011   3.840  27.398 -1.6994  0.6938 -0.0213
 5099TIP3   OH239491   6.585   6.792  19.044  0.3025  0.7979  0.1854
 5099TIP3    H139492   6.672   6.830  19.056  0.9845 -0.9329  0.9898
 5099TIP3    H239493   6.601   6.701  19.021 -1.2998  0.4846  0.2058
 5100TIP3   OH239494   6.204   6.934  17.513 -0.1874  0.1496  0.0725
 5100TIP3    H139495   6.179   6.878  17.440 -0.0435 -0.6339  0.6095
 5100TIP3    H239496   6.140   7.005  17.512 -1.0946 -0.6390  0.0732
 5101TIP3   OH239497   0.614   7.510  18.558 -0.0418 -0.2350  0.4848
 5101TIP3    H139498   0.695   7.505  18.608  1.4223  0.6298 -1.6397
 5101TIP3    H239499   0.588   7.419  18.545  1.0736 -0.5705  0.4771
 5102TIP3   OH239500   7.046   6.344  16.741  0.0947  0.0269 -0.2493
 5102TIP3    H139501   7.006   6.425  16.771 -1.1495 -0.0468 -1.6205
 5102TIP3    H239502   7.055   6.291  16.821 -1.0893  0.6596  0.3328
 5103TIP3   OH239503   5.777   2.247  16.178  0.1549 -0.2784 -0.0756
 5103TIP3    H139504   5.763   2.162  16.219  0.7957 -0.5856 -0.4873
 5103TIP3    H239505   5.871   2.252  16.164  0.0966  0.4069 -0.2637
 5104TIP3   OH239506   7.009   2.858  17.980  0.5623  0.3219 -0.3847
 5104TIP3    H139507   7.051   2.862  18.066  1.0605  0.1429 -0.6131
 5104TIP3    H239508   7.074   2.816  17.924  0.4317  0.8805 -0.9631
 5105TIP3   OH239509   1.498   4.988  18.142  0.3125  0.1199 -0.0558
 5105TIP3    H139510   1.423   4.970  18.199  0.8084 -0.4500  0.4347
 5105TIP3    H239511   1.558   5.039  18.196  0.6174 -0.0915 -0.1928
 5106TIP3   OH239512   6.405   0.478  17.590  0.6879 -0.2648 -0.1390
 5106TIP3    H139513   6.340   0.547  17.604  0.3744  0.1332 -2.9106
 5106TIP3    H239514   6.394   0.419  17.664 -1.1580  1.0625  0.7259
 5107TIP3   OH239515   4.746   7.234  18.480  0.6110  0.1911 -0.3000
 5107TIP3    H139516   4.704   7.222  18.565  2.6849  0.4921  0.8256
 5107TIP3    H239517   4.833   7.267  18.501  1.6999 -1.0871 -2.4639
 5108TIP3   OH239518   2.880   1.716  17.146 -0.2171  0.6314 -0.0036
 5108TIP3    H139519   2.947   1.712  17.215  0.1348  1.5842 -0.2726
 5108TIP3    H239520   2.797   1.719  17.194 -0.1049 -0.7361  0.3318
 5109TIP3   OH239521   1.967   2.497  17.692  0.1056 -0.7133 -0.4084
 5109TIP3    H139522   1.935   2.415  17.730 -0.1501  0.1697  1.4045
 5109TIP3    H239523   1.890   2.553  17.687  0.1758 -0.7110 -2.1207
 5110TIP3   OH239524   5.330   0.179  18.742  0.3297 -0.2427  0.0998
 5110TIP3    H139525   5.244   0.183  18.699  0.8554  1.6406 -0.8661
 5110TIP3    H239526   5.388   0.228  18.685  1.1393  2.1209  2.7092
 5111TIP3   OH239527   4.435   2.875  17.854  0.6352 -0.0281  0.0521
 5111TIP3    H139528   4.421   2.902  17.945  0.1107 -0.6744  0.1669
 5111TIP3    H239529   4.419   2.954  17.803  0.4753  0.2232  0.4841
 5112TIP3   OH239530   3.102   5.360  17.117  0.5022 -0.0011 -0.0126
 5112TIP3    H139531   3.034   5.416  17.081 -1.2080 -1.5458  0.6534
 5112TIP3    H239532   3.144   5.320  17.041 -1.0447 -0.9161 -0.4372
 5113TIP3   OH239533   0.144   5.229  17.488 -0.3493  0.0068 -0.6109
 5113TIP3    H139534   0.110   5.290  17.553  1.4642  1.1898 -0.7128
 5113TIP3    H239535   0.151   5.281  17.407  2.6235  0.1867 -0.3434
 5114TIP3   OH239536   3.555   1.557  17.023  0.0631 -0.9238 -0.3635
 5114TIP3    H139537   3.493   1.513  17.082 -0.8518  1.2419  0.4434
 5114TIP3    H239538   3.500   1.592  16.953  0.6502 -0.5766 -0.6593
 5115TIP3   OH239539   2.151   0.980  16.606  0.2288 -0.1116 -0.7719
 5115TIP3    H139540   2.134   0.889  16.579 -1.2052 -0.1310  0.1062
 5115TIP3    H239541   2.220   1.010  16.547  0.4460 -1.6447 -1.3403
 5116TIP3   OH239542   1.069   1.391  18.427  0.3716 -0.0374  0.3005
 5116TIP3    H139543   1.009   1.455  18.465  0.4124 -0.4257  1.0470
 5116TIP3    H239544   1.033   1.306  18.453  0.4774 -0.3163 -0.4315
 5117TIP3   OH239545   4.920   1.593  16.711  0.2648  0.2119  0.2833
 5117TIP3    H139546   4.997   1.644  16.685 -0.0015 -0.3747 -1.9382
 5117TIP3    H239547   4.865   1.592  16.632 -2.2830  1.0308  1.9449
 5118TIP3   OH239548   3.017   4.780  17.202 -0.1032  0.3841 -0.4418
 5118TIP3    H139549   2.950   4.761  17.268 -0.9591  0.9466 -1.1167
 5118TIP3    H239550   3.081   4.710  17.211 -1.5117 -0.9872 -0.7194
 5119TIP3   OH239551   7.507   6.852  17.842  0.3808  0.1675  0.2854
 5119TIP3    H139552   7.488   6.770  17.888  1.8061 -0.2087  0.2439
 5119TIP3    H239553   7.534   6.825  17.755  1.6519  0.6113  0.5266
 5120TIP3   OH239554   6.283   4.281  17.553 -0.4954 -0.5901  0.0924
 5120TIP3    H139555   6.330   4.362  17.533 -0.5564 -0.6126 -0.1493
 5120TIP3    H239556   6.305   4.262  17.644  0.1842 -0.7481 -0.0992
 5121TIP3   OH239557   7.540   4.933  17.672  0.0194  0.0650 -0.1969
 5121TIP3    H139558   7.497   5.007  17.629  0.2280  0.6096  0.5093
 5121TIP3    H239559   7.574   4.970  17.754  0.8262 -0.6300 -0.2095
 5122TIP3   OH239560   4.259   2.194  18.525  0.3411  0.2463 -0.1596
 5122TIP3    H139561   4.256   2.188  18.429  1.3983  0.7506 -0.2402
 5122TIP3    H239562   4.231   2.283  18.544 -1.6761 -0.4030  0.1453
 5123TIP3   OH239563   2.433   1.469  17.098 -1.0185 -0.7317  0.1485
 5123TIP3    H139564   2.497   1.424  17.043  0.8792  3.5867 -1.6190
 5123TIP3    H239565   2.355   1.476  17.043 -0.2761  0.6121 -0.8050
 5124TIP3   OH239566   2.378   1.474  17.845  0.5379 -0.0972  0.0811
 5124TIP3    H139567   2.364   1.380  17.833 -1.0799  0.0723  0.4930
 5124TIP3    H239568   2.429   1.480  17.925 -1.2422 -0.5525  1.2978
 5125TIP3   OH239569   2.846   3.193  16.879 -0.1871 -0.0561 -0.3606
 5125TIP3    H139570   2.919   3.253  16.867  0.6351 -1.2649 -1.6900
 5125TIP3    H239571   2.866   3.147  16.960  0.4188 -0.2317 -0.6090
 5126TIP3   OH239572   0.709   2.544  16.508 -0.3247  0.7873  0.2390
 5126TIP3    H139573   0.772   2.472  16.503  1.3021  1.9111  2.5411
 5126TIP3    H239574   0.763   2.623  16.500 -2.0826  1.8360 -2.4256
 5127TIP3   OH239575   1.021   7.128  18.099 -0.2728  0.6628  0.2537
 5127TIP3    H139576   1.027   7.126  18.194 -2.7931 -0.4445  0.4652
 5127TIP3    H239577   0.938   7.172  18.081 -1.0650 -1.3271 -1.3143
 5128TIP3   OH239578   7.005   4.044  17.293 -0.6737  0.2700  0.4009
 5128TIP3    H139579   6.962   3.998  17.221  1.7117  1.0167 -1.6398
 5128TIP3    H239580   7.024   3.976  17.357  1.2700 -1.4195 -1.7874
 5129TIP3   OH239581   5.262   1.294  17.080  0.7314  0.1192 -0.3033
 5129TIP3    H139582   5.190   1.296  17.143  1.3150  0.4884  0.3696
 5129TIP3    H239583   5.303   1.380  17.088  1.7361 -0.3679 -0.0887
 5130TIP3   OH239584   1.644   3.646  16.129 -0.2525  0.0204  0.5573
 5130TIP3    H139585   1.695   3.588  16.072  0.8460  0.6204  0.8873
 5130TIP3    H239586   1.581   3.588  16.171  0.6355 -0.9043  0.6809
 5131TIP3   OH239587   6.221   2.488  18.827  0.5075  0.7567 -0.2857
 5131TIP3    H139588   6.191   2.402  18.797  2.4272 -0.0611  0.0299
 5131TIP3    H239589   6.281   2.470  18.899  1.3926  2.3223 -0.5685
 5132TIP3   OH239590   2.516   0.859  17.430  0.2433 -0.2442 -0.1843
 5132TIP3    H139591   2.573   0.880  17.357 -0.8132  1.1758 -0.6340
 5132TIP3    H239592   2.445   0.807  17.392 -0.2576  0.4158 -0.1776
 5133TIP3   OH239593   7.517   5.433  17.273 -0.1024  0.3798 -0.3476
 5133TIP3    H139594   7.567   5.484  17.209 -0.4082 -0.3808 -1.2056
 5133TIP3    H239595   7.447   5.492  17.300 -0.5503  0.3834 -1.4498
 5134TIP3   OH239596   3.169   3.591  16.932 -0.3085  0.5596  0.3310
 5134TIP3    H139597   3.242   3.646  16.903 -1.4430  1.5363 -0.8150
 5134TIP3    H239598   3.209   3.505  16.949  0.7241  0.1854 -3.1698
 5135TIP3   OH239599   3.800   1.622  17.851 -0.0444  0.3504  0.2083
 5135TIP3    H139600   3.850   1.703  17.856 -0.3110  0.6756 -1.6331
 5135TIP3    H239601   3.865   1.552  17.860  0.4495  0.7668 -0.1369
 5136TIP3   OH239602   6.625   5.764  17.707  0.0004  0.0347  0.4058
 5136TIP3    H139603   6.577   5.805  17.635  0.3258 -2.1630 -1.1626
 5136TIP3    H239604   6.559   5.714  17.755  0.3019 -1.0322 -0.2807
 5137TIP3   OH239605   5.367   5.435  17.319  0.5038  0.1409  0.0511
 5137TIP3    H139606   5.305   5.504  17.294  0.3528  0.2488  0.6971
 5137TIP3    H239607   5.312   5.357  17.331  0.8288 -0.4192 -1.8798
 5138TIP3   OH239608   5.173   3.677  16.931 -0.6841 -0.7150  0.3169
 5138TIP3    H139609   5.242   3.621  16.896 -0.7362 -1.6206  1.5744
 5138TIP3    H239610   5.154   3.640  17.017 -1.7271  0.3981  0.5928
 5139TIP3   OH239611   4.994   7.393  17.933 -0.4564 -0.2369  0.5698
 5139TIP3    H139612   4.926   7.455  17.907 -0.7011 -0.6955  0.1085
 5139TIP3    H239613   4.973   7.370  18.024  0.3143  1.2556  1.1836
 5140TIP3   OH239614   0.710   2.715  17.801 -0.6363 -0.3438 -0.3616
 5140TIP3    H139615   0.734   2.804  17.827 -0.6452 -0.9106  1.7365
 5140TIP3    H239616   0.636   2.693  17.857  0.4415 -2.2876  0.3757
 5141TIP3   OH239617   2.103   0.329  17.779  0.1147 -0.3129 -0.5365
 5141TIP3    H139618   2.105   0.412  17.730 -1.8352 -0.6199 -1.2332
 5141TIP3    H239619   2.031   0.280  17.740  0.8822 -2.1422  0.2239
 5142TIP3   OH239620   3.762   5.863  18.077 -0.1341 -0.2363  0.7343
 5142TIP3    H139621   3.764   5.838  18.169 -0.0407 -0.0518  0.7808
 5142TIP3    H239622   3.853   5.872  18.052 -0.0040 -2.8283 -0.0626
 5143TIP3   OH239623   5.821   6.014  17.497  0.0422 -0.2344  0.1303
 5143TIP3    H139624   5.759   6.027  17.425  0.2002  1.0744  0.1998
 5143TIP3    H239625   5.865   6.099  17.505  1.2402 -0.8870  0.6402
 5144TIP3   OH239626   1.909   5.274  18.625  0.8888  0.0240 -0.5136
 5144TIP3    H139627   1.966   5.226  18.565 -2.0996 -0.0270 -3.5805
 5144TIP3    H239628   1.913   5.365  18.594 -0.1035  0.1425 -0.3191
 5145TIP3   OH239629   7.165   2.345  16.663 -0.9133 -0.6419  0.1781
 5145TIP3    H139630   7.099   2.317  16.600 -2.4225  0.6162  1.1390
 5145TIP3    H239631   7.138   2.433  16.689  1.9369  0.5555 -0.4455
 5146TIP3   OH239632   1.039   6.613  18.521 -0.1690 -0.1620 -0.5515
 5146TIP3    H139633   1.029   6.538  18.581 -0.0931 -0.1677 -0.5464
 5146TIP3    H239634   0.963   6.668  18.540  0.6349  0.5951  0.6310
 5147TIP3   OH239635   6.934   0.489  18.407  0.3778  0.2566 -0.0574
 5147TIP3    H139636   6.950   0.495  18.502  0.7718 -0.2079 -0.0934
 5147TIP3    H239637   6.905   0.399  18.393  1.2207  0.0524 -0.5127
 5148TIP3   OH239638   7.007   2.828  16.493  0.4869  0.1189 -0.6400
 5148TIP3    H139639   7.006   2.820  16.589  1.3693 -0.2284 -0.6581
 5148TIP3    H239640   7.042   2.916  16.477  2.9435 -0.7842 -0.6631
 5149TIP3   OH239641   0.432   0.585  17.767  0.1480  0.2243 -0.2494
 5149TIP3    H139642   0.357   0.531  17.790  0.0226  0.9390  1.1425
 5149TIP3    H239643   0.508   0.535  17.797  0.2554 -0.4511 -1.5640
 5150TIP3   OH239644   2.759   5.374  17.062 -0.4939 -0.0088  0.0076
 5150TIP3    H139645   2.774   5.296  17.116 -0.6988  0.5177  0.8486
 5150TIP3    H239646   2.724   5.438  17.123  1.5246  1.4098 -0.2309
 5151TIP3   OH239647   7.574   0.167  17.182 -0.6733 -0.4719  0.6919
 5151TIP3    H139648   7.547   0.078  17.161 -0.5778 -0.9137  2.3539
 5151TIP3    H239649   7.504   0.201  17.237 -0.2912  0.1829  0.7877
 5152TIP3   OH239650   5.440   7.188  17.840  0.2978 -0.2968  0.4155
 5152TIP3    H139651   5.345   7.178  17.847  0.3446 -0.6217  0.6341
 5152TIP3    H239652   5.474   7.137  17.914  0.5512  1.5351  1.6133
 5153TIP3   OH239653   2.482   4.041  17.707 -0.0593  0.0896 -0.1486
 5153TIP3    H139654   2.438   3.976  17.762 -0.5695  0.2214 -0.3908
 5153TIP3    H239655   2.560   3.996  17.675 -0.6248 -0.5654 -0.6575
 5154TIP3   OH239656   1.785   0.523  16.883 -0.8065 -0.0784  0.6241
 5154TIP3    H139657   1.710   0.550  16.829 -0.9504 -1.4686  0.0835
 5154TIP3    H239658   1.798   0.431  16.861  1.6395  0.3448  0.0354
 5155TIP3   OH239659   3.254   1.722  17.016 -0.5971  0.4155  0.0482
 5155TIP3    H139660   3.216   1.635  17.028 -1.5581  0.8967  0.5828
 5155TIP3    H239661   3.278   1.750  17.105 -0.3494  0.7249 -0.1151
 5156TIP3   OH239662   4.098   3.688  18.644 -0.4261  0.2169 -0.0520
 5156TIP3    H139663   4.161   3.632  18.598  2.0126  1.7041  1.2282
 5156TIP3    H239664   4.071   3.637  18.720  0.5807  0.1566  0.2816
 5157TIP3   OH239665   6.546   4.208  16.952 -0.1413  0.0027  0.4790
 5157TIP3    H139666   6.612   4.201  16.883  0.7739 -2.2295  1.5076
 5157TIP3    H239667   6.585   4.268  17.016  1.5512 -2.2237  1.6682
 5158TIP3   OH239668   2.110   3.636  18.653  0.4139  0.3240  0.3825
 5158TIP3    H139669   2.028   3.591  18.636  0.9666 -1.0846  1.2979
 5158TIP3    H239670   2.085   3.727  18.671 -0.7984  0.2116 -0.6323
 5159TIP3   OH239671   1.581   4.275  18.332  0.2019 -0.6381 -0.3780
 5159TIP3    H139672   1.580   4.260  18.427 -1.3740 -1.7922 -0.5428
 5159TIP3    H239673   1.664   4.238  18.303  0.6687 -0.3462  0.5319
 5160TIP3   OH239674   0.264   6.864  18.825  0.1559 -0.0292  0.1732
 5160TIP3    H139675   0.214   6.941  18.853  0.5248 -0.1267  1.1362
 5160TIP3    H239676   0.269   6.873  18.730 -0.6710  0.6038  0.1717
 5161TIP3   OH239677   6.253   7.649  18.748  0.7498  0.9190  0.9126
 5161TIP3    H139678   6.255   7.738  18.712  0.3716  0.2446 -0.8661
 5161TIP3    H239679   6.311   7.653  18.824  2.2668  2.2339 -0.2390
 5162TIP3   OH239680   3.416   2.826  17.025 -0.4073  0.4816  0.4546
 5162TIP3    H139681   3.443   2.906  17.069 -0.3863  0.0007  1.3394
 5162TIP3    H239682   3.499   2.786  16.996 -0.3570  0.3474  0.7828
 5163TIP3   OH239683   4.684   4.246  17.261 -0.0122  0.4468  0.9042
 5163TIP3    H139684   4.610   4.302  17.285  0.8028  1.9817  0.0356
 5163TIP3    H239685   4.687   4.250  17.166  2.1358  1.7808  0.9703
 5164TIP3   OH239686   0.207   6.120  18.358 -0.2689 -0.3557  0.0747
 5164TIP3    H139687   0.252   6.074  18.429  0.6955  0.8048  0.2483
 5164TIP3    H239688   0.242   6.209  18.362 -0.4848 -0.1767 -1.6215
 5165TIP3   OH239689   4.797   5.284  17.042  0.2483 -0.0300  0.7184
 5165TIP3    H139690   4.780   5.334  16.963  0.6566  0.6338  1.0358
 5165TIP3    H239691   4.867   5.332  17.086  0.6185 -0.8600  1.0590
 5166TIP3   OH239692   4.272   2.020  18.738  0.7861 -0.6053  0.2691
 5166TIP3    H139693   4.198   1.959  18.747 -0.0054  0.2556 -0.1793
 5166TIP3    H239694   4.268   2.048  18.646 -0.9478  2.6198  1.1556
 5167TIP3   OH239695   5.056   3.432  17.051 -0.1440  0.5684  0.6094
 5167TIP3    H139696   5.149   3.450  17.062  0.0910 -0.3003  0.1153
 5167TIP3    H239697   5.022   3.426  17.141  0.5736 -0.5622  0.8264
 5168TIP3   OH239698   4.628   5.892  16.110  0.7792 -0.2349 -0.1053
 5168TIP3    H139699   4.719   5.867  16.122  1.0533  0.9623  0.3503
 5168TIP3    H239700   4.610   5.955  16.179  0.1008  0.8199 -1.2001
 5169TIP3   OH239701   2.540   1.127  16.931 -0.6897  0.3094  0.3740
 5169TIP3    H139702   2.604   1.185  16.972  1.0271 -0.1233 -1.5060
 5169TIP3    H239703   2.494   1.182  16.868 -0.3309  0.0465 -0.1231
 5170TIP3   OH239704   7.537   2.561  17.026 -0.6273  0.0503  0.2871
 5170TIP3    H139705   7.566   2.523  17.108 -0.8195 -0.9050 -0.0691
 5170TIP3    H239706   7.595   2.523  16.960 -0.1188  1.2264  0.0343
 5171TIP3   OH239707   6.074   1.265  18.689 -0.3414 -0.5373 -0.2254
 5171TIP3    H139708   6.146   1.273  18.626  2.4094 -0.2050  2.6922
 5171TIP3    H239709   6.052   1.356  18.711 -0.6304 -0.6518 -0.0411
 5172TIP3   OH239710   2.119   3.950  18.688  0.3230  0.1317 -0.3256
 5172TIP3    H139711   2.159   4.021  18.737  2.4851 -0.4430 -1.1406
 5172TIP3    H239712   2.033   3.984  18.662  0.8076  1.9613  0.3253
 5173TIP3   OH239713   7.149   6.407  17.566 -0.6861  0.4937 -0.4267
 5173TIP3    H139714   7.153   6.375  17.476  1.4372  2.6861 -1.2172
 5173TIP3    H239715   7.239   6.403  17.597 -1.0921  1.4609  0.9840
 5174TIP3   OH239716   0.850   5.637  17.483 -0.1547  0.4368 -0.5621
 5174TIP3    H139717   0.804   5.665  17.563 -0.5168 -0.7803 -0.3282
 5174TIP3    H239718   0.838   5.710  17.422  0.0792  1.3654  0.4594
 5175TIP3   OH239719   4.774   7.604  15.939  0.4006 -0.0564 -0.6054
 5175TIP3    H139720   4.681   7.584  15.948  0.9517 -2.4542  0.7034
 5175TIP3    H239721   4.777   7.699  15.929 -2.1405  0.1623 -0.0819
 5176TIP3   OH239722   3.703   1.061  17.187  0.9526 -0.0770 -0.2602
 5176TIP3    H139723   3.703   1.153  17.213 -1.7876  0.0269 -0.2697
 5176TIP3    H239724   3.692   1.063  17.092  1.5509 -0.4266 -0.3417
 5177TIP3   OH239725   4.412   7.256  18.205 -0.5054  0.4898  0.3685
 5177TIP3    H139726   4.398   7.348  18.226  0.2169  0.3038  1.8274
 5177TIP3    H239727   4.408   7.211  18.290 -0.7761 -0.8217 -0.2992
 5178TIP3   OH239728   2.070   6.526  18.779  0.4349 -0.1556  0.4071
 5178TIP3    H139729   2.045   6.455  18.719  0.6476 -0.6849  0.9396
 5178TIP3    H239730   2.165   6.529  18.774  0.3478  1.5575 -1.2672
 5179TIP3   OH239731   2.012   0.137  18.041 -0.5886  0.6848 -0.4811
 5179TIP3    H139732   1.924   0.139  18.005 -0.5494  1.7038 -0.5385
 5179TIP3    H239733   2.003   0.174  18.129 -0.4595 -0.5724  0.0907
 5180TIP3   OH239734   4.093   4.389  15.899  0.2590  0.2018 -0.0753
 5180TIP3    H139735   4.148   4.319  15.864  0.2447 -0.3838  1.0308
 5180TIP3    H239736   4.055   4.352  15.979  0.4152  1.5420  0.6474
 5181TIP3   OH239737   3.964   6.558  17.347 -0.2865 -0.0541  0.0466
 5181TIP3    H139738   3.893   6.535  17.408  0.8347 -1.3328  0.9332
 5181TIP3    H239739   3.918   6.589  17.269 -1.8119 -0.1487  0.8505
 5182TIP3   OH239740   5.721   0.198  19.005  0.3288 -0.7146 -0.0727
 5182TIP3    H139741   5.635   0.162  18.985 -0.4108  0.2674  1.2453
 5182TIP3    H239742   5.735   0.177  19.098  0.6658  0.7918  0.2422
 5183TIP3   OH239743   6.834   6.639  17.009 -0.0728  0.0571 -0.3574
 5183TIP3    H139744   6.753   6.674  17.046 -0.7374 -1.9766  0.2433
 5183TIP3    H239745   6.805   6.579  16.941  1.0580  1.3010 -2.0117
 5184TIP3   OH239746   5.484   2.703  18.586  0.3928 -0.3366  0.1344
 5184TIP3    H139747   5.436   2.767  18.639  0.6676 -0.8177  0.9773
 5184TIP3    H239748   5.532   2.756  18.522 -0.4000  0.2130 -0.0235
 5185TIP3   OH239749   5.539   1.319  18.787  0.0770 -0.0928 -0.5478
 5185TIP3    H139750   5.469   1.282  18.841  1.0946  0.5794  1.3110
 5185TIP3    H239751   5.604   1.249  18.780  1.2043  0.6812  1.4993
 5186TIP3   OH239752   6.506   1.368  17.443  0.1820  0.1969 -0.2736
 5186TIP3    H139753   6.594   1.331  17.449  0.4293  0.9116  0.9087
 5186TIP3    H239754   6.449   1.293  17.425  1.1210 -0.1316 -2.1947
 5187TIP3   OH239755   1.645   2.786  18.852  0.4998  0.1156 -0.6986
 5187TIP3    H139756   1.571   2.828  18.809  0.0952  0.7194  0.5589
 5187TIP3    H239757   1.607   2.720  18.909  0.7096  1.7886  1.5224
 5188TIP3   OH239758   4.582   0.001  18.334 -0.3361 -0.3922  0.5579
 5188TIP3    H139759   4.662  -0.048  18.351  0.3281 -1.1320 -3.6136
 5188TIP3    H239760   4.521  -0.065  18.301 -0.8855  0.8809 -1.0972
 5189TIP3   OH239761   0.002   6.065  16.918  0.1208 -0.2311  0.3793
 5189TIP3    H139762  -0.087   6.039  16.893 -0.0519  1.4691 -0.9300
 5189TIP3    H239763  -0.010   6.114  16.999 -0.1098 -0.1745  0.3132
 5190TIP3   OH239764   0.405   2.197  18.174 -0.3565  0.0051  0.6986
 5190TIP3    H139765   0.333   2.167  18.118  0.8043 -2.4031  0.3649
 5190TIP3    H239766   0.437   2.118  18.217  1.7765  1.0533  1.1948
 5191TIP3   OH239767   2.545   1.225  17.254  0.3951  0.4029  0.3329
 5191TIP3    H139768   2.585   1.289  17.195  1.1678  0.4203  0.8647
 5191TIP3    H239769   2.451   1.231  17.237  0.6752 -0.4622 -1.7766
 5192TIP3   OH239770   0.322   4.875  18.074 -0.3328 -0.6769  0.0367
 5192TIP3    H139771   0.235   4.843  18.096 -1.3593  0.0955 -2.5051
 5192TIP3    H239772   0.306   4.958  18.029  1.9395  1.2121  2.3710
 5193TIP3   OH239773   4.582   2.022  17.260 -0.1820  0.2058 -0.7496
 5193TIP3    H139774   4.505   1.978  17.225 -0.0356  0.1210 -0.9686
 5193TIP3    H239775   4.594   1.983  17.347 -0.8331  0.7673 -0.4010
 5194TIP3   OH239776   7.151   7.367  18.152  0.5710 -0.7273  0.0461
 5194TIP3    H139777   7.112   7.453  18.140  1.7258 -0.0980  0.5261
 5194TIP3    H239778   7.087   7.318  18.203 -0.8648 -0.7718 -1.7268
 5195TIP3   OH239779   7.465   7.605  17.417 -0.3918  0.1874 -0.2182
 5195TIP3    H139780   7.389   7.662  17.433 -0.4391  0.8807 -2.5635
 5195TIP3    H239781   7.538   7.654  17.454 -0.6983  0.8445 -0.4638
 5196TIP3   OH239782   4.482   4.829  17.872 -0.5979  0.6953  0.1215
 5196TIP3    H139783   4.450   4.862  17.956 -2.7057  2.2276 -1.1960
 5196TIP3    H239784   4.450   4.740  17.867  1.1615 -0.0977  1.6952
 5197TIP3   OH239785   3.474   7.401  18.324  0.3098 -0.4127 -0.6820
 5197TIP3    H139786   3.542   7.368  18.384 -0.6157  0.6446  1.0275
 5197TIP3    H239787   3.395   7.352  18.349 -0.1723  0.2975 -0.7999
 5198TIP3   OH239788   3.661   0.810  18.438  0.3622  0.4550 -0.2814
 5198TIP3    H139789   3.671   0.834  18.346 -1.2219 -0.5647 -0.7665
 5198TIP3    H239790   3.569   0.829  18.457  0.1947 -1.0739  0.5351
 5199TIP3   OH239791   7.599   2.651  17.553 -0.0031  0.1903  0.4277
 5199TIP3    H139792   7.662   2.693  17.495  0.0503 -2.0459 -1.2733
 5199TIP3    H239793   7.633   2.665  17.641  2.6481 -0.5276 -0.3914
 5200TIP3   OH239794   4.560   1.921  18.946  0.3382 -0.3184  0.2542
 5200TIP3    H139795   4.589   1.985  18.881  4.7256  0.3012  2.4052
 5200TIP3    H239796   4.542   1.842  18.896 -0.3697  1.1644 -1.9924
 5201TIP3   OH239797   2.273   3.410  16.723  0.0542  0.2886 -0.0775
 5201TIP3    H139798   2.199   3.351  16.733 -0.0066  0.4634  0.5431
 5201TIP3    H239799   2.233   3.497  16.712  0.1620  0.3777  0.2214
 5202TIP3   OH239800   6.305   7.287  17.876  0.4125 -0.0449 -0.1233
 5202TIP3    H139801   6.328   7.263  17.966  1.4575 -1.6664 -0.7762
 5202TIP3    H239802   6.353   7.368  17.860  0.6982 -0.0647  0.5874
 5203TIP3   OH239803   6.090   4.461  17.205  0.5260  0.1945 -0.2449
 5203TIP3    H139804   6.042   4.529  17.251 -1.2087 -0.6391 -0.7509
 5203TIP3    H239805   6.057   4.464  17.115  0.8121 -0.9301 -0.4086
 5204TIP3   OH239806   4.189   7.149  16.995 -0.0531 -0.8262  0.2426
 5204TIP3    H139807   4.217   7.203  16.921 -2.9870 -0.2317 -0.5561
 5204TIP3    H239808   4.255   7.079  17.001  1.1194  0.0229 -1.8695
 5205TIP3   OH239809   3.864   2.671  18.776  0.0208 -0.2197  0.4070
 5205TIP3    H139810   3.879   2.577  18.787 -1.2843 -0.3541  1.3373
 5205TIP3    H239811   3.818   2.678  18.693  0.2192 -0.3921  0.2807
 5206TIP3   OH239812   0.706   5.830  17.816 -0.1909 -0.6343  0.0546
 5206TIP3    H139813   0.620   5.868  17.797  0.0540  0.4730  1.0933
 5206TIP3    H239814   0.763   5.905  17.833  0.8259 -1.3806  0.0749
 5207TIP3   OH239815   5.991   6.263  18.586  0.1351  0.3156  0.7437
 5207TIP3    H139816   5.925   6.193  18.585  0.5343 -0.0697  0.9458
 5207TIP3    H239817   5.943   6.341  18.614 -0.4810  0.2994 -0.2247
 5208TIP3   OH239818   6.587   3.143  18.252  0.2357  0.7326 -0.0128
 5208TIP3    H139819   6.615   3.207  18.186  2.2194 -0.0231  0.0301
 5208TIP3    H239820   6.542   3.076  18.202  0.0171  1.1243 -0.3445
 5209TIP3   OH239821   6.621   4.752  16.432  0.0605 -0.4819 -0.7751
 5209TIP3    H139822   6.690   4.695  16.467 -0.3132 -0.5643 -0.1516
 5209TIP3    H239823   6.540   4.719  16.471 -0.0628  1.0165  0.3604
 5210TIP3   OH239824   0.796   6.682  18.615 -0.1267 -0.1612  0.3109
 5210TIP3    H139825   0.738   6.606  18.618 -0.0646 -0.2336 -0.2029
 5210TIP3    H239826   0.819   6.698  18.706 -1.2243  0.0780  0.5651
 5211TIP3   OH239827   2.481   1.691  19.017 -0.2117  0.3269  0.0276
 5211TIP3    H139828   2.531   1.751  18.962  0.3432 -0.8548 -0.8005
 5211TIP3    H239829   2.489   1.727  19.105 -0.9775  2.1711 -0.5985
 5212TIP3   OH239830   4.893   2.117  16.851  1.0650 -0.1641 -0.4574
 5212TIP3    H139831   4.857   2.035  16.884  0.7026  1.0054  2.2834
 5212TIP3    H239832   4.987   2.111  16.868  0.7388  0.9020  2.0833
 5213TIP3   OH239833   1.849   3.871  17.917 -0.0226  0.0510 -0.1650
 5213TIP3    H139834   1.841   3.897  17.826 -2.3375  0.4223  0.0825
 5213TIP3    H239835   1.782   3.922  17.963 -0.0102 -1.2847  1.4537
 5214TIP3   OH239836   1.822   0.564  17.154 -0.0111  0.0702  0.1936
 5214TIP3    H139837   1.819   0.566  17.058  1.5841  0.2457  0.1181
 5214TIP3    H239838   1.785   0.479  17.177  1.0742 -0.6838 -0.6943
 5215TIP3   OH239839   2.797   7.559  18.268  0.3238  0.6872 -0.2802
 5215TIP3    H139840   2.824   7.600  18.350 -0.6537  2.2520 -0.6857
 5215TIP3    H239841   2.744   7.626  18.224 -0.8949 -0.8395 -1.2587
 5216TIP3   OH239842   6.625   5.959  18.835  0.2142 -0.1566 -0.2348
 5216TIP3    H139843   6.554   5.972  18.772 -1.2711 -0.0814  1.3609
 5216TIP3    H239844   6.600   5.879  18.883 -0.3721  1.4088  2.2716
 5217TIP3   OH239845   7.373   6.070  16.941 -0.4262  0.1724  0.2887
 5217TIP3    H139846   7.385   5.993  16.995  3.1298  0.1720 -0.2878
 5217TIP3    H239847   7.392   6.144  16.999  1.8461  0.2485 -0.4705
 5218TIP3   OH239848   7.249   7.469  16.929  0.1267 -0.1678 -0.1794
 5218TIP3    H139849   7.221   7.477  17.020  0.3413 -0.7793 -0.0565
 5218TIP3    H239850   7.220   7.550  16.888 -1.8074 -0.7639 -0.0645
 5219TIP3   OH239851   6.146   2.854  16.959 -0.1894 -0.1702  0.2585
 5219TIP3    H139852   6.052   2.852  16.975  0.1066 -0.7379  2.1429
 5219TIP3    H239853   6.160   2.786  16.894 -1.2096  0.7674 -0.9983
 5220TIP3   OH239854   3.341   6.953  16.245 -0.5476  0.9372 -0.0975
 5220TIP3    H139855   3.434   6.953  16.223 -0.8203  1.1976 -1.2890
 5220TIP3    H239856   3.339   6.978  16.338  0.4503  3.4288 -0.6563
 5221TIP3   OH239857   3.242   6.743  18.905  0.3133  0.4461  0.0168
 5221TIP3    H139858   3.308   6.706  18.846  0.2553 -1.2909  0.9678
 5221TIP3    H239859   3.277   6.829  18.930  0.6915  0.8900 -1.9034
 5222TIP3   OH239860   0.610   5.913  16.909 -0.3845  0.6481 -0.3177
 5222TIP3    H139861   0.653   5.842  16.863  0.0883  0.1219  0.8843
 5222TIP3    H239862   0.534   5.935  16.855 -1.0967 -1.4289 -0.2601
 5223TIP3   OH239863   0.033   0.716  17.281 -0.5048 -0.0891 -0.0710
 5223TIP3    H139864   0.057   0.769  17.357 -0.6875  0.1654 -0.1886
 5223TIP3    H239865  -0.046   0.670  17.308 -0.9701  0.5341 -0.3451
 5224TIP3   OH239866   6.713   5.241  18.747  0.0363  0.2773  0.0678
 5224TIP3    H139867   6.736   5.162  18.795 -1.7304 -1.2626 -1.5041
 5224TIP3    H239868   6.797   5.272  18.711  0.7606 -0.8516  0.7294
 5225TIP3   OH239869   0.030   1.113  16.999 -0.0909 -0.1793  0.0365
 5225TIP3    H139870   0.094   1.112  16.927 -1.2645  0.0877 -1.0455
 5225TIP3    H239871   0.082   1.134  17.076  1.7758 -3.3814 -0.1363
 5226TIP3   OH239872   7.204   1.498  17.981  0.5599 -0.1356 -0.9583
 5226TIP3    H139873   7.124   1.448  17.997  0.5936  0.4568  1.5481
 5226TIP3    H239874   7.178   1.590  17.994  1.7045  0.0321  0.3650
 5227TIP3   OH239875   0.969   0.595  18.152  0.6621 -0.1484  0.2519
 5227TIP3    H139876   0.943   0.686  18.137 -0.0418 -0.1000  1.6705
 5227TIP3    H239877   0.983   0.560  18.064  1.5323  1.4838 -0.3004
 5228TIP3   OH239878   1.807   0.231  18.324  0.2089 -0.1191  0.1064
 5228TIP3    H139879   1.739   0.206  18.262 -0.0146  0.3027  0.1698
 5228TIP3    H239880   1.810   0.327  18.318 -1.3418  0.1483  2.2782
 5229TIP3   OH239881   3.666   4.094  17.055 -0.2889  0.4511  0.1649
 5229TIP3    H139882   3.757   4.067  17.069  0.3067  2.1529 -0.0572
 5229TIP3    H239883   3.615   4.044  17.119  0.8429 -0.3122  0.4979
 5230TIP3   OH239884   4.186   3.197  18.742  0.2974 -0.1487  0.1468
 5230TIP3    H139885   4.222   3.166  18.660 -0.7628 -0.0882 -0.3559
 5230TIP3    H239886   4.129   3.270  18.718  1.1762  0.9114  1.0962
 5231TIP3   OH239887   4.131   4.235  17.267  0.5951 -0.3575 -0.1196
 5231TIP3    H139888   4.054   4.292  17.269  0.7349 -0.0925 -1.6891
 5231TIP3    H239889   4.177   4.259  17.187  1.1848 -1.9972 -0.3077
 5232TIP3   OH239890   6.135   5.560  17.168  0.0585 -0.2660  0.1304
 5232TIP3    H139891   6.050   5.516  17.179 -0.0080 -0.7282 -1.8938
 5232TIP3    H239892   6.112   5.650  17.147  0.1071 -0.1229  0.6795
 5233TIP3   OH239893   0.863   3.254  17.754  0.2748 -0.5254  0.4625
 5233TIP3    H139894   0.899   3.275  17.840 -0.1360 -1.2095  0.7976
 5233TIP3    H239895   0.939   3.225  17.703  0.3841 -0.8847  0.8303
 5234TIP3   OH239896   3.472   4.505  17.126 -0.0776  1.0423 -0.4586
 5234TIP3    H139897   3.402   4.557  17.086 -0.4057  1.7778  1.0199
 5234TIP3    H239898   3.503   4.449  17.055 -1.5716  1.3181 -1.3738
 5235TIP3   OH239899   4.969   4.594  17.463  0.5540 -0.5466  0.1452
 5235TIP3    H139900   5.021   4.622  17.388 -0.1175  0.1793 -0.0665
 5235TIP3    H239901   5.021   4.619  17.539  0.3832  0.5029 -0.0599
 5236TIP3   OH239902   6.582   6.092  16.919 -0.3367 -0.3356 -0.3617
 5236TIP3    H139903   6.623   6.014  16.881 -0.8443 -0.6632 -0.2407
 5236TIP3    H239904   6.641   6.164  16.896 -0.9038 -0.4280 -2.2264
 5237TIP3   OH239905   4.235   4.042  18.322  0.2995  0.2279  0.5458
 5237TIP3    H139906   4.156   3.994  18.345  0.3551 -0.2254 -0.1710
 5237TIP3    H239907   4.220   4.131  18.355 -0.9441  0.4219 -0.4600
 5238TIP3   OH239908   0.240   7.652  16.555 -0.1966  0.5214 -1.0029
 5238TIP3    H139909   0.307   7.709  16.593  0.5560 -1.5314  0.9511
 5238TIP3    H239910   0.158   7.700  16.567  0.3199  0.9610  1.2566
 5239TIP3   OH239911   6.049   6.422  17.739  0.7851  0.0635 -0.2730
 5239TIP3    H139912   6.032   6.512  17.712  0.2266 -0.2577 -1.0353
 5239TIP3    H239913   6.113   6.390  17.676  1.1168 -0.0194  0.1046
 5240TIP3   OH239914   2.909   5.492  18.408  0.4254 -0.5329  0.0702
 5240TIP3    H139915   2.864   5.446  18.479 -0.5487  0.6281  0.2380
 5240TIP3    H239916   2.855   5.477  18.331 -1.2378  2.1642  0.5876
 5241TIP3   OH239917   3.245   5.581  17.902  0.4540 -0.4625  0.3505
 5241TIP3    H139918   3.334   5.574  17.868  0.5105  1.5219 -0.0127
 5241TIP3    H239919   3.237   5.672  17.930 -1.9793 -0.1073 -1.1950
 5242TIP3   OH239920   6.078   1.524  17.170 -0.8843  0.1913 -0.1837
 5242TIP3    H139921   6.152   1.511  17.110 -0.4933 -1.8167  0.6439
 5242TIP3    H239922   6.118   1.537  17.256 -1.4735  0.5888  0.0358
 5243TIP3   OH239923   4.471   2.721  16.690 -0.1117 -0.1180 -0.5691
 5243TIP3    H139924   4.490   2.700  16.598 -0.0477 -1.4334 -0.2699
 5243TIP3    H239925   4.419   2.648  16.722 -0.6342  0.6070  0.2969
 5244TIP3   OH239926   6.357   3.917  17.742 -0.2491  0.0904  0.2099
 5244TIP3    H139927   6.269   3.953  17.733  0.4641  1.5450 -1.7068
 5244TIP3    H239928   6.360   3.845  17.679  0.2278  0.7402 -0.5326
 5245TIP3   OH239929   0.578   0.559  16.732  0.4229  0.2411 -0.5105
 5245TIP3    H139930   0.492   0.576  16.693  0.3966 -1.3830 -1.2380
 5245TIP3    H239931   0.565   0.572  16.825  0.2961  3.4681 -0.8766
 5246TIP3   OH239932   4.687   6.780  17.118  0.1848 -0.3698  0.2968
 5246TIP3    H139933   4.669   6.795  17.025 -0.5752  0.0594  0.5031
 5246TIP3    H239934   4.668   6.863  17.160 -1.5551 -1.1155  1.1065
 5247TIP3   OH239935   3.446   5.645  16.729  0.0487  0.1422  0.3213
 5247TIP3    H139936   3.355   5.645  16.758  0.2412 -0.5698  0.9763
 5247TIP3    H239937   3.459   5.731  16.690 -0.7535  0.4570  0.7214
 5248TIP3   OH239938   4.574   4.349  17.655 -0.0864  0.3331  0.1654
 5248TIP3    H139939   4.555   4.433  17.696 -1.3123  0.2642 -0.2114
 5248TIP3    H239940   4.574   4.286  17.727 -4.0661 -0.0926  0.0050
 5249TIP3   OH239941   5.811   2.292  17.047  0.1716  0.4129  0.2672
 5249TIP3    H139942   5.775   2.372  17.084  1.1572  0.5530  0.9784
 5249TIP3    H239943   5.906   2.305  17.052  0.3357 -0.2916 -0.7446
 5250TIP3   OH239944   5.979   3.082  17.579  0.3452  0.0730  0.1550
 5250TIP3    H139945   6.044   3.072  17.510 -0.2025 -1.4154 -0.1743
 5250TIP3    H239946   5.902   3.119  17.536  1.1138  2.4654  0.6662
 5251TIP3   OH239947   6.825   1.293  17.703  0.7754  0.4087  0.2569
 5251TIP3    H139948   6.812   1.258  17.614  1.4678 -0.9056  0.6533
 5251TIP3    H239949   6.738   1.288  17.743  0.4721  0.9493 -0.3153
 5252TIP3   OH239950   7.246   1.194  16.084 -0.3853 -0.2009  0.5457
 5252TIP3    H139951   7.188   1.119  16.100 -1.4322  0.9445  2.5647
 5252TIP3    H239952   7.195   1.253  16.028  0.0459 -0.5309 -0.2071
 5253TIP3   OH239953   3.890   0.400  17.574 -0.3252 -0.2425 -0.2586
 5253TIP3    H139954   3.876   0.391  17.480 -1.7340 -1.7166  0.0517
 5253TIP3    H239955   3.826   0.465  17.602 -0.7097 -0.6597 -0.1549
 5254TIP3   OH239956   4.877   3.630  16.936 -0.4504 -0.0753  0.3020
 5254TIP3    H139957   4.961   3.584  16.937 -0.3445  0.1029 -0.0789
 5254TIP3    H239958   4.878   3.684  17.015  0.4836  1.1363 -0.4938
 5255TIP3   OH239959   5.211   2.669  16.762  0.1722 -0.3899  0.6798
 5255TIP3    H139960   5.289   2.650  16.709  0.5467 -1.5526  1.5965
 5255TIP3    H239961   5.245   2.700  16.845 -0.2863 -1.6654  1.3784
 5256TIP3   OH239962   2.573   6.220  18.235  0.2917  0.1556  0.7860
 5256TIP3    H139963   2.519   6.277  18.290 -0.1618  1.0143 -0.5186
 5256TIP3    H239964   2.646   6.194  18.292 -1.6974 -1.4543  2.7722
 5257TIP3   OH239965   0.153   3.238  18.598 -0.6724 -0.2809  0.4079
 5257TIP3    H139966   0.190   3.215  18.513 -2.2979  1.2321 -0.7876
 5257TIP3    H239967   0.152   3.155  18.646 -0.6575 -1.4209 -1.4248
 5258TIP3   OH239968   0.912   3.746  17.127 -0.9776 -0.0520  0.4068
 5258TIP3    H139969   0.973   3.672  17.121 -0.3249  0.4467  0.7952
 5258TIP3    H239970   0.880   3.742  17.217 -1.3192 -0.1472  0.2826
 5259TIP3   OH239971   0.319   6.706  17.184  0.2651 -0.3143 -0.1659
 5259TIP3    H139972   0.389   6.641  17.186 -0.2850 -0.9174  0.3135
 5259TIP3    H239973   0.247   6.664  17.232 -0.1772  0.5665 -0.0426
 5260TIP3   OH239974   0.736   2.222  18.445 -0.0169 -0.3102  0.2565
 5260TIP3    H139975   0.800   2.290  18.425 -0.7664  0.4233  0.2959
 5260TIP3    H239976   0.707   2.190  18.360 -0.0870 -0.1709  0.2263
 5261TIP3   OH239977   4.731   5.815  18.025  0.3471  0.3848  0.7219
 5261TIP3    H139978   4.712   5.864  18.106  0.5472  0.7348  0.5614
 5261TIP3    H239979   4.706   5.875  17.955  0.5557  0.2363  0.5219
 5262TIP3   OH239980   1.125   2.267  17.608  0.3547  0.0937 -0.7631
 5262TIP3    H139981   1.183   2.341  17.623  0.2356 -0.0319  0.5090
 5262TIP3    H239982   1.145   2.207  17.681 -2.8048  0.9895  1.0246
 5263TIP3   OH239983   3.920   6.980  17.968  0.2562 -0.2171  0.1970
 5263TIP3    H139984   3.900   7.065  17.927  0.6767 -0.1113  0.2101
 5263TIP3    H239985   3.894   6.915  17.902  0.7039 -0.0557 -0.1444
 5264TIP3   OH239986   2.104   0.473  18.430  0.0494 -0.1833  0.1921
 5264TIP3    H139987   2.088   0.552  18.378  1.6532 -0.5170 -0.8881
 5264TIP3    H239988   2.074   0.401  18.375 -0.3003 -0.4215  0.6809
 5265TIP3   OH239989   4.409   7.362  18.876 -0.0436  0.0441  0.2121
 5265TIP3    H139990   4.371   7.440  18.915  0.9603  0.2195  0.8898
 5265TIP3    H239991   4.404   7.377  18.781  1.6162  1.7148  0.3245
 5266TIP3   OH239992   7.334   3.583  16.808 -0.6416  0.2113  0.0644
 5266TIP3    H139993   7.404   3.525  16.777 -1.0547 -0.5010  0.4451
 5266TIP3    H239994   7.302   3.541  16.888 -1.6117  0.4428 -0.1928
 5267TIP3   OH239995   4.579   0.109  17.436 -0.1307  0.7467  0.2053
 5267TIP3    H139996   4.621   0.154  17.363 -1.8041  1.8352 -0.1526
 5267TIP3    H239997   4.534   0.179  17.485  0.5738 -0.0077  2.0450
 5268TIP3   OH239998   1.132   2.530  16.988  0.4793 -0.3302  0.0319
 5268TIP3    H139999   1.104   2.592  17.056  0.0309 -1.0027  0.4733
 5268TIP3    H240000   1.187   2.467  17.034  0.3269 -0.6825 -0.2683
 5269TIP3   OH240001   4.755   6.158  16.299  0.0117  0.4888  0.1462
 5269TIP3    H140002   4.743   6.234  16.356  1.8692  1.3925 -0.5978
 5269TIP3    H240003   4.766   6.195  16.211  0.7920 -0.6294 -0.2498
 5270TIP3   OH240004   4.748   2.364  16.873 -0.9570 -0.0071  0.1016
 5270TIP3    H140005   4.775   2.273  16.886 -2.8726 -0.6294 -0.0300
 5270TIP3    H240006   4.754   2.377  16.778  4.7138  1.8695  0.3350
 5271TIP3   OH240007   6.526   2.262  17.354  0.7158  0.7435 -0.5357
 5271TIP3    H140008   6.468   2.337  17.345 -3.4541 -2.0373  0.3994
 5271TIP3    H240009   6.564   2.271  17.442 -2.3420  0.2837  0.9565
 5272TIP3   OH240010   0.923   1.917  17.519 -0.1961  0.2434 -0.8704
 5272TIP3    H140011   0.883   1.831  17.503 -2.5345  0.8785  1.0665
 5272TIP3    H240012   0.980   1.904  17.594  0.9638  0.0182 -1.7575
 5273TIP3   OH240013   3.343   5.231  18.019  0.0423  0.1537  0.2108
 5273TIP3    H140014   3.413   5.296  18.009  1.5733 -1.2773  1.1391
 5273TIP3    H240015   3.309   5.244  18.107 -0.7508  0.7118 -0.1656
 5274TIP3   OH240016   3.425   7.018  18.129 -0.0919 -0.1803 -0.0376
 5274TIP3    H140017   3.356   7.076  18.097  0.8008  0.7370 -0.3531
 5274TIP3    H240018   3.395   6.930  18.105 -1.6478  0.0852  0.7853
 5275TIP3   OH240019   6.482   7.179  16.367 -0.2957  0.3135  0.0984
 5275TIP3    H140020   6.412   7.182  16.302 -1.2803  0.0243  1.1208
 5275TIP3    H240021   6.457   7.107  16.426  1.4368 -0.5530 -0.1490
 5276TIP3   OH240022   6.370   2.278  18.223  0.0468  0.8521  0.1030
 5276TIP3    H140023   6.298   2.340  18.212  1.4240  2.8639  1.6534
 5276TIP3    H240024   6.343   2.222  18.296 -0.1193  1.4041  0.4750
 5277TIP3   OH240025   3.910   6.100  16.645  1.0485  0.3518  0.1483
 5277TIP3    H140026   3.941   6.139  16.727  1.4364  1.2086 -0.3883
 5277TIP3    H240027   3.981   6.116  16.583  0.7432 -0.2534 -0.3716
 5278TIP3   OH240028   5.253   1.250  16.807  0.4759  0.3378  0.6520
 5278TIP3    H140029   5.264   1.282  16.897  1.1462 -0.7224  0.9719
 5278TIP3    H240030   5.212   1.164  16.817 -2.1286  1.3617 -0.2249
 5279TIP3   OH240031   1.187   3.762  18.509  0.3021  0.0127 -0.0614
 5279TIP3    H140032   1.200   3.856  18.521  1.3898 -0.1972  0.4868
 5279TIP3    H240033   1.217   3.722  18.590  1.6159 -0.9327 -0.9538
 5280TIP3   OH240034   6.855   5.589  16.864 -0.1827 -0.1700 -0.0395
 5280TIP3    H140035   6.887   5.607  16.776 -0.6875  0.0260 -0.1843
 5280TIP3    H240036   6.760   5.598  16.858 -0.3704 -1.7422  0.1529
 5281TIP3   OH240037   6.383   4.615  16.503  0.8623  0.3654  0.5622
 5281TIP3    H140038   6.360   4.560  16.577 -2.5807  0.0528 -0.5287
 5281TIP3    H240039   6.379   4.557  16.427 -1.4975  1.6773 -0.4499
 5282TIP3   OH240040   4.989   2.266  18.719 -0.1440  0.5413 -0.4891
 5282TIP3    H140041   5.068   2.302  18.680  0.4824 -3.0354 -3.0551
 5282TIP3    H240042   4.917   2.306  18.669  0.1903  1.5339 -0.1951
 5283TIP3   OH240043   7.577   5.816  16.762 -0.3958 -0.0624 -0.0633
 5283TIP3    H140044   7.573   5.764  16.843  1.2936 -0.6629 -0.3272
 5283TIP3    H240045   7.595   5.752  16.694  0.9237  0.7480 -0.5132
 5284TIP3   OH240046   5.309   2.856  16.966 -1.0654 -0.0743 -0.0411
 5284TIP3    H140047   5.246   2.925  16.982 -2.0531 -1.0462  0.4234
 5284TIP3    H240048   5.383   2.878  17.023 -2.7144 -1.1059  2.7460
 5285TIP3   OH240049   3.703   3.779  17.401  0.0703 -0.8860 -0.2011
 5285TIP3    H140050   3.678   3.855  17.454  2.8973  0.0547 -0.0141
 5285TIP3    H240051   3.784   3.748  17.441  0.1097 -2.7153 -1.5730
 5286TIP3   OH240052   7.623   7.026  18.008 -0.3526  0.8521  0.0102
 5286TIP3    H140053   7.581   6.964  17.949 -0.9409  0.6539  0.6250
 5286TIP3    H240054   7.700   7.057  17.960  0.1737 -0.6512 -0.1644
 5287TIP3   OH240055   0.712   2.628  17.510 -0.1868  0.0362  0.2968
 5287TIP3    H140056   0.803   2.600  17.519 -0.5171 -1.3579 -0.3770
 5287TIP3    H240057   0.700   2.695  17.577  1.3476  0.2708  0.3524
 5288TIP3   OH240058   6.909   3.458  18.629 -0.5161  0.0781  0.1138
 5288TIP3    H140059   6.903   3.485  18.538  0.0101  2.0992  0.6319
 5288TIP3    H240060   7.003   3.449  18.647 -0.5944  0.1412  0.5847
 5289TIP3   OH240061   0.863   7.484  18.696 -0.3674 -0.3702  0.0759
 5289TIP3    H140062   0.945   7.529  18.716 -0.9011 -0.0135  1.5825
 5289TIP3    H240063   0.890   7.399  18.662  0.6245  0.1524 -0.4841
 5290TIP3   OH240064   2.390   0.103  15.910 -0.3432 -0.5764  0.2581
 5290TIP3    H140065   2.420   0.183  15.955  0.0593 -0.8536  0.4915
 5290TIP3    H240066   2.308   0.081  15.952  1.5286 -2.6598  3.1733
 5291TIP3   OH240067   2.854   2.792  16.982  0.2465  0.6634  0.0189
 5291TIP3    H140068   2.843   2.817  16.891 -1.5907 -1.0416 -0.2956
 5291TIP3    H240069   2.944   2.758  16.987 -0.0366 -0.3930 -1.4835
 5292TIP3   OH240070   4.998   2.619  17.432  0.1177 -0.0378 -0.3498
 5292TIP3    H140071   5.063   2.688  17.442  1.1551 -1.2665  2.4956
 5292TIP3    H240072   4.914   2.664  17.438  0.7437  1.1327  0.0084
 5293TIP3   OH240073   0.046   0.855  16.104  0.7680  0.1623 -0.6382
 5293TIP3    H140074   0.125   0.870  16.156 -1.0069 -2.8417  3.3821
 5293TIP3    H240075   0.063   0.773  16.058  0.2560 -0.1837 -0.2258
 5294TIP3   OH240076   3.346   4.985  15.697  0.1703  0.2152 -0.0461
 5294TIP3    H140077   3.438   4.984  15.671  0.2443 -2.0539  0.0354
 5294TIP3    H240078   3.337   4.908  15.753 -1.4403  1.3145  1.3081
 5295TIP3   OH240079   7.533   0.528  18.057  0.2228  0.0283 -0.1082
 5295TIP3    H140080   7.614   0.578  18.064  1.0525 -1.2254 -0.4880
 5295TIP3    H240081   7.521   0.514  17.963 -0.9671  1.0201 -0.1321
 5296TIP3   OH240082   3.010   3.267  17.483 -0.8046 -0.6815  0.8201
 5296TIP3    H140083   2.918   3.241  17.483 -0.6505 -1.4020 -1.1011
 5296TIP3    H240084   3.045   3.231  17.401  0.3627  2.4591 -0.1866
 5297TIP3   OH240085   1.060   7.285  17.554  0.3645  0.5082  0.4835
 5297TIP3    H140086   0.981   7.254  17.598  0.9403 -1.3605  0.3022
 5297TIP3    H240087   1.112   7.325  17.625 -0.5922  1.4750  0.6524
 5298TIP3   OH240088   4.426   2.310  15.835 -0.7896 -0.1277 -0.1899
 5298TIP3    H140089   4.369   2.235  15.853  0.2154 -0.3437  2.5405
 5298TIP3    H240090   4.496   2.274  15.781 -0.7499 -1.0117  0.4188
 5299TIP3   OH240091   7.431   6.955  16.852 -0.0229  0.9310  0.3254
 5299TIP3    H140092   7.509   6.964  16.798  1.2792  0.5675  2.0474
 5299TIP3    H240093   7.379   7.033  16.834  1.3194  1.7789  0.0185
 5300TIP3   OH240094   4.719   3.295  16.984  0.1404 -0.4671 -0.1917
 5300TIP3    H140095   4.776   3.300  17.061  2.7025 -1.2047 -1.9292
 5300TIP3    H240096   4.710   3.386  16.955 -0.5575 -0.2215  0.7465
 5301TIP3   OH240097   3.090   5.177  17.534 -0.6020  0.0757 -0.0451
 5301TIP3    H140098   3.020   5.205  17.475 -0.6562  1.2148  0.5238
 5301TIP3    H240099   3.111   5.255  17.585  0.5326 -0.4637  0.3545
 5302TIP3   OH240100   6.848   5.918  17.730  0.2531 -0.6932 -0.1105
 5302TIP3    H140101   6.923   5.891  17.676  0.4920 -1.8295  0.7452
 5302TIP3    H240102   6.782   5.851  17.713 -0.0652 -0.4586  0.2035
 5303TIP3   OH240103   0.349   2.705  15.852  0.2089 -0.2697 -0.1874
 5303TIP3    H140104   0.350   2.764  15.927 -1.1159  1.1543 -1.2140
 5303TIP3    H240105   0.290   2.634  15.878  0.0900 -0.0028  0.2843
 5304TIP3   OH240106   3.960   2.006  18.675  0.0117  0.0694  0.4296
 5304TIP3    H140107   3.975   1.995  18.581  1.6043  0.2072  0.6390
 5304TIP3    H240108   4.001   2.090  18.696 -2.2339  1.1258  0.8756
 5305TIP3   OH240109   6.746   4.208  16.761 -0.0826  0.1214 -0.0556
 5305TIP3    H140110   6.796   4.207  16.679  0.8281  0.8674  0.4720
 5305TIP3    H240111   6.812   4.199  16.829 -0.9003 -1.3156  0.6001
 5306TIP3   OH240112   4.893   4.800  16.568  0.4338 -0.4193 -0.9154
 5306TIP3    H140113   4.907   4.705  16.566 -2.2966 -0.9408  0.0154
 5306TIP3    H240114   4.898   4.823  16.661  0.7455  0.2978 -1.1025
 5307TIP3   OH240115   1.689   0.517  16.406 -0.3088  0.9371 -0.6565
 5307TIP3    H140116   1.597   0.542  16.395 -0.1282  1.1829 -1.6776
 5307TIP3    H240117   1.696   0.429  16.369  0.2014  1.5732 -2.1373
 5308TIP3   OH240118   1.619   4.386  17.450 -0.2175 -0.2209  0.0270
 5308TIP3    H140119   1.627   4.449  17.523 -2.5106 -1.4281  1.4307
 5308TIP3    H240120   1.561   4.430  17.388  1.8658  0.8767 -1.2694
 5309TIP3   OH240121   1.436   6.944  16.903  0.6883  0.1776 -0.0004
 5309TIP3    H140122   1.415   6.997  16.980  0.9763 -1.4456  1.2793
 5309TIP3    H240123   1.519   6.902  16.926 -0.6374 -2.6152  0.1244
 5310TIP3   OH240124   6.078   1.583  17.647 -0.2366 -0.2549  0.0040
 5310TIP3    H140125   6.074   1.488  17.647  0.7135 -0.3971  2.6308
 5310TIP3    H240126   6.031   1.609  17.727 -0.2568  1.4578 -0.5239
 5311TIP3   OH240127   1.274   3.221  16.630  0.6338  0.5380 -0.0593
 5311TIP3    H140128   1.360   3.196  16.597  0.3368 -2.3301  1.0776
 5311TIP3    H240129   1.275   3.317  16.630  3.7266  0.5973 -0.3074
 5312TIP3   OH240130   6.575   6.489  17.830  0.1518  0.1989 -0.3405
 5312TIP3    H140131   6.502   6.427  17.832  0.3673 -0.0669 -0.6189
 5312TIP3    H240132   6.590   6.506  17.737  0.2440  0.4873 -0.2729
 5313TIP3   OH240133   3.479   2.052  16.210  0.3811 -1.0685 -0.2171
 5313TIP3    H140134   3.498   1.963  16.239 -0.3845 -0.8576  1.0512
 5313TIP3    H240135   3.383   2.059  16.214  0.4674  0.0522  0.5467
 5314TIP3   OH240136   6.221   3.760  16.210 -0.2801 -0.2180 -0.0801
 5314TIP3    H140137   6.208   3.844  16.168 -0.9533 -0.0576  0.4353
 5314TIP3    H240138   6.296   3.722  16.165 -0.8873  0.0092 -1.3190
 5315TIP3   OH240139   2.951   0.197  16.505  0.2701 -0.0637 -0.2756
 5315TIP3    H140140   3.033   0.156  16.531 -0.0636 -1.9838 -1.9459
 5315TIP3    H240141   2.976   0.255  16.432  0.5693  1.9699  1.3546
 5316TIP3   OH240142   5.401   3.503  17.926  0.4853  0.0109  0.1492
 5316TIP3    H140143   5.358   3.482  18.008  0.8452  0.5609  0.4935
 5316TIP3    H240144   5.425   3.596  17.935  0.4161  0.1134 -0.6267
 5317TIP3   OH240145   2.174   0.397  18.681  0.1268  0.4312 -0.8088
 5317TIP3    H140146   2.235   0.466  18.708  0.4773  0.1253 -0.8004
 5317TIP3    H240147   2.166   0.408  18.587  0.6166  0.1388 -0.8856
 5318TIP3   OH240148   4.132   0.783  18.232 -0.1954  0.5717  0.2877
 5318TIP3    H140149   4.063   0.791  18.299 -0.5059  1.3557 -0.1127
 5318TIP3    H240150   4.212   0.774  18.283 -0.6749 -1.5565  0.7776
 5319TIP3   OH240151   0.351   3.548  17.932 -0.2877 -0.6759 -0.0771
 5319TIP3    H140152   0.420   3.612  17.951 -0.2213 -0.4347 -1.0925
 5319TIP3    H240153   0.319   3.522  18.018 -0.5718  0.9867  0.3539
 5320TIP3   OH240154   1.819   5.275  17.683  0.0739  0.1431  0.4341
 5320TIP3    H140155   1.750   5.211  17.701 -1.2845  1.5748  0.5105
 5320TIP3    H240156   1.772   5.354  17.658  1.7540  0.4679 -2.0144
 5321TIP3   OH240157   6.702   0.829  16.081 -0.3937  0.4232 -0.5109
 5321TIP3    H140158   6.637   0.769  16.043 -0.3870  0.7180 -1.0012
 5321TIP3    H240159   6.786   0.788  16.060 -0.4285 -0.4433  0.9414
 5322TIP3   OH240160   2.652   0.558  17.516  0.2477  0.3805 -0.1775
 5322TIP3    H140161   2.728   0.592  17.469  1.1528 -0.6462  0.4802
 5322TIP3    H240162   2.596   0.519  17.449 -0.7819  2.9444 -0.9550
 5323TIP3   OH240163   4.206   2.846  17.014 -0.7047  0.0685  0.1979
 5323TIP3    H140164   4.272   2.863  17.082  2.0503 -0.5504 -2.1347
 5323TIP3    H240165   4.167   2.762  17.040  0.8475 -0.5562  0.6531
 5324TIP3   OH240166   7.294   7.177  16.825  0.5356  0.5896  0.0243
 5324TIP3    H140167   7.233   7.178  16.751  0.4114 -1.3858  0.0402
 5324TIP3    H240168   7.291   7.266  16.860 -0.1137  1.3153 -1.7609
 5325TIP3   OH240169   6.297   2.324  16.297 -0.3938  0.0478 -0.2048
 5325TIP3    H140170   6.361   2.346  16.365 -0.7334  0.3019  0.0367
 5325TIP3    H240171   6.268   2.236  16.320 -1.3852  0.5797  0.6836
 5326TIP3   OH240172   4.173   1.890  17.582  0.5238 -0.0886  0.3612
 5326TIP3    H140173   4.084   1.901  17.616  0.1558 -0.0139 -0.5842
 5326TIP3    H240174   4.160   1.862  17.491  1.4344  2.9438 -0.8067
 5327TIP3   OH240175   7.413   6.698  17.363 -0.4058 -0.0999  0.4079
 5327TIP3    H140176   7.492   6.744  17.390 -0.4838  0.7234 -0.6455
 5327TIP3    H240177   7.357   6.768  17.328 -1.3680 -0.7435  0.6397
 5328TIP3   OH240178   3.862   5.422  15.971 -0.6721 -0.2723 -0.1201
 5328TIP3    H140179   3.914   5.429  16.052 -0.2652 -0.5053 -0.3598
 5328TIP3    H240180   3.873   5.331  15.944 -1.6089 -0.4534  0.0882
 5329TIP3   OH240181   0.556   5.634  17.979  0.0364 -0.1584  0.5062
 5329TIP3    H140182   0.621   5.639  17.909 -1.1579 -0.5835 -0.6814
 5329TIP3    H240183   0.557   5.720  18.019  0.5077  0.2055 -0.2613
 5330TIP3   OH240184   3.256   1.346  18.990  0.0738  0.3507  0.1253
 5330TIP3    H140185   3.218   1.425  18.951 -2.8862 -0.1066  1.7866
 5330TIP3    H240186   3.194   1.276  18.967  1.4471 -1.0700  0.5725
 5331TIP3   OH240187   3.275   3.508  18.884  1.2498 -0.1627  1.1968
 5331TIP3    H140188   3.315   3.467  18.960  0.0431  0.5988  2.2905
 5331TIP3    H240189   3.258   3.599  18.911 -0.0682 -0.1322  0.3771
 5332TIP3   OH240190   2.372   0.233  17.372 -0.1259  0.1232  0.3803
 5332TIP3    H140191   2.325   0.197  17.297 -0.9758  0.5586  0.6895
 5332TIP3    H240192   2.312   0.222  17.446  0.4311  0.3041  0.8711
 5333TIP3   OH240193   0.220   7.036  18.561  0.3375  0.2595  0.2851
 5333TIP3    H140194   0.221   7.111  18.502  0.5725  0.5083  0.6009
 5333TIP3    H240195   0.135   6.995  18.546  0.5112  0.1538 -0.4327
 5334TIP3   OH240196   3.487   3.352  17.972 -0.0048 -0.0643  0.0277
 5334TIP3    H140197   3.435   3.390  18.042 -1.0935  0.7653 -1.1884
 5334TIP3    H240198   3.440   3.272  17.948 -0.1919  0.1765 -0.4169
 5335TIP3   OH240199   4.669   6.025  17.205 -0.4487  0.0409  0.1355
 5335TIP3    H140200   4.687   6.118  17.193 -1.2758  0.1238 -0.4822
 5335TIP3    H240201   4.606   6.003  17.136  2.9840 -1.9795 -2.7431
 5336TIP3   OH240202   0.118   3.161  16.618  0.6141 -0.2650 -0.1520
 5336TIP3    H140203   0.176   3.100  16.572 -0.3432 -1.6030  0.3550
 5336TIP3    H240204   0.112   3.127  16.707  1.5735  1.6897  0.7306
 5337TIP3   OH240205   0.653   7.282  17.147  0.6663 -0.3623 -0.1641
 5337TIP3    H140206   0.603   7.318  17.220  1.4763  1.0288 -0.2438
 5337TIP3    H240207   0.693   7.202  17.181  1.1978  0.3711  0.9987
 5338TIP3   OH240208   7.410   5.163  16.306 -0.4056  0.3406 -0.2275
 5338TIP3    H140209   7.477   5.198  16.365 -0.0373  0.6012 -0.7954
 5338TIP3    H240210   7.454   5.094  16.257 -0.7049  0.1364 -0.2149
 5339TIP3   OH240211   6.716   3.567  16.529 -0.3867 -0.0672 -0.0925
 5339TIP3    H140212   6.647   3.501  16.519 -0.5856  0.1057  0.1248
 5339TIP3    H240213   6.679   3.630  16.590 -0.6003  0.7870 -1.0731
 5340TIP3   OH240214   4.286   7.124  17.975 -0.0387  0.1861  0.3979
 5340TIP3    H140215   4.203   7.159  17.944 -0.1543  0.2362  0.7600
 5340TIP3    H240216   4.313   7.183  18.045  0.9019  0.8676 -0.5028
 5341TIP3   OH240217   4.790   1.089  18.040 -0.2052 -0.0069 -0.6038
 5341TIP3    H140218   4.770   1.047  18.124  0.2705  1.8732  0.4974
 5341TIP3    H240219   4.708   1.133  18.016  0.3768  1.6052  0.2228
 5342TIP3   OH240220   7.372   2.386  17.364  1.1330 -0.1053  0.2970
 5342TIP3    H140221   7.458   2.407  17.328  0.3471  0.3536 -1.4236
 5342TIP3    H240222   7.311   2.401  17.292 -0.3912 -0.5438  1.4271
 5343TIP3   OH240223   0.077   5.307  16.217  0.4167  0.4091  0.7400
 5343TIP3    H140224   0.035   5.268  16.141 -0.4573 -0.4086  1.6256
 5343TIP3    H240225   0.157   5.347  16.182  1.8404 -2.8347 -0.1308
 5344TIP3   OH240226   0.987   3.164  16.574  0.5763  0.2946  0.2402
 5344TIP3    H140227   1.017   3.166  16.665 -0.1935 -0.5926  0.5199
 5344TIP3    H240228   1.065   3.143  16.524  0.3708 -2.6827  1.0183
 5345TIP3   OH240229   6.744   0.519  18.092 -0.1519  0.3874 -0.3205
 5345TIP3    H140230   6.822   0.550  18.137  1.2136 -0.4270 -2.0045
 5345TIP3    H240231   6.773   0.501  18.002 -2.2699  0.0300 -1.0012
 5346TIP3   OH240232   4.370   1.658  17.870  0.2552  0.0378  1.0750
 5346TIP3    H140233   4.437   1.618  17.814 -1.0109  1.7849 -1.9151
 5346TIP3    H240234   4.405   1.744  17.892 -0.6023  0.6095  0.2504
 5347TIP3   OH240235   2.095   2.165  19.016  0.0753  0.5335 -0.3763
 5347TIP3    H140236   2.019   2.217  18.990  0.0314  0.3450 -0.6352
 5347TIP3    H240237   2.058   2.080  19.041 -0.1551  1.4011  2.5981
 5348TIP3   OH240238   6.132   3.178  17.163  0.5771  0.7198 -0.1671
 5348TIP3    H140239   6.042   3.195  17.135 -0.3034 -0.6705  1.5935
 5348TIP3    H240240   6.182   3.175  17.082 -1.1933  0.3131 -1.3043
 5349TIP3   OH240241   6.288   6.228  18.548  0.1844 -0.5914 -0.4606
 5349TIP3    H140242   6.239   6.303  18.516  1.6276  0.6347  0.0586
 5349TIP3    H240243   6.229   6.185  18.610 -0.5388  0.3499 -0.4743
 5350TIP3   OH240244   6.854   1.760  16.996  0.2467 -0.5800 -0.3486
 5350TIP3    H140245   6.908   1.820  16.943 -1.5536  0.1173 -1.4869
 5350TIP3    H240246   6.863   1.676  16.952  0.5419 -0.5102 -0.4255
 5351TIP3   OH240247   4.738   1.621  17.330 -0.3441  0.3109  0.4615
 5351TIP3    H140248   4.658   1.609  17.382 -1.0992  0.5448 -0.5954
 5351TIP3    H240249   4.769   1.708  17.353 -1.7224  1.1996 -0.7786
 5352TIP3   OH240250   1.537   5.896  17.009 -0.0694  0.0431 -0.5815
 5352TIP3    H140251   1.515   5.805  16.986  0.0904 -0.1478  0.0039
 5352TIP3    H240252   1.628   5.891  17.039  0.5959  0.7137 -2.3698
 5353TIP3   OH240253   1.429   2.071  17.704  0.2302 -0.1378 -0.7818
 5353TIP3    H140254   1.505   2.079  17.761  0.6852  1.5998 -1.5582
 5353TIP3    H240255   1.358   2.112  17.754  0.5820  1.1963 -1.3239
 5354TIP3   OH240256   5.411   6.037  16.889  0.0151  0.0811 -0.2655
 5354TIP3    H140257   5.376   6.087  16.963 -1.3323 -0.0865 -0.7563
 5354TIP3    H240258   5.342   6.039  16.823  1.5027  0.9446 -1.8879
 5355TIP3   OH240259   2.017   3.383  17.412  0.2725 -0.7633  0.8701
 5355TIP3    H140260   1.965   3.464  17.416  1.9409  0.4075  0.2400
 5355TIP3    H240261   1.970   3.327  17.351  0.2063  0.6172 -0.3981
 5356TIP3   OH240262   5.669   5.773  16.682 -0.3607 -0.0023  0.3940
 5356TIP3    H140263   5.672   5.858  16.726 -1.2449  0.6023 -0.6534
 5356TIP3    H240264   5.662   5.710  16.753 -0.9628  0.8845  1.1580
 5357TIP3   OH240265   5.930   0.251  16.643  0.3077 -0.1378  0.2931
 5357TIP3    H140266   5.917   0.168  16.690 -0.2669 -0.8856 -1.1140
 5357TIP3    H240267   5.898   0.318  16.704  0.0793 -1.0170  1.1696
 5358TIP3   OH240268   5.865   6.688  16.692  0.7022  0.4452 -0.5987
 5358TIP3    H140269   5.934   6.746  16.723  1.4396 -1.1640  0.9352
 5358TIP3    H240270   5.910   6.612  16.656 -0.2100 -0.6072  0.3669
 5359TIP3   OH240271   1.377   2.838  17.119 -0.0446  0.1480  0.1145
 5359TIP3    H140272   1.408   2.786  17.193 -1.5626 -0.4066  0.4068
 5359TIP3    H240273   1.431   2.809  17.045  0.3896 -0.4821  0.6725
 5360TIP3   OH240274   6.569   6.316  18.605  0.1476 -0.5601 -0.0031
 5360TIP3    H140275   6.476   6.326  18.585  0.4239  0.8117 -0.7402
 5360TIP3    H240276   6.606   6.276  18.526  0.2535 -0.7433  0.1391
 5361TIP3   OH240277   5.064   3.452  17.750  0.2354 -0.5661  0.0710
 5361TIP3    H140278   5.059   3.497  17.834 -0.6072 -0.4881 -0.0105
 5361TIP3    H240279   4.999   3.496  17.695  0.6239 -0.7558 -0.5566
 5362TIP3   OH240280   1.050   3.189  15.855 -0.0874  0.2427 -0.3239
 5362TIP3    H140281   1.142   3.216  15.860  0.7579 -2.2389 -0.9105
 5362TIP3    H240282   1.022   3.216  15.768 -0.6172  2.8646  0.5972
 5363TIP3   OH240283   0.824   5.527  17.146  0.3278 -0.1247  0.1022
 5363TIP3    H140284   0.802   5.610  17.187  0.6396 -0.6714  1.4287
 5363TIP3    H240285   0.797   5.461  17.210  0.1480 -1.0398 -0.8984
 5364TIP3   OH240286   4.043   3.082  16.994 -0.1463 -0.2994  0.0579
 5364TIP3    H140287   3.963   3.039  16.963 -0.1348  0.7455 -1.5668
 5364TIP3    H240288   4.105   3.011  17.007 -1.2411 -1.1075  1.0999
 5365TIP3   OH240289   2.975   4.812  15.864  0.8106  0.6117 -0.0974
 5365TIP3    H140290   2.905   4.844  15.921  1.9259  1.6726  0.7369
 5365TIP3    H240291   2.998   4.887  15.810  3.2817  1.2879  1.6966
 5366TIP3   OH240292   5.968   1.093  18.450  0.5728  0.2662 -0.6362
 5366TIP3    H140293   6.026   1.023  18.480  0.1831  0.9210  1.9043
 5366TIP3    H240294   5.929   1.128  18.530 -2.9400  0.2342 -2.1577
 5367TIP3   OH240295   2.322   2.155  16.459 -0.3633  0.1052  0.1633
 5367TIP3    H140296   2.416   2.139  16.464 -0.5238 -0.4235  1.9976
 5367TIP3    H240297   2.313   2.250  16.463  0.0642  0.1322  0.4971
 5368TIP3   OH240298   2.531   1.985  18.173  0.0247 -0.3661  0.4012
 5368TIP3    H140299   2.502   2.075  18.162  1.3601  0.0767  0.2677
 5368TIP3    H240300   2.626   1.989  18.160  0.4090 -1.4328  2.4784
 5369TIP3   OH240301   1.630   4.021  18.009 -0.1498 -0.2376  0.1960
 5369TIP3    H140302   1.540   4.049  17.994 -0.8685 -1.4479  1.8905
 5369TIP3    H240303   1.632   3.999  18.102  1.6500 -1.1507 -0.0307
 5370TIP3   OH240304   7.243   5.523  18.741  0.5860 -0.2757 -0.2553
 5370TIP3    H140305   7.252   5.606  18.694  0.2454  0.1010  0.3282
 5370TIP3    H240306   7.226   5.549  18.832  0.5500 -0.9866 -0.0537
 5371TIP3   OH240307   7.486   7.118  18.770  0.2850 -0.2148  0.6332
 5371TIP3    H140308   7.417   7.052  18.770 -0.8095  0.8960 -0.0864
 5371TIP3    H240309   7.502   7.137  18.677 -0.2578  1.3694  0.8357
 5372TIP3   OH240310   0.334   7.452  18.016 -0.0779  0.7348 -0.4357
 5372TIP3    H140311   0.357   7.372  18.063 -0.0730 -0.4180 -2.3066
 5372TIP3    H240312   0.333   7.520  18.083  0.8584 -0.6512  1.0487
 5373TIP3   OH240313   0.246   1.439  18.125  1.4462  0.1561  0.0744
 5373TIP3    H140314   0.182   1.502  18.158 -0.3124 -0.6895 -1.5428
 5373TIP3    H240315   0.279   1.395  18.203 -0.2902  0.3205  0.9521
 5374TIP3   OH240316   1.194   1.374  16.929  0.1233  0.2612 -0.0865
 5374TIP3    H140317   1.264   1.308  16.932 -1.2864 -1.2794  0.6371
 5374TIP3    H240318   1.180   1.389  16.835  0.0518 -0.9854 -0.2972
 5375TIP3   OH240319   7.154   6.883  16.910  0.1607 -0.2267  0.2214
 5375TIP3    H140320   7.246   6.907  16.904  0.5598 -1.7223 -0.1095
 5375TIP3    H240321   7.155   6.789  16.928 -1.3021 -0.3584 -0.2456
 5376TIP3   OH240322   0.030   0.682  18.761 -0.4202  0.2902  0.2108
 5376TIP3    H140323  -0.043   0.661  18.819  0.0480 -0.3789  0.5697
 5376TIP3    H240324   0.084   0.603  18.760 -0.9698 -0.1255 -2.0026
 5377TIP3   OH240325   0.124   6.031  17.684  0.0256 -0.0691 -0.0596
 5377TIP3    H140326   0.215   6.056  17.669 -0.0780  0.6661  0.4450
 5377TIP3    H240327   0.120   5.938  17.660  0.8211 -0.0188 -0.4203
 5378TIP3   OH240328   3.406   0.782  18.139  0.1586  0.2698  0.3134
 5378TIP3    H140329   3.354   0.731  18.076 -0.1427 -0.4595  1.1323
 5378TIP3    H240330   3.374   0.871  18.130  1.6470  0.6459 -2.1614
 5379TIP3   OH240331   7.602   0.842  18.578 -0.2073 -0.2455 -0.1066
 5379TIP3    H140332   7.656   0.787  18.635 -1.5428  0.3414  1.8272
 5379TIP3    H240333   7.512   0.812  18.594 -0.6609  0.0660 -1.8178
 5380TIP3   OH240334   1.354   7.106  17.105 -0.3268 -0.0535 -0.0022
 5380TIP3    H140335   1.420   7.174  17.120  0.5700 -0.6626 -1.0641
 5380TIP3    H240336   1.364   7.046  17.179  1.2009 -0.8190 -0.7993
 5381TIP3   OH240337   2.132   3.871  17.476 -0.3290  0.6235 -0.2903
 5381TIP3    H140338   2.175   3.834  17.553 -0.5260 -1.2210 -1.0312
 5381TIP3    H240339   2.176   3.956  17.463  1.5965 -0.2285  0.2611
 5382TIP3   OH240340   1.700   1.853  17.967 -0.0855  0.4979  0.2863
 5382TIP3    H140341   1.785   1.830  17.929 -0.2115  0.8882 -0.2479
 5382TIP3    H240342   1.714   1.849  18.062  0.1867 -0.6722  0.2176
 5383TIP3   OH240343   1.254   3.271  17.982  0.2045  0.3934  0.2899
 5383TIP3    H140344   1.255   3.366  17.973 -2.5006  0.3754 -1.1279
 5383TIP3    H240345   1.161   3.248  17.988  0.7842 -2.1709  0.6712
 5384TIP3   OH240346   3.508   4.045  17.861 -0.4845 -0.2135 -0.7361
 5384TIP3    H140347   3.504   4.111  17.791 -0.8033 -1.3884 -1.8632
 5384TIP3    H240348   3.545   3.967  17.819 -0.5394 -0.9036  0.4522
 5385TIP3   OH240349   2.159   6.249  17.698  0.2064  0.1876  1.1726
 5385TIP3    H140350   2.093   6.226  17.764  0.1891 -2.0431  0.4546
 5385TIP3    H240351   2.116   6.232  17.614  1.4815 -0.8578  0.6830
 5386TIP3   OH240352   6.686   1.012  16.954 -0.5548 -0.5982 -0.2952
 5386TIP3    H140353   6.762   0.979  16.906  0.7551 -0.1987  1.4330
 5386TIP3    H240354   6.704   0.992  17.046 -2.3855 -0.1757  0.1989
 5387TIP3   OH240355   3.062   5.981  18.341 -0.3600  0.1887  0.3789
 5387TIP3    H140356   3.073   5.889  18.364 -0.0807  0.2750  0.5945
 5387TIP3    H240357   3.097   6.029  18.416  0.1110  0.4730 -0.0165
 5388TIP3   OH240358   1.300   2.477  17.599 -0.0018 -0.2427  1.1140
 5388TIP3    H140359   1.357   2.415  17.553 -1.2980 -2.1983  2.0415
 5388TIP3    H240360   1.327   2.471  17.691  0.5352  1.3815  1.0970
 5389TIP3   OH240361   0.920   2.745  16.510 -0.4143  0.2141  0.3372
 5389TIP3    H140362   0.971   2.758  16.590 -0.7493 -0.5786  0.6913
 5389TIP3    H240363   0.934   2.825  16.460  4.3868 -1.3422 -1.4040
 5390TIP3   OH240364   2.313   0.755  16.894  0.0004  0.0324 -0.2369
 5390TIP3    H140365   2.218   0.767  16.892  0.0339  0.2392 -1.6309
 5390TIP3    H240366   2.344   0.818  16.958 -0.8136 -0.1809  0.3902
 5391TIP3   OH240367   6.412   6.336  11.386 -0.3609 -0.3453 -0.1122
 5391TIP3    H140368   6.373   6.284  11.316 -1.0525 -0.3808  0.2863
 5391TIP3    H240369   6.454   6.410  11.342 -1.7590  0.2510 -0.5001
 5392TIP3   OH240370   5.243   0.477  12.317 -0.1812 -0.2373  0.4150
 5392TIP3    H140371   5.277   0.554  12.273  1.0470 -0.1643  1.4093
 5392TIP3    H240372   5.160   0.505  12.356  1.6072  1.6032  3.3451
 5393TIP3   OH240373   5.087   1.814  10.854 -0.2359 -0.5084  0.0156
 5393TIP3    H140374   5.009   1.868  10.840  1.0229  0.6229 -4.7379
 5393TIP3    H240375   5.056   1.724  10.847 -1.4182 -0.1810  0.8268
 5394TIP3   OH240376   4.025   6.738  10.099  0.1829  0.1710 -0.2974
 5394TIP3    H140377   3.946   6.775  10.062  0.3341  0.4179 -0.3718
 5394TIP3    H240378   4.028   6.648  10.066 -0.9924 -0.4211  1.0929
 5395TIP3   OH240379   6.885   1.433  11.325  0.5326  0.0777  0.0366
 5395TIP3    H140380   6.799   1.393  11.308  1.5439 -2.6309  0.7437
 5395TIP3    H240381   6.941   1.399  11.254  0.8993  2.4724 -0.9067
 5396TIP3   OH240382   6.001   4.631  11.962  0.3151 -0.2804 -0.1365
 5396TIP3    H140383   6.093   4.605  11.957  0.6356  0.7913  0.0142
 5396TIP3    H240384   5.973   4.606  12.050  0.2944 -1.1070 -0.3677
 5397TIP3   OH240385   3.120   7.424   9.847 -0.0186  0.5232  0.5281
 5397TIP3    H140386   3.087   7.493   9.905  0.1003  2.3972 -1.4779
 5397TIP3    H240387   3.054   7.355   9.851 -0.0527  0.6193  2.7418
 5398TIP3   OH240388   0.669   0.837  12.584  0.1026  0.1345 -0.5192
 5398TIP3    H140389   0.678   0.932  12.595 -0.6023 -0.0321  2.0463
 5398TIP3    H240390   0.759   0.806  12.570  0.4685  1.0776 -0.3507
 5399TIP3   OH240391   2.918   7.672   9.938 -0.6800 -0.0725 -0.0539
 5399TIP3    H140392   2.928   7.637  10.027  0.6117 -0.2997 -0.2638
 5399TIP3    H240393   2.844   7.625   9.902 -0.8504 -0.4060  0.7050
 5400TIP3   OH240394   3.586   5.349  10.062  0.6264 -0.4339  0.1960
 5400TIP3    H140395   3.652   5.398  10.012  0.2395 -0.5359 -0.4320
 5400TIP3    H240396   3.576   5.267  10.015 -1.1391  0.2311 -0.7053
 5401TIP3   OH240397   0.645   5.683  12.340  0.1426 -0.7133 -0.5736
 5401TIP3    H140398   0.731   5.643  12.329  0.5228 -0.6298  1.7005
 5401TIP3    H240399   0.656   5.747  12.409 -1.9908 -1.5688  0.6738
 5402TIP3   OH240400   5.217   5.343  11.373 -0.0426 -0.4381 -0.1109
 5402TIP3    H140401   5.298   5.387  11.348 -1.5634  2.3283 -0.5755
 5402TIP3    H240402   5.185   5.304  11.292  0.4472 -0.9190 -0.0778
 5403TIP3   OH240403   7.028   3.971  10.947 -0.0051  0.0523  0.0294
 5403TIP3    H140404   7.008   3.949  10.857 -1.7323  0.8579  0.1894
 5403TIP3    H240405   6.961   4.033  10.973 -0.9723 -1.8813  2.6075
 5404TIP3   OH240406   2.691   1.266  10.455 -0.5708 -0.6103  0.7686
 5404TIP3    H140407   2.751   1.271  10.530 -0.2341  2.1426  0.4334
 5404TIP3    H240408   2.748   1.262  10.379 -0.6850  1.7870  0.4625
 5405TIP3   OH240409   0.802   1.979  12.398 -0.5700  0.1204 -0.0325
 5405TIP3    H140410   0.722   1.961  12.448 -1.3943  0.3054 -1.2489
 5405TIP3    H240411   0.838   1.893  12.380 -0.4420  0.0374  0.5816
 5406TIP3   OH240412   2.260   1.736  12.066  0.0195 -0.0620 -0.2370
 5406TIP3    H140413   2.204   1.677  12.117  0.2342 -0.5716 -0.5800
 5406TIP3    H240414   2.226   1.823  12.086 -0.9708 -0.3636 -0.5055
 5407TIP3   OH240415   6.717   0.631  11.802 -0.2019 -0.4940  0.4796
 5407TIP3    H140416   6.762   0.569  11.859 -0.2845 -0.1685  0.8978
 5407TIP3    H240417   6.741   0.603  11.713  1.8724  0.4356  0.7036
 5408TIP3   OH240418   7.129   1.923  12.493 -0.0840 -0.0465  0.5827
 5408TIP3    H140419   7.133   1.843  12.442  0.1548  0.8005 -0.7772
 5408TIP3    H240420   7.062   1.976  12.450  0.5326  0.9250  0.7813
 5409TIP3   OH240421   6.944   3.949  10.221  0.2663 -0.0450  0.3706
 5409TIP3    H140422   6.998   3.870  10.224  1.6168  0.8424  0.6091
 5409TIP3    H240423   6.958   3.983  10.132  1.9797  1.4046  1.1388
 5410TIP3   OH240424   0.290   3.611  12.312 -0.3617 -0.1320  0.8516
 5410TIP3    H140425   0.375   3.594  12.352 -0.2921 -0.5235  0.5405
 5410TIP3    H240426   0.231   3.625  12.387  0.4511  2.6192  1.0592
 5411TIP3   OH240427   3.951   1.966  10.109 -0.1466  0.4599  0.3044
 5411TIP3    H140428   3.891   1.899  10.077  0.5353  0.1966 -0.4778
 5411TIP3    H240429   3.902   2.048  10.100 -0.0970  0.3612 -1.1926
 5412TIP3   OH240430   0.783   2.943  10.804 -0.3846  0.2607  0.4609
 5412TIP3    H140431   0.787   2.925  10.898  0.9281 -1.5446  0.1001
 5412TIP3    H240432   0.709   3.003  10.795 -0.0219  1.1444  2.7284
 5413TIP3   OH240433   1.885   3.143  10.695 -1.1170 -0.0516  0.0745
 5413TIP3    H140434   1.791   3.161  10.698 -0.8956  2.0992 -2.0360
 5413TIP3    H240435   1.892   3.052  10.666 -2.6162  0.4161 -1.9596
 5414TIP3   OH240436   1.234   6.191  10.449  0.2829  0.5277 -0.1556
 5414TIP3    H140437   1.232   6.209  10.355  0.3444  0.6799 -0.1278
 5414TIP3    H240438   1.327   6.188  10.470  0.2720  0.2681 -0.1433
 5415TIP3   OH240439   0.244   0.808   9.955 -0.2381  0.5379 -0.3121
 5415TIP3    H140440   0.197   0.842   9.878 -1.4563 -0.5770 -0.0935
 5415TIP3    H240441   0.324   0.861   9.959 -1.2137  2.1551 -1.0183
 5416TIP3   OH240442   6.474   0.633  12.627 -0.1962 -0.7167 -0.4815
 5416TIP3    H140443   6.476   0.724  12.597 -0.9479 -1.2752 -2.3464
 5416TIP3    H240444   6.424   0.636  12.709  1.6962  0.8271  0.6926
 5417TIP3   OH240445   4.818   4.657  12.368  0.2955  0.0757  0.1204
 5417TIP3    H140446   4.745   4.694  12.319 -0.2747 -1.7106 -0.4585
 5417TIP3    H240447   4.883   4.727  12.370  0.5845  0.1473 -3.7134
 5418TIP3   OH240448   2.926   1.571  11.264  0.0343 -0.1480  0.4241
 5418TIP3    H140449   2.991   1.527  11.209 -0.2863  0.1092 -0.1660
 5418TIP3    H240450   2.899   1.504  11.326  0.9503 -0.2283  0.7595
 5419TIP3   OH240451   5.296   3.505  11.000 -0.0101 -0.5347 -0.0358
 5419TIP3    H140452   5.301   3.522  10.906  0.4088 -0.0829  0.0643
 5419TIP3    H240453   5.268   3.413  11.006  1.6157 -1.1119 -0.6171
 5420TIP3   OH240454   5.903   2.649  10.088  0.6432  0.0822  0.1290
 5420TIP3    H140455   5.851   2.712  10.138  1.3663 -0.5359  1.7449
 5420TIP3    H240456   5.978   2.699  10.055 -0.0483  0.5863 -0.7271
 5421TIP3   OH240457   7.417   6.510  10.438 -0.4140 -0.0010 -0.1364
 5421TIP3    H140458   7.379   6.506  10.350  0.7516  0.8041 -0.7012
 5421TIP3    H240459   7.390   6.595  10.473  0.7808  0.5663 -0.5318
 5422TIP3   OH240460   0.278   4.797  10.106 -0.2317  0.6730  0.3608
 5422TIP3    H140461   0.328   4.871  10.141  0.7609  0.7601 -1.1253
 5422TIP3    H240462   0.321   4.777  10.023 -1.8459 -0.1573 -0.3209
 5423TIP3   OH240463   6.862   5.762  10.079 -0.4697  0.2326  0.1654
 5423TIP3    H140464   6.898   5.758   9.990 -1.1567 -0.4237 -0.0899
 5423TIP3    H240465   6.848   5.671  10.104 -1.0347  0.4411  0.6378
 5424TIP3   OH240466   6.684   7.224  11.715 -0.1098  0.4146 -0.2350
 5424TIP3    H140467   6.623   7.225  11.790  1.0248 -0.4287  0.7413
 5424TIP3    H240468   6.628   7.228  11.638 -1.3926 -0.0339  0.6444
 5425TIP3   OH240469   6.572   6.378  10.662 -0.1457 -0.4363 -0.4477
 5425TIP3    H140470   6.587   6.287  10.688  1.4613  0.0549  0.4851
 5425TIP3    H240471   6.541   6.421  10.741  0.0654  0.0386 -0.6171
 5426TIP3   OH240472   7.179   3.719  12.349 -0.0654 -0.1163  0.4340
 5426TIP3    H140473   7.156   3.649  12.288 -2.7093  0.8429  0.2179
 5426TIP3    H240474   7.111   3.716  12.417  1.4782  0.3500  2.0867
 5427TIP3   OH240475   6.619   2.979  10.210  0.0010 -0.1465  0.4988
 5427TIP3    H140476   6.658   3.019  10.287  2.1968 -2.0722  0.5142
 5427TIP3    H240477   6.650   3.033  10.137  0.2266  0.0654  0.7479
 5428TIP3   OH240478   1.879   6.077  10.582 -0.3605 -0.1797 -1.1131
 5428TIP3    H140479   1.931   6.002  10.611  0.0018  0.1093 -1.0154
 5428TIP3    H240480   1.904   6.148  10.640 -0.8481 -0.0315 -1.0838
 5429TIP3   OH240481   2.754   6.214  12.483  0.5448  0.1145  0.6068
 5429TIP3    H140482   2.699   6.258  12.418 -0.4112  0.6735  1.7358
 5429TIP3    H240483   2.691   6.178  12.546  1.4211 -0.9159  0.9011
 5430TIP3   OH240484   6.637   4.504  10.710 -0.5102  0.0529 -0.3940
 5430TIP3    H140485   6.677   4.508  10.623 -0.0838  0.9996 -0.1762
 5430TIP3    H240486   6.711   4.498  10.770 -0.8264 -1.2971 -0.1119
 5431TIP3   OH240487   4.233   2.220  11.448 -0.4387 -0.2925 -0.2395
 5431TIP3    H140488   4.262   2.232  11.358 -1.2502 -2.2437 -0.7979
 5431TIP3    H240489   4.286   2.147  11.481 -1.8604 -1.2228  0.0428
 5432TIP3   OH240490   2.817   4.920  10.306  0.1784  0.1295  0.6138
 5432TIP3    H140491   2.735   4.966  10.290  0.1906 -0.2331 -0.5781
 5432TIP3    H240492   2.865   4.926  10.223  2.4280  2.3800  1.9369
 5433TIP3   OH240493   2.187   7.559  11.742  0.8593  0.3659  0.1894
 5433TIP3    H140494   2.131   7.604  11.805  2.1051  0.3970  1.3098
 5433TIP3    H240495   2.205   7.625  11.675  1.9218  1.3066  1.3481
 5434TIP3   OH240496   3.389   2.706  10.276 -0.0969 -0.1841  0.3418
 5434TIP3    H140497   3.312   2.650  10.268 -0.2059  0.0786 -0.5732
 5434TIP3    H240498   3.389   2.735  10.367 -1.3167  0.1309  0.2583
 5435TIP3   OH240499   5.052   3.917  10.100 -0.4005 -0.6219 -0.1139
 5435TIP3    H140500   4.991   3.893  10.170  1.2795 -0.9353  1.3102
 5435TIP3    H240501   5.067   3.836  10.052 -1.6636 -0.3771 -0.9809
 5436TIP3   OH240502   3.136   0.751  10.842 -0.1178 -0.1123  0.9474
 5436TIP3    H140503   3.115   0.842  10.821 -0.2512 -0.7497 -2.3344
 5436TIP3    H240504   3.051   0.707  10.844  0.0716 -0.6263 -0.5653
 5437TIP3   OH240505   2.939   3.272  11.520  0.5077 -0.1232  0.1591
 5437TIP3    H140506   2.855   3.229  11.536  0.3564  0.3188  0.5822
 5437TIP3    H240507   2.916   3.363  11.499  0.8868  0.0345  0.4118
 5438TIP3   OH240508   4.622   2.579  10.926  0.0171  0.5091  0.1600
 5438TIP3    H140509   4.551   2.593  10.864  0.4974  0.9884 -0.2851
 5438TIP3    H240510   4.698   2.559  10.873  0.2150 -0.0518  0.6380
 5439TIP3   OH240511   0.792   1.359  11.169  0.3631 -0.0036 -0.2534
 5439TIP3    H140512   0.837   1.305  11.234  0.1944 -0.7394 -0.7350
 5439TIP3    H240513   0.713   1.310  11.147  0.0381  0.6022 -0.4616
 5440TIP3   OH240514   5.353   4.957  12.555 -0.2516  0.1067 -0.6176
 5440TIP3    H140515   5.438   4.998  12.538  1.2028 -2.7990 -1.0604
 5440TIP3    H240516   5.319   4.937  12.468 -0.1345 -1.0387 -0.4099
 5441TIP3   OH240517   5.846   0.823  10.185 -0.4304  0.6259  0.2401
 5441TIP3    H140518   5.799   0.860  10.110  1.1746  0.3011 -0.9666
 5441TIP3    H240519   5.803   0.739  10.201 -1.0351  0.8741 -0.0478
 5442TIP3   OH240520   1.594   0.966  10.647  0.2669  0.2751 -0.2121
 5442TIP3    H140521   1.636   0.949  10.563 -1.0501 -0.5839 -0.7188
 5442TIP3    H240522   1.501   0.978  10.626 -0.5044 -2.1711  1.3178
 5443TIP3   OH240523   3.787   5.938  10.819 -0.0989  0.1589 -0.2897
 5443TIP3    H140524   3.750   6.010  10.766  0.9288  1.7092  1.0193
 5443TIP3    H240525   3.855   5.979  10.871  1.3656 -2.0418 -0.3585
 5444TIP3   OH240526   5.899   6.210  11.423 -0.0120 -0.0372  0.0417
 5444TIP3    H140527   5.820   6.206  11.476  1.6590  0.8371  2.8631
 5444TIP3    H240528   5.968   6.237  11.485  2.5623 -1.0639 -2.1526
 5445TIP3   OH240529   2.386   5.007  10.635 -0.5247 -0.4004 -0.1836
 5445TIP3    H140530   2.344   5.013  10.721  0.7888  0.0360  0.4501
 5445TIP3    H240531   2.376   4.915  10.610  0.8958 -1.0369  1.4158
 5446TIP3   OH240532   1.016   6.468   9.843 -0.6568 -0.3644 -0.1316
 5446TIP3    H140533   1.100   6.452   9.800  0.1009 -1.7145  1.7015
 5446TIP3    H240534   1.039   6.509   9.926 -1.7556 -1.1092  0.5653
 5447TIP3   OH240535   6.193   6.600  10.287 -0.1472  0.7750  0.3671
 5447TIP3    H140536   6.234   6.640  10.210  0.0714  0.6852  0.4363
 5447TIP3    H240537   6.264   6.550  10.328 -0.5997 -0.3428 -0.1698
 5448TIP3   OH240538   5.960   0.445  12.607 -0.4511 -0.1740  0.1244
 5448TIP3    H140539   5.946   0.473  12.697 -1.8021  1.2192 -0.4647
 5448TIP3    H240540   5.896   0.495  12.556  0.0220 -1.1928 -1.5692
 5449TIP3   OH240541   6.671   5.931  11.231  0.0957  0.6396 -0.7258
 5449TIP3    H140542   6.748   5.985  11.209 -0.0176  0.8719 -0.5526
 5449TIP3    H240543   6.616   5.936  11.152  0.8017 -0.5058 -1.3181
 5450TIP3   OH240544   1.736   1.108  10.860 -0.2088  0.4720  0.3086
 5450TIP3    H140545   1.696   1.060  10.788  0.2787  0.4643  0.0438
 5450TIP3    H240546   1.662   1.148  10.906 -0.5327  0.3396 -0.0967
 5451TIP3   OH240547   5.503   6.340  11.031 -0.6133 -0.2159 -0.1573
 5451TIP3    H140548   5.499   6.251  11.065 -1.7592 -0.7305 -1.5305
 5451TIP3    H240549   5.414   6.375  11.043  0.1260  1.2407  1.5442
 5452TIP3   OH240550   4.793   3.944  10.213 -0.3060  0.6595 -0.1456
 5452TIP3    H140551   4.719   3.903  10.168 -1.8532  0.2116  2.5769
 5452TIP3    H240552   4.766   4.034  10.227 -0.1796  0.5960  0.5349
 5453TIP3   OH240553   2.609   4.373  10.017 -0.0229  0.2187  0.2379
 5453TIP3    H140554   2.678   4.309  10.031  0.1361  0.6650  1.6151
 5453TIP3    H240555   2.530   4.320  10.003  0.2075 -0.2922  0.8232
 5454TIP3   OH240556   1.806   2.805  11.908  0.2735 -0.1747 -0.1693
 5454TIP3    H140557   1.846   2.755  11.836  0.3889 -0.8597  0.3644
 5454TIP3    H240558   1.879   2.853  11.947  0.6256 -1.4749  0.8463
 5455TIP3   OH240559   3.757   2.452  11.653 -0.2652  0.0654 -0.0426
 5455TIP3    H140560   3.704   2.403  11.715  1.0161 -1.2020  0.0898
 5455TIP3    H240561   3.776   2.391  11.583  1.3171  0.3429  0.0946
 5456TIP3   OH240562   6.762   0.021  11.983 -0.2621  0.0527 -0.2421
 5456TIP3    H140563   6.791  -0.043  11.918  0.4747  1.5825 -1.4737
 5456TIP3    H240564   6.775  -0.023  12.067  4.0925 -0.0628 -0.7489
 5457TIP3   OH240565   2.782   5.859  10.354 -0.2636  0.5678 -0.5077
 5457TIP3    H140566   2.810   5.776  10.392 -3.2033 -0.2146  0.2109
 5457TIP3    H240567   2.794   5.923  10.424 -0.6945  0.1707 -0.0671
 5458TIP3   OH240568   3.957   2.513  10.835 -0.4454  0.3122 -0.3385
 5458TIP3    H140569   3.891   2.450  10.865  1.6193 -2.6040 -1.3920
 5458TIP3    H240570   3.937   2.526  10.742 -0.1708  0.2665 -0.4048
 5459TIP3   OH240571   6.285   3.257  11.172 -0.4302  0.0229  0.5626
 5459TIP3    H140572   6.221   3.190  11.150 -1.4332  0.5761  1.6802
 5459TIP3    H240573   6.241   3.340  11.150  0.4667  0.3652 -0.0067
 5460TIP3   OH240574   6.309   2.041  10.996 -0.0070 -0.3014 -0.1417
 5460TIP3    H140575   6.329   1.958  10.953  1.8576 -0.3003  0.6104
 5460TIP3    H240576   6.378   2.051  11.062 -0.3691  1.6927 -0.0030
 5461TIP3   OH240577   0.823   7.345  10.202 -0.5685  0.4453  0.4581
 5461TIP3    H140578   0.819   7.344  10.107  0.2147 -0.4555  0.4136
 5461TIP3    H240579   0.734   7.325  10.231 -0.1714 -2.7208 -0.1459
 5462TIP3   OH240580   0.026   4.763  10.773 -0.1801  0.1812  0.1636
 5462TIP3    H140581   0.027   4.695  10.840 -1.6894  1.6030  1.7327
 5462TIP3    H240582  -0.064   4.796  10.774 -0.2652  0.2240 -2.6472
 5463TIP3   OH240583   3.738   0.356  12.487 -0.1365 -0.0137 -0.1794
 5463TIP3    H140584   3.716   0.262  12.484  1.7162 -0.5110  0.1617
 5463TIP3    H240585   3.709   0.391  12.403 -1.4341 -0.7481 -0.0578
 5464TIP3   OH240586   6.156   4.295  10.748  0.4572  0.3615 -0.1090
 5464TIP3    H140587   6.136   4.210  10.787 -0.9071  0.3144 -0.8510
 5464TIP3    H240588   6.238   4.322  10.789  1.0849 -1.4490 -0.0934
 5465TIP3   OH240589   7.509   5.455  10.297 -0.6057 -0.2261  0.1553
 5465TIP3    H140590   7.435   5.515  10.302  1.4630  2.5722 -0.0830
 5465TIP3    H240591   7.544   5.454  10.386 -0.7541 -1.3330  0.2118
 5466TIP3   OH240592   4.118   0.299  10.884  0.5186 -0.3253  0.0780
 5466TIP3    H140593   4.129   0.289  10.978  1.4811  0.9780  0.1242
 5466TIP3    H240594   4.074   0.218  10.856 -2.9946  0.6860  2.1281
 5467TIP3   OH240595   2.842   1.383  10.668 -0.0212  0.0411  0.0902
 5467TIP3    H140596   2.869   1.345  10.751  0.8714 -1.6056 -0.8857
 5467TIP3    H240597   2.787   1.457  10.692  1.1354  0.3243  2.1438
 5468TIP3   OH240598   6.740   3.667  10.627  0.2151 -0.1742 -0.6021
 5468TIP3    H140599   6.737   3.712  10.543  0.5195 -1.3248 -1.2630
 5468TIP3    H240600   6.792   3.588  10.610 -0.4600 -0.8790  0.4434
 5469TIP3   OH240601   5.932   2.241  10.176 -0.0783 -0.5013 -0.0230
 5469TIP3    H140602   5.839   2.261  10.174 -0.1109 -0.3445  1.5978
 5469TIP3    H240603   5.959   2.240  10.084 -1.6242 -0.3452 -0.4976
 5470TIP3   OH240604   2.595   1.469  11.051 -0.1907 -0.5881  0.2078
 5470TIP3    H140605   2.652   1.545  11.035  0.3934 -1.0815 -0.1063
 5470TIP3    H240606   2.521   1.505  11.099  1.0049 -0.1415  1.8269
 5471TIP3   OH240607   7.385   0.675  11.747 -0.5356  0.1166 -0.0645
 5471TIP3    H140608   7.321   0.648  11.813 -1.8312 -0.3297 -1.4422
 5471TIP3    H240609   7.395   0.769  11.760 -1.3145  0.1513  0.3165
 5472TIP3   OH240610   4.469   0.809  10.491  0.4815  0.1631  0.0502
 5472TIP3    H140611   4.454   0.903  10.499 -1.5616 -0.3010  3.6002
 5472TIP3    H240612   4.564   0.799  10.491  0.7493  2.1577  1.7254
 5473TIP3   OH240613   1.616   5.240  11.089  0.0411  0.3735  0.2354
 5473TIP3    H140614   1.686   5.306  11.095 -0.1951  0.6411  0.0996
 5473TIP3    H240615   1.538   5.291  11.064  0.5007 -0.3186 -3.1594
 5474TIP3   OH240616   4.686   2.902  12.022  0.2248 -0.4307 -0.6584
 5474TIP3    H140617   4.746   2.832  12.050  1.0733  0.6287  0.2717
 5474TIP3    H240618   4.601   2.877  12.058  0.4636 -1.1140 -0.5624
 5475TIP3   OH240619   0.168   6.992   9.751  0.0247 -0.0803  0.4959
 5475TIP3    H140620   0.247   6.939   9.762 -0.1867 -0.1968  1.5848
 5475TIP3    H240621   0.098   6.939   9.789 -0.4799  0.2659  0.0645
 5476TIP3   OH240622   2.303   5.519  10.676  0.0723  0.3793 -0.0049
 5476TIP3    H140623   2.318   5.573  10.754 -0.1692  1.1765 -0.4930
 5476TIP3    H240624   2.292   5.430  10.710 -1.9185  0.9644  1.0843
 5477TIP3   OH240625   2.449   1.987  10.031  0.0648  0.3878  0.0933
 5477TIP3    H140626   2.515   1.929   9.993  1.1855  1.1560  0.7944
 5477TIP3    H240627   2.369   1.966   9.984  0.8905 -0.3003 -1.0693
 5478TIP3   OH240628   1.653   7.087  10.622  0.0197 -0.1411  0.6836
 5478TIP3    H140629   1.654   7.087  10.527  0.9313  1.2036  0.6647
 5478TIP3    H240630   1.739   7.055  10.648  0.7602  1.9183  0.9794
 5479TIP3   OH240631   5.098   5.606  11.006 -0.5931  0.4554 -0.0002
 5479TIP3    H140632   5.140   5.617  11.091 -1.3788  0.7164  0.3604
 5479TIP3    H240633   5.169   5.620  10.943 -0.3126  1.8312  0.5713
 5480TIP3   OH240634   0.919   2.847  11.445 -0.4086  0.1665  0.1094
 5480TIP3    H140635   1.001   2.814  11.482 -0.3797 -1.0213 -0.9543
 5480TIP3    H240636   0.878   2.770  11.406 -1.6030  0.9246 -0.1729
 5481TIP3   OH240637   1.868   0.643  10.369 -0.0654 -0.2161  0.1701
 5481TIP3    H140638   1.935   0.603  10.424  1.1829  1.5349 -0.0010
 5481TIP3    H240639   1.786   0.629  10.418 -0.1947 -4.8220 -0.9087
 5482TIP3   OH240640   1.243   1.220   9.939  0.0038  0.0250  1.2302
 5482TIP3    H140641   1.323   1.272   9.943 -0.2585  0.5244  0.3015
 5482TIP3    H240642   1.263   1.150   9.876 -0.5367  0.5970  0.4198
 5483TIP3   OH240643   2.610   5.233  10.818  0.0128  0.1386  0.3419
 5483TIP3    H140644   2.673   5.305  10.825 -0.1401  0.1460  2.1463
 5483TIP3    H240645   2.603   5.216  10.724  2.1799  0.5920  0.0376
 5484TIP3   OH240646   0.106   1.263  10.818 -0.3695  0.1148  0.4399
 5484TIP3    H140647   0.039   1.306  10.765  0.5163 -0.8503 -1.6107
 5484TIP3    H240648   0.059   1.229  10.894 -1.6327  1.9241  0.5241
 5485TIP3   OH240649   4.471   4.190  10.452  0.1939  0.2205 -0.4672
 5485TIP3    H140650   4.564   4.176  10.468  0.2112  0.4156 -0.3973
 5485TIP3    H240651   4.436   4.103  10.434  0.2216  0.0254  0.3835
 5486TIP3   OH240652   4.624   3.396  10.014  0.0588 -0.2290  0.3260
 5486TIP3    H140653   4.588   3.444   9.939 -1.4448 -0.1864  1.0311
 5486TIP3    H240654   4.638   3.307   9.981 -0.7143 -0.2467  0.0189
 5487TIP3   OH240655   0.970   1.396  11.578  0.0613 -0.3393  0.4300
 5487TIP3    H140656   0.900   1.369  11.637 -0.4634  1.8910  0.9239
 5487TIP3    H240657   0.999   1.480  11.612  0.6125  0.4236 -1.7518
 5488TIP3   OH240658   3.000   7.014  10.373 -0.4187  0.0281  0.2403
 5488TIP3    H140659   2.982   7.108  10.364 -2.1635 -0.2931  0.1438
 5488TIP3    H240660   3.023   6.985  10.284 -2.6264 -0.1585 -0.3071
 5489TIP3   OH240661   1.535   4.847  12.198  0.2178  0.4777 -0.0056
 5489TIP3    H140662   1.520   4.782  12.129  0.2385  0.9378 -0.4450
 5489TIP3    H240663   1.490   4.925  12.168 -0.8378  0.3163  1.0915
 5490TIP3   OH240664   2.797   0.292  12.502  0.3624  0.2399 -0.2038
 5490TIP3    H140665   2.794   0.197  12.493  1.2825  0.1059  0.7581
 5490TIP3    H240666   2.706   0.317  12.517  0.2531 -0.6151  0.6493
 5491TIP3   OH240667   5.239   7.009  12.332 -0.5624 -0.8659 -0.5573
 5491TIP3    H140668   5.145   7.002  12.352 -0.4267 -0.0234  0.4516
 5491TIP3    H240669   5.281   6.953  12.397 -0.3823 -1.6164 -1.3071
 5492TIP3   OH240670   2.490   0.973  10.680 -0.4417 -0.1995  0.6017
 5492TIP3    H140671   2.526   1.048  10.728 -2.3208  0.4797  1.0254
 5492TIP3    H240672   2.466   1.009  10.594  0.4439 -0.8021  0.0838
 5493TIP3   OH240673   0.321   1.831  10.051  0.1253 -0.0476 -0.0199
 5493TIP3    H140674   0.416   1.836  10.043  0.2495  1.1945  1.7121
 5493TIP3    H240675   0.288   1.890   9.982  0.7143  1.4446  0.9369
 5494TIP3   OH240676   1.083   0.320  11.304 -0.1585  0.3132 -0.0354
 5494TIP3    H140677   1.014   0.347  11.365 -1.2465 -0.0952 -1.0529
 5494TIP3    H240678   1.039   0.310  11.220  0.4355 -3.1744 -0.0806
 5495TIP3   OH240679   2.868   7.040  10.103  0.4072 -0.1447  0.2570
 5495TIP3    H140680   2.869   7.108  10.036  0.2313 -1.2525 -0.8831
 5495TIP3    H240681   2.801   7.069  10.166 -0.1274  0.4119 -0.5562
 5496TIP3   OH240682   5.499   1.602  12.159 -0.2084  0.3433  0.6190
 5496TIP3    H140683   5.590   1.614  12.186 -0.2765 -0.3846  1.2140
 5496TIP3    H240684   5.504   1.557  12.074 -0.0160  0.5709  0.5104
 5497TIP3   OH240685   6.590   2.100  10.133 -0.5438 -0.5717  0.5578
 5497TIP3    H140686   6.584   2.192  10.105 -1.2215 -1.0337 -0.8954
 5497TIP3    H240687   6.516   2.057  10.090 -0.7031 -1.6505  1.8703
 5498TIP3   OH240688   2.232   5.551  10.983  0.1500  0.4050  0.1058
 5498TIP3    H140689   2.315   5.535  11.028 -0.0035  1.2883  0.7383
 5498TIP3    H240690   2.190   5.620  11.034 -1.3980 -0.6464  0.3281
 5499TIP3   OH240691   3.546   5.633  12.555  0.2257  0.0422 -0.3772
 5499TIP3    H140692   3.514   5.704  12.610  0.8231  1.7326 -2.1181
 5499TIP3    H240693   3.639   5.651  12.544  0.6551 -1.6764  0.0335
 5500TIP3   OH240694   0.005   2.852  10.679  0.1338  0.0313 -0.1548
 5500TIP3    H140695   0.021   2.927  10.736  1.2895 -0.8781  0.7799
 5500TIP3    H240696   0.084   2.798  10.687 -0.5082 -1.1091 -1.0804
 5501TIP3   OH240697   2.053   0.196  10.160 -0.1735  0.4085  0.7622
 5501TIP3    H140698   2.039   0.223  10.069 -1.0245  0.6042  0.9434
 5501TIP3    H240699   2.140   0.229  10.181  0.2822 -0.1423 -0.1603
 5502TIP3   OH240700   6.255   3.296  10.114  0.0325 -0.0843  0.3560
 5502TIP3    H140701   6.333   3.294  10.059 -0.2506  0.4777 -0.0751
 5502TIP3    H240702   6.230   3.389  10.117  2.0898  0.5721  4.3596
 5503TIP3   OH240703   0.980   1.427  12.131  0.1187 -0.2180 -0.1124
 5503TIP3    H140704   1.025   1.508  12.156 -0.0800  0.0894 -0.7269
 5503TIP3    H240705   0.995   1.367  12.205  0.2725  0.3736  0.3429
 5504TIP3   OH240706   0.351   5.392   9.759  0.6507 -0.4090 -0.4270
 5504TIP3    H140707   0.407   5.334   9.810  0.3284  0.1577  0.6170
 5504TIP3    H240708   0.318   5.337   9.688 -1.6040 -2.3110  1.8693
 5505TIP3   OH240709   1.378   5.060  12.125 -0.7108 -0.1951 -0.3511
 5505TIP3    H140710   1.305   5.024  12.074 -0.6798  1.0595 -1.3274
 5505TIP3    H240711   1.374   5.154  12.109 -0.8344  0.3035  2.1918
 5506TIP3   OH240712   4.360   1.439  10.969  0.1906  0.5495 -0.2870
 5506TIP3    H140713   4.402   1.457  10.886 -0.4314  1.0501 -0.5069
 5506TIP3    H240714   4.332   1.525  11.001 -0.7119  0.2338 -0.1909
 5507TIP3   OH240715   1.420   2.606  11.530 -0.2907 -0.0299  0.5155
 5507TIP3    H140716   1.469   2.606  11.612 -0.2693 -0.6680  0.5136
 5507TIP3    H240717   1.338   2.650  11.550 -0.3379 -0.2999  0.9167
 5508TIP3   OH240718   4.334   6.261  10.220  0.2267  0.0443 -0.2133
 5508TIP3    H140719   4.241   6.268  10.200  0.2449  0.3256 -0.1995
 5508TIP3    H240720   4.376   6.325  10.162  0.7972 -2.4957 -2.8422
 5509TIP3   OH240721   5.204   3.718  11.464 -0.9625 -0.2516  0.3443
 5509TIP3    H140722   5.275   3.778  11.443  0.9312 -1.9488  1.5290
 5509TIP3    H240723   5.223   3.687  11.553 -2.5539 -1.6120  0.2675
 5510TIP3   OH240724   4.318   0.348  10.670 -0.7716 -0.2355 -0.0127
 5510TIP3    H140725   4.249   0.324  10.731  0.4794 -0.7776  1.2527
 5510TIP3    H240726   4.329   0.442  10.681 -0.0466 -0.4427  1.1894
 5511TIP3   OH240727   3.422   4.255  10.856 -0.0754  0.0501 -0.0971
 5511TIP3    H140728   3.338   4.276  10.897  0.9564  2.9604  0.7294
 5511TIP3    H240729   3.484   4.250  10.928  0.9517  0.7610 -0.8919
 5512TIP3   OH240730   2.122   5.887  12.044 -0.8382 -0.0491  0.1810
 5512TIP3    H140731   2.046   5.933  12.008 -0.4711  0.3780 -0.0642
 5512TIP3    H240732   2.124   5.913  12.136 -0.9040  0.0578  0.1529
 5513TIP3   OH240733   4.560   3.752  11.460  0.3580  0.2760  0.3019
 5513TIP3    H140734   4.582   3.719  11.373 -0.0379  1.2117 -0.1735
 5513TIP3    H240735   4.590   3.684  11.520 -0.5472 -0.9948 -0.6251
 5514TIP3   OH240736   5.854   1.486  11.245  0.0461  0.2807  0.4114
 5514TIP3    H140737   5.938   1.483  11.199 -0.9838  0.1579 -1.5763
 5514TIP3    H240738   5.870   1.540  11.322  2.1095 -0.3209  0.4524
 5515TIP3   OH240739   1.611   4.363  10.286  0.4348  0.2903 -0.1585
 5515TIP3    H140740   1.668   4.393  10.357  2.0221  0.2024 -1.3448
 5515TIP3    H240741   1.662   4.377  10.207 -0.8414 -0.7110 -1.1973
 5516TIP3   OH240742   3.936   2.451  10.264 -0.4954 -0.1884  0.3494
 5516TIP3    H140743   3.880   2.385  10.224 -0.2201  0.1145 -0.5621
 5516TIP3    H240744   4.024   2.430  10.233 -0.2817  0.0864  0.7566
 5517TIP3   OH240745   5.624   2.832  17.621 -0.4972  0.4299  0.0608
 5517TIP3    H140746   5.537   2.809  17.653 -0.9940  0.4060 -1.2810
 5517TIP3    H240747   5.634   2.925  17.645 -1.2041  0.6451 -0.4564
 5518TIP3   OH240748   3.551   2.749  11.739 -0.1180 -0.1521 -0.1658
 5518TIP3    H140749   3.541   2.659  11.709  0.3151 -0.5428  0.8125
 5518TIP3    H240750   3.584   2.796  11.663  2.0016 -1.3263 -0.0438
 5519TIP3   OH240751   4.108   0.556  10.798 -0.0487  0.1944  0.0417
 5519TIP3    H140752   4.067   0.521  10.718  0.3294 -0.1451 -0.0087
 5519TIP3    H240753   4.102   0.484  10.861  1.3691 -0.2321 -0.2817
 5520TIP3   OH240754   6.115   7.671  10.262 -0.2748  0.2729 -0.1429
 5520TIP3    H140755   6.085   7.622  10.186  1.2049 -1.4101  0.2884
 5520TIP3    H240756   6.105   7.610  10.335  1.3632  0.6933  0.4704
 5521TIP3   OH240757   2.061   4.688  10.676 -0.1496 -0.8606  0.1824
 5521TIP3    H140758   2.143   4.640  10.680 -0.1100 -0.8144 -0.0435
 5521TIP3    H240759   2.085   4.774  10.640 -0.3732 -1.0270 -0.3715
 5522TIP3   OH240760   5.227   2.410   9.665 -0.4392  0.0593 -0.3053
 5522TIP3    H140761   5.136   2.430   9.641 -0.1855  0.8160 -0.6673
 5522TIP3    H240762   5.248   2.472   9.735 -0.9311 -1.6495  1.4574
 5523TIP3   OH240763   3.518   3.734  10.233 -0.0304 -0.3845 -0.4784
 5523TIP3    H140764   3.609   3.754  10.212 -0.5312  0.0204 -2.4980
 5523TIP3    H240765   3.475   3.819  10.240 -0.5807 -0.5712 -1.3195
 5524TIP3   OH240766   6.929   1.615  10.507 -0.0901  0.0298  0.2574
 5524TIP3    H140767   7.007   1.649  10.551 -0.0200  0.2106 -0.0073
 5524TIP3    H240768   6.877   1.577  10.578 -0.1972  0.7315  0.5710
 5525TIP3   OH240769   1.663   1.507  11.695  0.6211  0.1642 -0.2354
 5525TIP3    H140770   1.613   1.433  11.730  1.3868 -0.1183  0.2854
 5525TIP3    H240771   1.721   1.468  11.629  0.6728  0.3786 -0.3183
 5526TIP3   OH240772   1.917   4.392  12.043 -0.3054 -0.6101 -0.1952
 5526TIP3    H140773   1.927   4.352  12.129  1.7372  1.1105  0.4481
 5526TIP3    H240774   1.995   4.367  11.994  1.0637  2.4120  0.2442
 5527TIP3   OH240775   5.893   0.263  12.204 -0.5192  0.2073 -0.1394
 5527TIP3    H140776   5.891   0.239  12.112 -0.7881  0.9202 -0.3237
 5527TIP3    H240777   5.819   0.324  12.215  0.5713  1.5415  0.1337
 5528TIP3   OH240778   2.313   6.121  10.842 -0.3391  0.1734  0.0210
 5528TIP3    H140779   2.351   6.202  10.875 -1.6192  0.9863 -0.4547
 5528TIP3    H240780   2.367   6.097  10.767  1.6621 -0.8746  1.6806
 5529TIP3   OH240781   4.969   1.064  17.816 -0.1643  0.1975  0.1354
 5529TIP3    H140782   4.913   1.035  17.743 -0.4574 -2.8569  1.4530
 5529TIP3    H240783   4.907   1.089  17.885  0.1026 -0.3037  0.5577
 5530TIP3   OH240784   4.372   3.662  10.243  0.0581 -0.2313  0.2844
 5530TIP3    H140785   4.316   3.599  10.197 -0.1634 -0.7687  1.2596
 5530TIP3    H240786   4.366   3.636  10.335  0.2212  1.0297  0.6637
 5531TIP3   OH240787   4.827   6.486  11.608 -0.4329  0.2764 -0.4082
 5531TIP3    H140788   4.919   6.468  11.627 -0.4835 -0.6789 -1.0258
 5531TIP3    H240789   4.791   6.403  11.578 -1.8871  0.2433  1.2136
 5532TIP3   OH240790   0.430   5.046  10.755 -0.4866 -0.2732  0.0853
 5532TIP3    H140791   0.453   5.086  10.838 -1.4213  0.5510 -0.0243
 5532TIP3    H240792   0.489   4.971  10.746  0.0037 -0.0341  1.2085
 5533TIP3   OH240793   5.255   6.768  10.262 -0.1707  0.4166  0.4018
 5533TIP3    H140794   5.324   6.833  10.274 -0.0470  0.2280  0.7210
 5533TIP3    H240795   5.223   6.783  10.173  1.5107 -0.7004 -0.4310
 5534TIP3   OH240796   5.187   4.605  12.414  0.0337  0.1734 -0.1733
 5534TIP3    H140797   5.282   4.595  12.422  0.3499  1.9868 -1.0809
 5534TIP3    H240798   5.171   4.698  12.430 -1.7208 -0.2468  0.8179
 5535TIP3   OH240799   4.600   3.130   9.930  0.0324  0.8236  0.7582
 5535TIP3    H140800   4.513   3.091   9.923 -0.2068  1.5003 -0.2643
 5535TIP3    H240801   4.656   3.058   9.961 -0.3468 -0.4137 -1.2667
 5536TIP3   OH240802   5.100   4.827  10.353 -0.1448  0.1778 -0.3061
 5536TIP3    H140803   5.194   4.810  10.354 -0.1763  0.0154  0.2325
 5536TIP3    H240804   5.093   4.922  10.366 -0.0536  0.1862 -0.3160
 5537TIP3   OH240805   2.859   5.519  11.451 -0.1160 -0.2486 -0.0252
 5537TIP3    H140806   2.866   5.504  11.357  2.5290 -3.0494  0.4329
 5537TIP3    H240807   2.874   5.612  11.462 -1.1824  0.2740 -2.3747
 5538TIP3   OH240808   5.022   3.574  11.031 -0.1997  0.4304  0.0730
 5538TIP3    H140809   5.010   3.625  11.112  1.1022  1.5649 -0.4173
 5538TIP3    H240810   5.114   3.585  11.009  0.5736 -3.4768  0.7728
 5539TIP3   OH240811   2.703   7.472  10.161 -0.3957 -0.2629 -0.2344
 5539TIP3    H140812   2.797   7.468  10.147 -0.3402 -1.4144  0.2981
 5539TIP3    H240813   2.693   7.495  10.253 -0.5339 -3.1387  0.5670
 5540TIP3   OH240814   4.975   1.208  10.104  0.5691 -0.1429  0.1606
 5540TIP3    H140815   5.051   1.232  10.157  0.3019  0.6583  0.1991
 5540TIP3    H240816   4.970   1.278  10.038 -0.6754  0.3300  0.7209
 5541TIP3   OH240817   0.858   2.935  11.064  0.0222  0.1294 -0.5016
 5541TIP3    H140818   0.892   3.015  11.106  0.0953 -0.0535 -0.2139
 5541TIP3    H240819   0.921   2.867  11.086 -0.4728 -0.1910 -0.0566
 5542TIP3   OH240820   4.190   6.061   9.883  0.1358 -0.1304 -0.4869
 5542TIP3    H140821   4.107   6.083   9.843 -0.0068  0.6483  0.2068
 5542TIP3    H240822   4.171   5.985   9.938 -0.4574  0.8555  0.7322
 5543TIP3   OH240823   3.225   7.008  10.573  0.4987  0.8627 -0.3482
 5543TIP3    H140824   3.153   6.972  10.522 -0.6590  1.8069  0.5563
 5543TIP3    H240825   3.256   6.933  10.625 -0.5939  0.6715  0.0770
 5544TIP3   OH240826   4.885   1.599  11.423  0.5300 -0.0874 -0.0934
 5544TIP3    H140827   4.831   1.525  11.396  0.7180 -0.7582  1.2608
 5544TIP3    H240828   4.850   1.674  11.374  0.1519 -1.0086 -1.2683
 5545TIP3   OH240829   3.405   5.319  10.715 -0.2797 -0.0794  0.1911
 5545TIP3    H140830   3.501   5.313  10.714 -0.1904  0.7188 -2.2593
 5545TIP3    H240831   3.376   5.228  10.701  0.1655 -0.1335 -0.4321
 5546TIP3   OH240832   3.402   7.680  11.222  0.1584 -0.2434 -0.1861
 5546TIP3    H140833   3.407   7.720  11.309  0.5657 -3.0018  1.1630
 5546TIP3    H240834   3.483   7.708  11.178  1.0191 -0.5136  1.1517
 5547TIP3   OH240835   1.269   0.097   9.869  0.5582  0.1158 -0.0054
 5547TIP3    H140836   1.196   0.079   9.928  0.6165 -0.7754 -0.1938
 5547TIP3    H240837   1.258   0.035   9.798  2.8422 -1.7711  1.1373
 5548TIP3   OH240838   5.892   7.412  11.351  0.4261 -0.2172 -0.2251
 5548TIP3    H140839   5.893   7.376  11.439 -1.2142  0.0055 -0.0777
 5548TIP3    H240840   5.820   7.365  11.307 -0.0957  1.0618 -0.8007
 5549TIP3   OH240841   4.633   5.054  10.610  0.2439  0.0344 -0.4957
 5549TIP3    H140842   4.646   5.149  10.617 -0.1941  0.0729 -0.1313
 5549TIP3    H240843   4.719   5.016  10.628  0.1690  0.3223  0.5347
 5550TIP3   OH240844   6.365   3.792  10.912 -0.0145 -0.5509  0.3916
 5550TIP3    H140845   6.286   3.754  10.874  0.7201 -0.1167 -1.7231
 5550TIP3    H240846   6.437   3.745  10.868  0.9583 -1.4897  2.8193
 5551TIP3   OH240847   4.081   3.044  11.433 -0.1151  0.5727 -0.6300
 5551TIP3    H140848   4.143   3.079  11.369 -0.5405  2.3885 -0.1008
 5551TIP3    H240849   4.043   3.121  11.475 -0.0031 -0.5437  1.6921
 5552TIP3   OH240850   4.804   7.641  12.522  0.6075 -0.5125  0.1136
 5552TIP3    H140851   4.882   7.687  12.553 -0.4014  0.3714  1.4746
 5552TIP3    H240852   4.757   7.706  12.469  1.0451 -1.2226 -1.2030
 5553TIP3   OH240853   6.101   6.634  11.257  0.0717  0.3654  0.5686
 5553TIP3    H140854   6.018   6.588  11.249 -0.4872  1.3599  0.4783
 5553TIP3    H240855   6.096   6.678  11.342  0.6586  0.1444  0.7220
 5554TIP3   OH240856   0.526   3.628  10.262 -0.3897  0.0323  0.2950
 5554TIP3    H140857   0.542   3.690  10.333  0.2505  1.3651 -0.9616
 5554TIP3    H240858   0.551   3.543  10.298  2.2238  0.9741  0.9250
 5555TIP3   OH240859   0.283   5.334  11.297 -0.8407  0.6400  0.2628
 5555TIP3    H140860   0.207   5.385  11.269 -2.1582 -0.9793  0.7360
 5555TIP3    H240861   0.247   5.251  11.326  1.1625 -0.3198  0.1873
 5556TIP3   OH240862   2.206   1.221  10.530  0.2921  0.1715  0.5787
 5556TIP3    H140863   2.296   1.254  10.522 -0.1858  1.2364 -0.8396
 5556TIP3    H240864   2.193   1.210  10.624  1.8102  0.2534  0.8298
 5557TIP3   OH240865   7.663   4.217  12.340  0.0969  0.8451  0.6041
 5557TIP3    H140866   7.726   4.228  12.269 -0.4455  0.4881  0.0591
 5557TIP3    H240867   7.610   4.297  12.338  1.1653  1.6271  1.7333
 5558TIP3   OH240868   1.171   2.240  12.406  0.2301  0.6483  0.4460
 5558TIP3    H140869   1.087   2.220  12.446  0.4873 -2.7101 -0.4471
 5558TIP3    H240870   1.232   2.245  12.479 -0.0467 -1.2128  0.8473
 5559TIP3   OH240871   4.791   0.949  12.536  0.0304  0.1325 -0.1655
 5559TIP3    H140872   4.709   0.917  12.574  0.2707 -0.4898 -0.1507
 5559TIP3    H240873   4.859   0.893  12.575  0.1454 -1.6693 -2.6838
 5560TIP3   OH240874   0.858   0.406  11.468  0.2395  0.1122  0.0717
 5560TIP3    H140875   0.796   0.338  11.496 -0.4203  0.1175 -1.2648
 5560TIP3    H240876   0.876   0.457  11.547 -2.8796  1.2302  0.2028
 5561TIP3   OH240877   6.398   4.815  12.181  0.2319 -0.4910 -0.2248
 5561TIP3    H140878   6.420   4.900  12.220  1.6201 -0.6269 -0.6510
 5561TIP3    H240879   6.466   4.755  12.213  0.7280 -0.8626 -1.8720
 5562TIP3   OH240880   3.004   0.557  10.396 -0.3829 -0.3441 -0.1081
 5562TIP3    H140881   3.079   0.615  10.403  0.7914 -1.9331  1.0513
 5562TIP3    H240882   3.001   0.533  10.303  0.3099  0.0050 -0.2246
 5563TIP3   OH240883   1.221   7.228  10.093 -0.3340  0.6135 -0.0960
 5563TIP3    H140884   1.157   7.261  10.030  0.3647  0.3314 -0.9856
 5563TIP3    H240885   1.175   7.227  10.177 -0.7131  2.8679 -0.2027
 5564TIP3   OH240886   2.257   4.314  11.444 -0.2857  0.3980 -0.2241
 5564TIP3    H140887   2.349   4.301  11.419 -0.2753 -1.8478  0.7616
 5564TIP3    H240888   2.261   4.347  11.534 -0.4619 -0.0070 -0.0705
 5565TIP3   OH240889   2.456   2.224  10.927 -0.1514 -0.1454 -0.5739
 5565TIP3    H140890   2.505   2.299  10.961 -0.3830 -0.6468  0.9204
 5565TIP3    H240891   2.433   2.249  10.837  2.7812  0.1242 -1.3448
 5566TIP3   OH240892   2.883   7.638  11.707 -0.0528 -0.3101  0.2204
 5566TIP3    H140893   2.947   7.700  11.742 -0.0898 -1.4064  2.3682
 5566TIP3    H240894   2.799   7.668  11.742 -0.2771 -0.6964  0.0187
 5567TIP3   OH240895   2.539   4.766  12.496  0.4305 -0.2529 -0.3331
 5567TIP3    H140896   2.542   4.692  12.556  0.3076  0.5019  0.6210
 5567TIP3    H240897   2.451   4.764  12.458 -0.0790  0.2356  0.7819
 5568TIP3   OH240898   7.254   4.787  11.944 -0.1128  0.0383 -0.2597
 5568TIP3    H140899   7.253   4.836  12.026 -1.9671  1.5483 -1.0946
 5568TIP3    H240900   7.165   4.752  11.936  0.1048 -0.2709 -1.5225
 5569TIP3   OH240901   3.549   6.799  10.210 -0.2568 -0.0410 -0.5379
 5569TIP3    H140902   3.540   6.747  10.130 -1.0867 -1.1037  0.2215
 5569TIP3    H240903   3.475   6.774  10.264 -0.1876  1.2987  0.2373
 5570TIP3   OH240904   3.796   4.642   9.736  0.1166 -0.0606 -0.0020
 5570TIP3    H140905   3.823   4.661   9.646  0.2224  2.6586  0.5060
 5570TIP3    H240906   3.855   4.573   9.765  0.0206 -1.0488 -2.0239
 5571TIP3   OH240907   1.303   6.647  10.943  0.4245 -0.7692  0.1833
 5571TIP3    H140908   1.280   6.592  10.869 -0.3038 -0.2650  0.0221
 5571TIP3    H240909   1.330   6.731  10.904 -1.5055  0.0552  0.5107
 5572TIP3   OH240910   5.690   2.015  11.333 -0.4996 -0.6554 -0.7122
 5572TIP3    H140911   5.715   2.105  11.352 -0.7589 -0.5487 -0.8732
 5572TIP3    H240912   5.630   2.022  11.259  2.2082 -1.1893 -3.1488
 5573TIP3   OH240913   5.276   5.615  12.785 -0.5653  0.1547  0.6297
 5573TIP3    H140914   5.305   5.556  12.716  0.5324  2.3280 -0.8837
 5573TIP3    H240915   5.349   5.677  12.796 -2.5899  2.7844  0.2942
 5574TIP3   OH240916   1.459   3.299  10.213  0.5246 -0.4324  0.0359
 5574TIP3    H140917   1.445   3.359  10.286 -0.1788 -1.1075  0.4644
 5574TIP3    H240918   1.540   3.252  10.236  1.0489  0.2917 -0.2754
 5575TIP3   OH240919   3.280   7.156  10.332  0.3645  0.1353 -0.2559
 5575TIP3    H140920   3.293   7.082  10.272 -0.8576  0.8622 -1.4711
 5575TIP3    H240921   3.263   7.115  10.417  0.4364 -0.9610 -0.7529
 5576TIP3   OH240922   1.802   6.164  10.928  0.1313  0.3272 -0.3172
 5576TIP3    H140923   1.886   6.132  10.962  1.0145  1.0621 -1.7388
 5576TIP3    H240924   1.772   6.095  10.868 -0.0796  0.2652 -0.1442
 5577TIP3   OH240925   6.545   2.042  10.774 -0.1179  0.1423  0.1682
 5577TIP3    H140926   6.609   1.989  10.727  0.3168 -0.2600  1.2020
 5577TIP3    H240927   6.460   2.014  10.739  0.1296 -0.9574  0.4135
 5578TIP3   OH240928   1.269   3.628  10.408 -0.2647 -0.8906  0.6075
 5578TIP3    H140929   1.316   3.546  10.425  0.2168 -0.8631 -0.5081
 5578TIP3    H240930   1.178   3.607  10.427 -0.2445 -1.8990 -0.3034
 5579TIP3   OH240931   7.200   3.067  10.167 -0.1212 -0.8265 -0.3459
 5579TIP3    H140932   7.282   3.113  10.147 -1.1975  1.9000  1.1125
 5579TIP3    H240933   7.195   3.067  10.262 -2.5615  0.5733 -0.4036
 5580TIP3   OH240934   1.239   2.681  11.286  0.3793 -0.3610 -0.2198
 5580TIP3    H140935   1.210   2.664  11.376 -0.4886  0.2309 -0.3798
 5580TIP3    H240936   1.217   2.601  11.238 -1.4603  0.2309 -0.4417
 5581TIP3   OH240937   6.607   4.536  11.832  0.8739 -0.3915 -0.1587
 5581TIP3    H140938   6.524   4.554  11.787  0.9947 -2.2515 -1.2080
 5581TIP3    H240939   6.639   4.623  11.858 -1.3958  0.3815  0.2998
 5582TIP3   OH240940   3.287   6.396  10.180 -0.5613 -0.1432  0.2100
 5582TIP3    H140941   3.311   6.356  10.263 -0.7906  0.6949  0.6932
 5582TIP3    H240942   3.222   6.462  10.203 -1.7298 -0.8889 -0.8115
 5583TIP3   OH240943   4.445   6.471  10.079 -0.6537  0.8147 -0.2949
 5583TIP3    H140944   4.511   6.531  10.115  1.2116 -0.7813 -0.8800
 5583TIP3    H240945   4.471   6.459   9.988 -0.6015 -1.3158 -0.0486
 5584TIP3   OH240946   6.216   4.640  10.694  0.2073  0.1476  0.1847
 5584TIP3    H140947   6.162   4.570  10.731  1.2312 -0.0290  1.4211
 5584TIP3    H240948   6.258   4.680  10.770  1.5580  0.4794 -0.7052
 5585TIP3   OH240949   1.194   5.461  10.547  0.1134 -0.2139  0.2516
 5585TIP3    H140950   1.185   5.555  10.535  0.7465 -0.1820 -0.0293
 5585TIP3    H240951   1.265   5.436  10.487 -0.1114 -0.8829  0.2542
 5586TIP3   OH240952   5.615   1.366  11.198  0.4015  1.3628 -0.0396
 5586TIP3    H140953   5.692   1.423  11.209  1.4523 -0.1054  0.5071
 5586TIP3    H240954   5.651   1.279  11.184 -1.1714  0.5914  0.4489
 5587TIP3   OH240955   4.455   3.137  10.943 -0.2493  0.3704 -0.1462
 5587TIP3    H140956   4.508   3.058  10.945 -0.3020  0.3538  1.2212
 5587TIP3    H240957   4.364   3.106  10.939 -0.4007  0.2550  2.4241
 5588TIP3   OH240958   0.432   1.569  11.513 -0.0196  0.1749  0.1612
 5588TIP3    H140959   0.437   1.550  11.607 -0.2409 -1.8140 -0.1950
 5588TIP3    H240960   0.448   1.485  11.471 -0.9751  0.8194 -1.5741
 5589TIP3   OH240961   5.443   5.502  10.274  0.3331 -0.2976  0.4800
 5589TIP3    H140962   5.516   5.483  10.333  1.8132 -0.3346 -1.2715
 5589TIP3    H240963   5.445   5.431  10.209 -0.4174  0.4085 -0.3533
 5590TIP3   OH240964   2.680   2.999  10.323  0.0078 -0.0351 -0.3626
 5590TIP3    H140965   2.652   2.985  10.414  1.3044 -0.5090 -0.0074
 5590TIP3    H240966   2.709   2.913  10.294 -0.2788  0.1473 -1.1925
 5591TIP3   OH240967   0.777   6.802  11.111  0.0112 -0.3610  0.2429
 5591TIP3    H140968   0.846   6.856  11.071 -1.0849 -1.1156 -2.9940
 5591TIP3    H240969   0.824   6.738  11.164  1.6585  0.4428 -0.1814
 5592TIP3   OH240970   2.168   6.467  11.722 -0.3339  0.3468 -0.0343
 5592TIP3    H140971   2.114   6.478  11.644 -0.4650  0.0818  0.0158
 5592TIP3    H240972   2.208   6.380  11.712 -0.9864 -0.0337  0.5768
 5593TIP3   OH240973   4.761   1.062  10.181 -0.3557  0.3334  0.4216
 5593TIP3    H140974   4.833   1.122  10.161 -0.6253 -0.0326 -1.8405
 5593TIP3    H240975   4.705   1.112  10.240 -0.7031  2.4668 -1.5890
 5594TIP3   OH240976   0.565   4.622  11.769  0.6471 -0.0853  0.3475
 5594TIP3    H140977   0.554   4.568  11.691  1.7902 -3.3364  2.2261
 5594TIP3    H240978   0.489   4.680  11.769 -0.5100 -1.4461 -2.0688
 5595TIP3   OH240979   7.274   2.729  10.004 -0.1877  0.3132  0.3957
 5595TIP3    H140980   7.209   2.799  10.012 -0.9377 -0.2810 -0.3356
 5595TIP3    H240981   7.223   2.649   9.993  0.6580 -0.1871 -0.0411
 5596TIP3   OH240982   3.483   3.501  11.946  0.6748 -0.4005 -0.2251
 5596TIP3    H140983   3.504   3.592  11.969 -1.1889 -0.0227  0.0791
 5596TIP3    H240984   3.441   3.466  12.025  2.9841 -2.1387  0.3483
 5597TIP3   OH240985   0.484   5.643  10.648  0.2175  1.0619 -0.1765
 5597TIP3    H140986   0.549   5.573  10.635 -2.6746 -2.1834  1.2198
 5597TIP3    H240987   0.435   5.645  10.565 -0.3664  0.6119  0.1480
 5598TIP3   OH240988   4.810   3.905  12.161 -0.2077  0.4997 -0.1744
 5598TIP3    H140989   4.866   3.938  12.230 -0.4017  0.9372 -0.2198
 5598TIP3    H240990   4.818   3.810  12.166  2.0215  0.5612 -1.4076
 5599TIP3   OH240991   2.015   0.337  12.836  0.1467 -0.3938 -0.3838
 5599TIP3    H140992   2.066   0.317  12.758 -1.7805 -0.4365 -1.7121
 5599TIP3    H240993   2.063   0.296  12.908  3.1434  1.4583 -1.1495
 5600TIP3   OH240994   3.168   2.516  11.744 -0.3898 -0.0763 -0.0995
 5600TIP3    H140995   3.120   2.452  11.691  1.6299 -1.1345 -0.7782
 5600TIP3    H240996   3.122   2.598  11.731 -2.4125 -1.1476 -0.1008
 5601TIP3   OH240997   3.719   1.525  11.300 -0.0923  0.4530  0.0760
 5601TIP3    H140998   3.714   1.505  11.393  0.2421  0.6002  0.1292
 5601TIP3    H240999   3.812   1.543  11.285 -0.2475  1.1204 -0.1354
 5602TIP3   OH241000   6.570   3.618   9.976  0.3898 -0.3078 -0.1871
 5602TIP3    H141001   6.534   3.603  10.064  0.5885  2.4437  0.4730
 5602TIP3    H241002   6.665   3.618   9.988  0.4293  1.9257  0.0929
 5603TIP3   OH241003   2.378   2.620  11.451  0.0776 -0.1464  0.2539
 5603TIP3    H141004   2.318   2.686  11.485 -0.4041  0.0569 -0.9222
 5603TIP3    H241005   2.393   2.646  11.360 -0.4163 -1.8389 -0.3504
 5604TIP3   OH241006   7.617   5.221   9.707 -0.0632 -0.2148  0.4659
 5604TIP3    H141007   7.569   5.235   9.789  1.5970  1.9958  1.1560
 5604TIP3    H241008   7.602   5.129   9.686 -3.5128  0.0553  1.2556
 5605TIP3   OH241009   4.398   5.851  12.219 -0.0336  0.4106 -0.0643
 5605TIP3    H141010   4.343   5.784  12.261  1.1684 -0.6260 -0.0788
 5605TIP3    H241011   4.337   5.921  12.196 -1.2463 -0.4352  0.4567
 5606TIP3   OH241012   1.972   4.813  11.320  0.7026 -0.2508  0.2575
 5606TIP3    H141013   1.906   4.751  11.287  1.2637  0.3841 -2.2871
 5606TIP3    H241014   1.921   4.881  11.364  0.0031 -1.9087  2.1550
 5607TIP3   OH241015   6.815   1.033  11.626 -0.2745 -0.3760 -0.2526
 5607TIP3    H141016   6.779   1.009  11.541 -2.2038  1.2522  0.0373
 5607TIP3    H241017   6.770   1.114  11.650  0.9330 -0.2506  1.8844
 5608TIP3   OH241018   4.291   6.984  12.126 -0.7614 -0.8397  0.7183
 5608TIP3    H141019   4.312   6.901  12.170 -1.9746 -0.9101  1.2268
 5608TIP3    H241020   4.207   7.010  12.165  0.0598  1.1208  1.2558
 5609TIP3   OH241021   3.571   4.633  11.036  0.0792 -0.1825 -0.7434
 5609TIP3    H141022   3.638   4.566  11.021 -0.2310 -0.5466 -0.5037
 5609TIP3    H241023   3.620   4.716  11.036  0.3255 -0.3048 -2.1010
 5610TIP3   OH241024   2.756   4.341  11.465  0.3862  0.1237 -0.1791
 5610TIP3    H141025   2.695   4.270  11.487  0.8084  0.2410  1.5192
 5610TIP3    H241026   2.700   4.417  11.449  0.0183 -0.0927  0.0615
 5611TIP3   OH241027   5.043   6.490   9.814  0.3846 -0.5323  0.3530
 5611TIP3    H141028   5.015   6.411   9.768  0.3604 -1.1104  1.3469
 5611TIP3    H241029   5.019   6.561   9.754  1.0645 -1.2970 -0.8866
 5612TIP3   OH241030   3.044   1.067  10.141 -0.4000 -0.1648  0.0939
 5612TIP3    H141031   3.135   1.076  10.168 -0.4695  2.8735 -0.3377
 5612TIP3    H241032   3.045   0.996  10.077  1.5473 -0.5565  0.4919
 5613TIP3   OH241033   3.420   3.605  11.242 -0.1581  0.0984  0.4535
 5613TIP3    H141034   3.415   3.559  11.325  0.0775  1.7274  1.4140
 5613TIP3    H241035   3.380   3.691  11.259 -0.0766  0.4872 -1.1004
 5614TIP3   OH241036   5.903   5.859  10.855  0.2223  0.0495  0.6821
 5614TIP3    H141037   5.829   5.920  10.863 -0.1061 -0.4350  1.4145
 5614TIP3    H241038   5.954   5.873  10.935  0.9494  0.3935  0.1743
 5615TIP3   OH241039   0.810   5.563  10.096 -0.1113  0.3416 -0.3945
 5615TIP3    H141040   0.838   5.583  10.007  0.4911  0.1637 -0.2505
 5615TIP3    H241041   0.716   5.580  10.096 -0.3096 -0.6105 -1.3430
 5616TIP3   OH241042   3.778   4.720  10.023 -0.0616  0.1086 -0.4072
 5616TIP3    H141043   3.720   4.791  10.052  0.6463  0.6818 -0.3789
 5616TIP3    H241044   3.737   4.687   9.943 -0.5245  0.3779 -0.2882
 5617TIP3   OH241045   1.311   6.641  10.518  0.4534 -0.2193 -0.5258
 5617TIP3    H141046   1.292   6.723  10.563 -1.6690 -1.4959  1.1136
 5617TIP3    H241047   1.271   6.652  10.431 -0.6304  0.1835  0.0019
 5618TIP3   OH241048   5.046   1.500  11.816 -0.2275  0.0750 -0.5286
 5618TIP3    H141049   4.965   1.453  11.797 -0.7594  0.3189  1.0779
 5618TIP3    H241050   5.115   1.439  11.787 -0.9518 -0.7112 -0.6502
 5619TIP3   OH241051   1.873   1.513  12.093 -0.0630  0.3555 -0.0630
 5619TIP3    H141052   1.831   1.558  12.020 -0.2914  0.7078  0.2833
 5619TIP3    H241053   1.819   1.435  12.108 -0.9988  1.1514  0.8179
 5620TIP3   OH241054   2.670   6.463  11.070 -0.1623  0.0613 -0.0734
 5620TIP3    H141055   2.751   6.415  11.087 -0.9956 -1.3258  0.0881
 5620TIP3    H241056   2.642   6.494  11.157 -1.1514 -1.7101  0.2863
 5621TIP3   OH241057   6.472   1.252  12.240  0.5015 -0.9677  0.0485
 5621TIP3    H141058   6.394   1.305  12.255 -0.4959 -2.3068 -0.2498
 5621TIP3    H241059   6.481   1.200  12.320  1.2036 -0.6825  0.1589
 5622TIP3   OH241060   1.310   0.310  12.190 -0.4621 -0.3890  0.1106
 5622TIP3    H141061   1.308   0.398  12.228  0.6756 -0.5099  0.4839
 5622TIP3    H241062   1.283   0.322  12.099 -0.2133  0.3537  0.1359
 5623TIP3   OH241063   2.848   3.831  11.305  0.5514  0.3895  0.8511
 5623TIP3    H141064   2.907   3.756  11.303 -0.5642 -0.5188  0.7745
 5623TIP3    H241065   2.858   3.872  11.219 -1.4406 -1.8145 -0.5274
 5624TIP3   OH241066   2.439   2.725  11.168  0.4682  0.0389 -0.4867
 5624TIP3    H141067   2.433   2.802  11.112 -0.2909  0.4897  0.2082
 5624TIP3    H241068   2.500   2.667  11.122  1.6527  1.3611 -0.6493
 5625TIP3   OH241069   2.015   0.326  11.886  0.1669  0.3724 -0.5760
 5625TIP3    H141070   2.073   0.402  11.889  0.5692  0.0376  1.5335
 5625TIP3    H241071   1.933   0.356  11.924 -0.3842  0.2805 -1.6477
 5626TIP3   OH241072   5.008   1.584  12.104 -0.0806  0.8529 -0.6253
 5626TIP3    H141073   5.067   1.529  12.052  0.2535 -0.4683  1.0427
 5626TIP3    H241074   4.927   1.533  12.110 -0.2694  1.1992 -0.2348
 5627TIP3   OH241075   7.414   2.674  11.447 -0.0128 -0.1336  0.1228
 5627TIP3    H141076   7.421   2.578  11.451 -0.7112 -0.2019 -0.2505
 5627TIP3    H241077   7.505   2.704  11.436  0.5723 -0.5921  2.8921
 5628TIP3   OH241078   3.773   5.150  11.421 -0.2106 -0.1637 -0.1883
 5628TIP3    H141079   3.723   5.194  11.489 -1.2881  1.5903 -1.9911
 5628TIP3    H241080   3.828   5.219  11.383 -1.4634 -0.4160 -2.6610
 5629TIP3   OH241081   1.797   6.989  11.362  0.4135 -0.7403  0.2563
 5629TIP3    H141082   1.808   7.018  11.452  0.7369  3.3071 -0.8876
 5629TIP3    H241083   1.861   7.041  11.312 -2.7193  0.6047 -2.7891
 5630TIP3   OH241084   3.462   4.947   9.872 -0.0477 -0.2531 -0.2028
 5630TIP3    H141085   3.371   4.972   9.888 -0.3025 -0.8489 -0.6393
 5630TIP3    H241086   3.503   4.945   9.958 -0.1838  0.9944 -0.1058
 5631TIP3   OH241087   7.544   4.263  10.880 -0.1123 -0.1760  0.3179
 5631TIP3    H141088   7.560   4.279  10.973 -1.6456 -1.2582  0.8073
 5631TIP3    H241089   7.449   4.251  10.874 -0.3057  1.6391 -1.6803
 5632TIP3   OH241090   0.159   0.892  10.213  0.1969 -0.1413  0.0305
 5632TIP3    H141091   0.166   0.848  10.128 -0.1216  0.2544 -0.2057
 5632TIP3    H241092   0.065   0.910  10.223  0.0850 -1.1095  0.9484
 5633TIP3   OH241093   6.369   6.004  11.095 -0.8035 -0.0035 -0.0799
 5633TIP3    H141094   6.440   6.018  11.033 -1.2784 -0.6486 -0.7848
 5633TIP3    H241095   6.331   6.091  11.108  0.2208  0.3805  0.4555
 5634TIP3   OH241096   1.038   3.890  12.030  0.1191  0.2078 -0.1504
 5634TIP3    H141097   1.085   3.953  11.976 -0.9110  0.2488 -1.0476
 5634TIP3    H241098   1.059   3.805  11.991 -1.0774  0.2826 -1.0030
 5635TIP3   OH241099   4.354   2.524   9.986 -0.2702 -0.0193 -0.7101
 5635TIP3    H141100   4.360   2.537   9.891  2.7745 -1.6429 -0.8574
 5635TIP3    H241101   4.421   2.582  10.022 -1.0087  0.1497  0.4502
 5636TIP3   OH241102   6.527   1.749  11.947  0.5082  0.2519  0.0089
 5636TIP3    H141103   6.506   1.684  12.014 -0.2763  0.1141 -0.3685
 5636TIP3    H241104   6.447   1.800  11.937  1.0957  1.2524  0.2592
 5637TIP3   OH241105   6.943   5.266  11.031 -0.2650 -0.2015  0.3597
 5637TIP3    H141106   6.908   5.178  11.044 -3.2875  0.5631 -1.4301
 5637TIP3    H241107   6.888   5.322  11.087 -1.1891  0.9199 -1.5562
 5638TIP3   OH241108   2.217   2.451  11.647 -0.4519 -0.3918 -0.6619
 5638TIP3    H141109   2.271   2.373  11.652  1.9441  1.2075  2.7063
 5638TIP3    H241110   2.263   2.509  11.586  0.4928  0.0850  0.4500
 5639TIP3   OH241111   2.932   4.147   9.733  0.4614 -0.6060  0.3094
 5639TIP3    H141112   2.932   4.081   9.663  1.4464  0.0094 -0.2961
 5639TIP3    H241113   2.905   4.228   9.690  1.3163 -0.1671  0.5779
 5640TIP3   OH241114   1.686   2.372  11.205  0.5662  0.2550  0.2295
 5640TIP3    H141115   1.687   2.425  11.284  0.4695  0.4733  0.0856
 5640TIP3    H241116   1.749   2.302  11.222  0.5097  0.2732  0.5171
 5641TIP3   OH241117   0.796   7.186  11.930  0.5986 -0.3574  0.1124
 5641TIP3    H141118   0.790   7.258  11.993  0.5335 -1.0847  0.9611
 5641TIP3    H241119   0.731   7.123  11.961  2.7600 -2.1636  1.2125
 5642TIP3   OH241120   3.374   2.958  12.503 -0.0451 -0.1763  0.0260
 5642TIP3    H141121   3.428   2.923  12.432  1.1227  0.7770  0.4099
 5642TIP3    H241122   3.385   2.897  12.575  1.0312  0.3175  0.2996
 5643TIP3   OH241123   3.369   5.822  12.692 -0.4181  0.2341  0.0630
 5643TIP3    H141124   3.275   5.811  12.687 -0.1745 -2.6216  0.0657
 5643TIP3    H241125   3.386   5.908  12.653 -3.2021  2.1788  2.6850
 5644TIP3   OH241126   3.325   6.887  12.688  0.1716 -0.0638  0.4548
 5644TIP3    H141127   3.356   6.924  12.771  0.4049 -0.6628  0.6491
 5644TIP3    H241128   3.372   6.803  12.681  0.1677 -0.0109 -0.2929
 5645TIP3   OH241129   4.399   3.322  10.224 -0.3877  0.3208 -0.2149
 5645TIP3    H141130   4.472   3.264  10.246  0.0238  0.4174 -1.2188
 5645TIP3    H241131   4.442   3.397  10.181 -1.1303 -0.0156 -1.5940
 5646TIP3   OH241132   7.226   5.155  12.269 -0.1100 -0.2211  0.6942
 5646TIP3    H141133   7.215   5.248  12.249 -1.9211 -0.3650  0.9129
 5646TIP3    H241134   7.290   5.154  12.341  1.3588  0.6930 -0.5222
 5647TIP3   OH241135   4.922   4.621  11.738 -0.3832  0.1595  0.2436
 5647TIP3    H141136   4.831   4.627  11.708 -0.3965  0.2887  0.3096
 5647TIP3    H241137   4.935   4.700  11.790 -0.8489 -0.8243  1.9262
 5648TIP3   OH241138   0.894   3.920  11.587 -0.0677 -0.3745 -0.3562
 5648TIP3    H141139   0.938   3.855  11.531 -0.0794 -0.7578  0.0697
 5648TIP3    H241140   0.892   3.879  11.673 -1.7623 -0.5993 -0.4789
 5649TIP3   OH241141   6.252   2.653  10.374 -0.0080 -0.0372  0.6881
 5649TIP3    H141142   6.216   2.740  10.356 -0.3781 -0.1328  0.9426
 5649TIP3    H241143   6.190   2.593  10.333  0.4135 -0.1730  0.2448
 5650TIP3   OH241144   5.466   0.647  11.495  0.0848  0.1272  0.0323
 5650TIP3    H141145   5.556   0.675  11.477  0.5860 -2.2343 -1.6737
 5650TIP3    H241146   5.425   0.642  11.409 -1.5347  0.6309  0.7481
 5651TIP3   OH241147   5.266   4.528  11.480 -0.1534  0.1348  0.3895
 5651TIP3    H141148   5.302   4.566  11.400 -0.6400  0.4414  0.3097
 5651TIP3    H241149   5.183   4.490  11.453 -0.1565 -0.0680  0.6801
 5652TIP3   OH241150   2.222   5.255  10.777 -0.0938 -0.5034  0.1724
 5652TIP3    H141151   2.221   5.164  10.806 -0.5599 -0.3982  0.5009
 5652TIP3    H241152   2.156   5.298  10.832 -0.9050 -0.2756 -0.9605
 5653TIP3   OH241153   1.365   3.071  10.132  0.1084  0.0639  0.1231
 5653TIP3    H141154   1.270   3.080  10.140 -0.6266 -2.1308 -3.7541
 5653TIP3    H241155   1.399   3.152  10.171 -3.4550  2.0158 -0.3050
 5654TIP3   OH241156   5.142   6.279  12.650 -0.5203 -0.5937  0.4494
 5654TIP3    H141157   5.126   6.188  12.677  1.3518 -1.3006 -0.6501
 5654TIP3    H241158   5.231   6.279  12.616 -0.4941  1.6687  0.3574
 5655TIP3   OH241159   4.642   6.129  10.718 -0.6117 -0.3420 -0.0070
 5655TIP3    H141160   4.587   6.057  10.689 -0.6773 -0.2093 -0.2073
 5655TIP3    H241161   4.727   6.088  10.737 -0.8489 -0.5923  0.5594
 5656TIP3   OH241162   0.189   5.302  10.242 -0.3349 -0.1929  0.3569
 5656TIP3    H141163   0.157   5.308  10.152  1.1618 -0.4311 -0.2261
 5656TIP3    H241164   0.284   5.290  10.233 -0.2499 -1.0132  1.9450
 5657TIP3   OH241165   5.829   6.214  11.151  0.0483  0.0333  0.1127
 5657TIP3    H141166   5.907   6.200  11.097  0.5738  2.5984  0.0476
 5657TIP3    H241167   5.862   6.212  11.241  0.1095  0.4910  0.1069
 5658TIP3   OH241168   5.075   2.352  11.051 -0.3722 -0.2349 -0.5575
 5658TIP3    H141169   5.066   2.438  11.092 -1.4055 -0.3636 -0.4835
 5658TIP3    H241170   4.987   2.332  11.019  0.5046  0.1879 -3.5162
 5659TIP3   OH241171   2.052   4.147  10.996 -0.8118 -0.7450  0.0296
 5659TIP3    H141172   2.072   4.189  11.079 -0.7069 -0.8761  0.0722
 5659TIP3    H241173   2.113   4.073  10.992 -2.5661 -2.3437  1.0713
 5660TIP3   OH241174   1.385   5.097  10.577 -0.8814  0.3670 -0.1178
 5660TIP3    H141175   1.314   5.052  10.623  1.9202 -1.9383  2.3889
 5660TIP3    H241176   1.428   5.150  10.645 -0.0856  1.5890 -1.5095
 5661TIP3   OH241177   0.863   5.004  10.330  0.3422 -0.9569  0.0956
 5661TIP3    H141178   0.948   5.047  10.322 -0.0576 -0.4056 -1.4515
 5661TIP3    H241179   0.877   4.936  10.396  0.8280  1.8607  3.1829
 5662TIP3   OH241180   5.160   4.732  10.733  0.4695  0.1862  0.1629
 5662TIP3    H141181   5.133   4.650  10.775 -2.8828 -1.3992 -4.2328
 5662TIP3    H241182   5.093   4.796  10.759 -0.3445 -0.2005 -0.8969
 5663TIP3   OH241183   4.571   7.144  10.631  0.3133 -0.0166  0.7054
 5663TIP3    H141184   4.616   7.186  10.558 -1.5916 -0.1282 -0.6138
 5663TIP3    H241185   4.568   7.210  10.700  0.3164  0.8237 -0.0919
 5664TIP3   OH241186   3.893   6.024  12.132 -0.3433 -0.0397  0.1078
 5664TIP3    H141187   3.942   6.102  12.105 -0.3487 -0.5377 -1.3973
 5664TIP3    H241188   3.909   6.018  12.226  0.6401  1.0981  0.0368
 5665TIP3   OH241189   2.721   3.870  10.417  0.7038  0.7164  0.4126
 5665TIP3    H141190   2.719   3.966  10.425  2.5243  0.6820  1.9062
 5665TIP3    H241191   2.788   3.853  10.351  0.6377  0.4548  0.4123
 5666TIP3   OH241192   1.816   6.144  12.498 -0.1111 -0.0947  0.1402
 5666TIP3    H141193   1.834   6.233  12.469 -2.1226 -0.0793 -1.2500
 5666TIP3    H241194   1.903   6.105  12.511  0.8717  1.2324 -1.8682
 5667TIP3   OH241195   2.863   4.272  11.223 -0.5608  0.3623 -0.6578
 5667TIP3    H141196   2.801   4.214  11.178 -0.4794 -1.5316  1.5270
 5667TIP3    H241197   2.830   4.277  11.312  0.1792  2.7049 -0.4568
 5668TIP3   OH241198   7.370   6.168  10.002  0.2146  0.0981 -0.3910
 5668TIP3    H141199   7.419   6.189  10.082  0.3323  0.0422 -0.4487
 5668TIP3    H241200   7.423   6.206   9.931 -0.4490  1.1348 -0.3580
 5669TIP3   OH241201   7.295   1.440  12.443  0.1668  0.2963 -0.0600
 5669TIP3    H141202   7.372   1.494  12.462  0.1144 -0.2246  1.8553
 5669TIP3    H241203   7.330   1.365  12.393  0.9070  0.0826  0.7547
 5670TIP3   OH241204   0.574   5.048  10.049  0.1488  0.6886  0.0031
 5670TIP3    H141205   0.506   5.057  10.116 -1.1453  0.8375 -1.2894
 5670TIP3    H241206   0.644   5.107  10.078  0.1965 -0.2378  1.8910
 5671TIP3   OH241207   6.034   7.388  11.106  0.3118  0.5853 -0.0932
 5671TIP3    H141208   6.050   7.460  11.167  0.4878  0.2388  0.2767
 5671TIP3    H241209   6.059   7.422  11.021 -0.5693  1.3025 -0.0806
 5672TIP3   OH241210   3.150   1.548  10.568  0.0045 -0.4008  0.1052
 5672TIP3    H141211   3.100   1.485  10.517  0.4650 -2.2236  1.8076
 5672TIP3    H241212   3.155   1.510  10.656  2.3606  0.8469  0.5965
 5673TIP3   OH241213   1.142   0.556  10.168 -0.5898 -0.3351  0.2639
 5673TIP3    H141214   1.109   0.515  10.088 -0.4089  0.4029 -0.2044
 5673TIP3    H241215   1.088   0.635  10.178 -0.2496 -0.1392  0.5685
 5674TIP3   OH241216   7.663   0.364  11.048 -0.6473 -0.3463 -0.1665
 5674TIP3    H141217   7.575   0.352  11.014 -1.3231  0.1644  1.3209
 5674TIP3    H241218   7.655   0.347  11.142  0.8892 -0.5244 -0.0432
 5675TIP3   OH241219   6.178   7.324  11.839  0.3099 -0.4995 -0.0116
 5675TIP3    H141220   6.116   7.397  11.842  0.4709 -0.3951  1.4281
 5675TIP3    H241221   6.159   7.280  11.756 -0.0989  0.8958 -0.7038
 5676TIP3   OH241222   2.083   2.006  11.853 -0.8709  0.1718  0.9418
 5676TIP3    H141223   2.092   2.052  11.770  0.4975 -1.3437  0.2193
 5676TIP3    H241224   2.152   2.043  11.908  0.3305 -1.0645  0.3102
 5677TIP3   OH241225   4.378   5.523   9.907  0.4483  0.9129  0.8471
 5677TIP3    H141226   4.363   5.605   9.954  0.8087  0.4769  1.7379
 5677TIP3    H241227   4.427   5.468   9.969  0.3883  0.1013  0.1899
 5678TIP3   OH241228   4.667   7.303  11.880  0.0098  0.3179  0.2729
 5678TIP3    H141229   4.738   7.297  11.816 -1.5263  0.1363 -1.4899
 5678TIP3    H241230   4.591   7.269  11.834 -1.2830  0.7414  2.0267
 5679TIP3   OH241231   1.720   5.144  12.060  0.2746  0.0066  0.1522
 5679TIP3    H141232   1.757   5.230  12.081 -0.6600  0.1736  1.2127
 5679TIP3    H241233   1.625   5.156  12.070 -0.0012 -0.6795 -1.4805
 5680TIP3   OH241234   6.530   3.559   9.686  0.4038  0.0810 -0.2656
 5680TIP3    H141235   6.612   3.542   9.640  1.1432  0.0103  1.0211
 5680TIP3    H241236   6.556   3.609   9.764 -0.8402  0.5075 -0.0928
 5681TIP3   OH241237   7.499   5.944   9.874 -0.5429  0.4147 -0.0073
 5681TIP3    H141238   7.424   5.978   9.923 -0.7742 -0.2078  0.0874
 5681TIP3    H241239   7.522   6.013   9.813 -1.0039  0.7291  0.1737
 5682TIP3   OH241240   5.807   0.152  10.727  0.0269 -0.4259 -0.0703
 5682TIP3    H141241   5.769   0.174  10.642 -0.5171  0.2829  0.3436
 5682TIP3    H241242   5.901   0.167  10.716 -0.3503  3.1515  0.4199
 5683TIP3   OH241243   3.875   1.388  10.862  0.4715 -0.3613 -0.3463
 5683TIP3    H141244   3.927   1.452  10.814 -1.3618  1.0502 -0.5755
 5683TIP3    H241245   3.786   1.401  10.831 -0.4984 -0.6959  2.0314
 5684TIP3   OH241246   4.052   7.102  12.299  0.1446  0.0016 -0.1831
 5684TIP3    H141247   4.100   7.050  12.364 -1.3393 -0.0614  0.9208
 5684TIP3    H241248   3.991   7.154  12.351  0.5010  1.7037 -1.3856
 5685TIP3   OH241249   1.010   2.728  10.052  0.0524 -0.6000 -0.4677
 5685TIP3    H141250   1.022   2.658   9.988 -1.8162  0.9652 -2.7106
 5685TIP3    H241251   1.099   2.757  10.073  0.8411 -3.1261  0.0177
 5686TIP3   OH241252   5.148   2.920  10.646 -0.0138 -0.2149 -0.0855
 5686TIP3    H141253   5.147   2.938  10.552 -0.8052 -1.3615 -0.3207
 5686TIP3    H241254   5.170   2.827  10.652  2.2386  0.3230  0.9898
 5687TIP3   OH241255   2.643   2.654  11.534  0.1524  0.2867 -0.4093
 5687TIP3    H141256   2.660   2.643  11.441  2.0016 -1.2865  0.0493
 5687TIP3    H241257   2.548   2.645  11.543  0.1671 -2.1372 -1.8471
 5688TIP3   OH241258   5.781   6.117  10.177  0.1052 -0.6044 -0.6068
 5688TIP3    H141259   5.764   6.180  10.248  0.8711 -1.6645  0.5558
 5688TIP3    H241260   5.735   6.153  10.102 -1.1315  0.3208  0.5463
 5689TIP3   OH241261   0.814   7.170  10.977 -0.5605  0.3551  0.3179
 5689TIP3    H141262   0.860   7.246  10.942  0.3634 -0.7826 -1.0457
 5689TIP3    H241263   0.877   7.129  11.037  0.1767 -1.0320 -1.3181
 5690TIP3   OH241264   3.907   4.210   9.682 -0.0304 -0.3926 -0.0164
 5690TIP3    H141265   3.917   4.123   9.645  0.5700  0.2443 -1.4258
 5690TIP3    H241266   3.995   4.237   9.706  0.2380  0.8329 -2.0813
 5691TIP3   OH241267   2.342   5.160  10.284 -0.7928  0.1714  0.3010
 5691TIP3    H141268   2.264   5.203  10.320 -0.0513  1.9240 -0.0356
 5691TIP3    H241269   2.408   5.230  10.282  0.9578 -1.3587  1.0458
 5692TIP3   OH241270   3.423   3.103  10.451  0.3040 -0.5085  0.3489
 5692TIP3    H141271   3.342   3.096  10.401  0.8431 -0.4408 -0.5596
 5692TIP3    H241272   3.409   3.177  10.510  0.3501  0.6895 -1.0787
 5693TIP3   OH241273   0.749   6.568  11.356  0.6256  0.8042 -0.3215
 5693TIP3    H141274   0.753   6.544  11.263  0.9583  0.8918 -0.3324
 5693TIP3    H241275   0.660   6.599  11.369  0.2501 -0.2339 -0.3512
 5694TIP3   OH241276   3.510   7.268  11.950  0.0965  0.1659  0.4701
 5694TIP3    H141277   3.534   7.355  11.982  0.0660  0.5137 -0.4234
 5694TIP3    H241278   3.593   7.221  11.941  0.1813  0.3749  0.1781
 5695TIP3   OH241279   2.515   6.168   9.893 -0.0846 -0.1193 -0.4032
 5695TIP3    H141280   2.473   6.099   9.945  1.4224 -2.0490 -1.5836
 5695TIP3    H241281   2.602   6.178   9.932 -0.6769  2.0425  0.4825
 5696TIP3   OH241282   6.859   3.245  11.436 -0.1089 -0.3015 -0.6936
 5696TIP3    H141283   6.856   3.149  11.429  2.1700 -0.4596 -0.3212
 5696TIP3    H241284   6.940   3.270  11.392 -0.7846  1.5134 -0.9977
 5697TIP3   OH241285   3.907   6.996  11.608  0.3165  0.1492 -0.5319
 5697TIP3    H141286   3.894   7.000  11.703  0.0355 -1.8036 -0.4283
 5697TIP3    H241287   3.999   6.973  11.598  0.8592  2.2711 -0.8445
 5698TIP3   OH241288   7.308   2.827  10.525 -0.2129 -0.6534  0.2597
 5698TIP3    H141289   7.345   2.749  10.568 -0.2584 -0.2235  1.1191
 5698TIP3    H241290   7.321   2.812  10.432  5.4380  0.9018  0.3930
 5699TIP3   OH241291   3.249   0.003  10.181 -0.4550  0.4325 -0.0627
 5699TIP3    H141292   3.210   0.061  10.246  0.7898 -0.3287  1.4354
 5699TIP3    H241293   3.312  -0.050  10.230  0.5269 -0.2071 -1.8874
 5700TIP3   OH241294   4.264   5.978  10.273  0.2143  0.2760  0.5817
 5700TIP3    H141295   4.309   6.054  10.236  0.4118 -0.2670 -0.2970
 5700TIP3    H241296   4.195   6.016  10.328  1.0344  1.0992  1.0617
 5701TIP3   OH241297   3.409   0.438   9.794  0.1207  0.1816 -0.4393
 5701TIP3    H141298   3.501   0.461   9.782  0.1913  0.5415  0.7238
 5701TIP3    H241299   3.406   0.343   9.779  0.5879  0.2383 -0.9405
 5702TIP3   OH241300   2.725   5.688  11.672  0.5969 -0.1753  0.4977
 5702TIP3    H141301   2.657   5.733  11.621  0.1969 -0.8108  0.4681
 5702TIP3    H241302   2.791   5.755  11.686  0.6738  0.0424 -0.7766
 5703TIP3   OH241303   1.621   1.766  10.263  0.2906  0.2188  0.1595
 5703TIP3    H141304   1.562   1.724  10.200  0.0445  2.5827 -1.2876
 5703TIP3    H241305   1.709   1.738  10.236  0.1874  1.1866 -1.2890
 5704TIP3   OH241306   6.613   0.433  12.210 -0.1222 -0.4691 -0.2208
 5704TIP3    H141307   6.601   0.503  12.274 -2.4688  0.7426 -1.8059
 5704TIP3    H241308   6.556   0.363  12.240 -1.0995  0.0376 -0.8305
 5705TIP3   OH241309   5.956   6.413  10.363 -0.0426  0.0365 -0.8678
 5705TIP3    H141310   5.969   6.398  10.457 -1.3071  2.5557 -0.1934
 5705TIP3    H241311   6.034   6.461  10.335  1.0221 -1.9432 -1.5328
 5706TIP3   OH241312   1.850   2.872  10.537  1.0175 -0.1897 -0.3336
 5706TIP3    H141313   1.830   2.793  10.487  1.0786 -0.1070 -0.4908
 5706TIP3    H241314   1.872   2.840  10.624 -1.1996 -0.1739  0.2685
 5707TIP3   OH241315   3.584   2.333  11.242 -0.5916 -0.3539  0.0970
 5707TIP3    H141316   3.573   2.238  11.235  0.0652 -0.4251 -0.0169
 5707TIP3    H241317   3.495   2.366  11.255 -0.8136 -0.9940  0.2616
 5708TIP3   OH241318   0.943   5.654   9.852 -0.1090 -0.4877 -0.3848
 5708TIP3    H141319   0.891   5.723   9.812  0.1555 -0.3421 -0.4818
 5708TIP3    H241320   0.906   5.572   9.818 -0.5669 -0.4061 -0.0959
 5709TIP3   OH241321   5.832   5.200  11.361  0.5014 -0.1472  0.2961
 5709TIP3    H141322   5.785   5.254  11.425 -0.5530  1.7412 -1.9048
 5709TIP3    H241323   5.924   5.226  11.371  0.4067 -0.1190  1.2324
 5710TIP3   OH241324   4.148   5.746  10.193 -0.0163  0.0872 -0.4510
 5710TIP3    H141325   4.062   5.765  10.155 -1.7580 -1.3966  2.3380
 5710TIP3    H241326   4.178   5.830  10.228 -1.4094  0.2598  0.4046
 5711TIP3   OH241327   5.374   4.777  10.364 -0.8667 -0.2060 -0.2436
 5711TIP3    H141328   5.395   4.715  10.295 -0.1003 -3.3647  2.5398
 5711TIP3    H241329   5.457   4.820  10.385 -1.1588  0.9791 -1.3696
 5712TIP3   OH241330   7.253   6.519  10.217  0.1538  0.1848  0.3850
 5712TIP3    H141331   7.303   6.509  10.137 -1.7676  0.9922 -0.9972
 5712TIP3    H241332   7.198   6.596  10.202 -1.1617 -0.3752  1.9585
 5713TIP3   OH241333   4.166   1.697  11.950  0.0598 -0.3472  0.2904
 5713TIP3    H141334   4.174   1.793  11.953 -0.1437 -0.3398  0.5778
 5713TIP3    H241335   4.081   1.681  11.908 -0.1058 -0.3976  0.6437
 5714TIP3   OH241336   2.644   3.923   9.879  1.1904  0.2980 -0.1453
 5714TIP3    H141337   2.622   3.947   9.789  2.7063 -0.3270 -0.7121
 5714TIP3    H241338   2.731   3.884   9.873 -0.1533 -3.2765  0.9872
 5715TIP3   OH241339   6.554   5.527  11.219 -0.1048  0.4302 -0.4951
 5715TIP3    H141340   6.496   5.597  11.192 -0.2043  0.3508 -0.4877
 5715TIP3    H241341   6.628   5.571  11.260 -0.9428  0.4842  1.0382
 5716TIP3   OH241342   1.274   7.520   9.713  0.5220  0.1933  0.3105
 5716TIP3    H141343   1.224   7.539   9.634 -0.8433 -2.2089  0.4747
 5716TIP3    H241344   1.345   7.464   9.683  0.5931  0.1096  0.6310
 5717TIP3   OH241345   2.699   0.453  10.572 -0.4015 -0.0809 -0.0162
 5717TIP3    H141346   2.759   0.506  10.623 -0.7882  0.2064  0.1433
 5717TIP3    H241347   2.716   0.477  10.481 -1.4742  1.2945  0.1142
 5718TIP3   OH241348   0.063   7.383  10.733  0.0415 -0.1461  0.2217
 5718TIP3    H141349   0.039   7.431  10.653  0.5330 -1.4738 -0.7474
 5718TIP3    H241350   0.108   7.449  10.787 -1.1583  1.0257 -0.1491
 5719TIP3   OH241351   6.645   2.821  11.771 -0.1873 -0.0142 -0.6075
 5719TIP3    H141352   6.640   2.766  11.849  0.6875 -0.9826 -1.2086
 5719TIP3    H241353   6.738   2.829  11.753 -0.3013  1.5596 -0.6329
 5720TIP3   OH241354   6.317   5.682  11.885  0.1677 -0.1257 -0.1967
 5720TIP3    H141355   6.369   5.697  11.806 -0.9096 -0.6644 -1.0270
 5720TIP3    H241356   6.377   5.703  11.957  0.4721  2.7464 -1.1421
 5721TIP3   OH241357   4.059   6.521  12.045  0.0347 -0.4563 -0.1765
 5721TIP3    H141358   4.149   6.548  12.027 -0.2868  0.9449  0.2272
 5721TIP3    H241359   4.068   6.445  12.102  0.9802  1.3261  2.2005
 5722TIP3   OH241360   2.132   6.459  12.004 -0.3088 -0.5651  0.5839
 5722TIP3    H141361   2.153   6.454  11.911  2.8854  1.9731  1.0124
 5722TIP3    H241362   2.046   6.502  12.007 -0.2161 -0.2117 -1.1623
 5723TIP3   OH241363   5.394   4.035   9.981  0.5879  0.1997 -0.4614
 5723TIP3    H141364   5.361   4.027  10.071 -3.9649 -0.3865 -1.9236
 5723TIP3    H241365   5.383   4.128   9.960 -2.2969 -0.2482 -1.4843
 5724TIP3   OH241366   4.924   5.747  11.770  0.4313 -0.4159 -0.7082
 5724TIP3    H141367   4.948   5.654  11.774  1.7635 -0.0546  1.7703
 5724TIP3    H241368   4.878   5.763  11.852 -0.6617  0.9226 -1.5607
 5725TIP3   OH241369   1.453   5.455  11.272 -0.3313  0.0506 -0.2769
 5725TIP3    H141370   1.504   5.534  11.290 -0.1795  0.1141 -0.9394
 5725TIP3    H241371   1.456   5.447  11.176 -1.1436 -0.2274 -0.2820
 5726TIP3   OH241372   1.606   6.806   9.895 -0.0203 -0.2142 -0.2880
 5726TIP3    H141373   1.557   6.758   9.962  0.7255 -0.4818  0.0845
 5726TIP3    H241374   1.620   6.742   9.826  0.4624 -0.3688 -0.0527
 5727TIP3   OH241375   4.350   7.332  12.332 -0.5547  0.0092  0.3990
 5727TIP3    H141376   4.431   7.371  12.366 -0.2084  0.9901 -1.4159
 5727TIP3    H241377   4.360   7.239  12.349  0.5412  0.2259  1.0601
 5728TIP3   OH241378   0.549   2.809  12.327 -0.2755 -0.4012 -0.2792
 5728TIP3    H141379   0.600   2.736  12.361 -1.1214 -0.2936  1.2942
 5728TIP3    H241380   0.461   2.773  12.313 -0.6488  0.2405  0.3247
 5729TIP3   OH241381   5.097   4.481  10.833  0.1640 -0.2396  0.4328
 5729TIP3    H141382   5.033   4.411  10.848 -0.0517 -0.0997  0.1595
 5729TIP3    H241383   5.170   4.459  10.892  0.0636 -0.6502  0.4089
 5730TIP3   OH241384   5.271   1.741  10.630  0.1699  0.6208  0.1040
 5730TIP3    H141385   5.220   1.764  10.708  0.5950 -0.7586  0.8172
 5730TIP3    H241386   5.352   1.791  10.639 -0.3631  1.5601 -0.1961
 5731TIP3   OH241387   1.887   6.826  10.045  0.2862 -0.4758  1.0112
 5731TIP3    H141388   1.863   6.907  10.001  0.1320 -0.0912  1.7926
 5731TIP3    H241389   1.828   6.821  10.120  0.1688 -1.4056  0.8647
 5732TIP3   OH241390   7.062   5.277  10.265 -0.3188  0.5022 -0.2689
 5732TIP3    H141391   6.995   5.213  10.289  0.2862 -0.0706 -0.0356
 5732TIP3    H241392   7.119   5.280  10.342 -0.3161  1.2936 -0.3015
 5733TIP3   OH241393   1.273   5.752  11.631  0.0557 -0.1383  0.5437
 5733TIP3    H141394   1.188   5.742  11.673  0.0198  0.4249  0.6181
 5733TIP3    H241395   1.252   5.782  11.542  0.1538 -0.6888  0.3295
 5734TIP3   OH241396   2.319   0.510   9.864 -0.0127 -0.3191  0.4165
 5734TIP3    H141397   2.271   0.592   9.875  1.5978  0.6889  0.3189
 5734TIP3    H241398   2.389   0.515   9.929 -0.4796 -2.1116  1.1213
 5735TIP3   OH241399   3.278   1.938  11.154  0.0450  0.1690  0.6700
 5735TIP3    H141400   3.238   1.878  11.091 -0.6425  0.9177  0.3775
 5735TIP3    H241401   3.206   1.997  11.180  0.3835  0.0397  1.9494
 5736TIP3   OH241402   2.107   2.347  10.906  0.3824  0.4710 -0.4224
 5736TIP3    H141403   2.087   2.254  10.900  0.9068  0.4137 -1.6758
 5736TIP3    H241404   2.162   2.356  10.984 -0.7166 -0.0513  0.4426
 5737TIP3   OH241405   0.855   3.918  10.119 -0.4385  0.0942  0.0752
 5737TIP3    H141406   0.951   3.912  10.113 -0.5619 -0.4444 -1.7418
 5737TIP3    H241407   0.840   3.992  10.178  1.0944  0.0659  0.5521
 5738TIP3   OH241408   5.340   0.676  12.158  0.4833  0.1470 -0.1402
 5738TIP3    H141409   5.253   0.713  12.172  1.0044  1.6936 -0.7788
 5738TIP3    H241410   5.343   0.657  12.064  0.6340 -0.4170 -0.0199
 5739TIP3   OH241411   4.375   4.252  11.134 -0.1558 -0.5648  0.0285
 5739TIP3    H141412   4.318   4.246  11.210  0.9747  0.0415  0.9511
 5739TIP3    H241413   4.343   4.329  11.086 -0.3725 -0.4825  0.3037
 5740TIP3   OH241414   2.567   3.977  11.905 -0.0822 -0.2207  0.2434
 5740TIP3    H141415   2.569   3.908  11.838 -1.2010 -0.9363  0.9120
 5740TIP3    H241416   2.647   4.027  11.890  0.3564 -1.1792 -0.7785
 5741TIP3   OH241417   0.511   4.011  12.248  1.3522  0.0755 -0.2744
 5741TIP3    H141418   0.485   4.099  12.278 -3.1869 -1.4656  1.1715
 5741TIP3    H241419   0.577   3.983  12.311  1.3120  1.6783  0.5438
 5742TIP3   OH241420   3.792   7.204  11.451 -0.1066  0.0081  0.0261
 5742TIP3    H141421   3.850   7.156  11.391 -0.1428  0.3982 -0.3272
 5742TIP3    H241422   3.820   7.177  11.538  0.0751 -0.4223 -0.1616
 5743TIP3   OH241423   6.261   1.559  17.370 -0.1138  0.1270 -0.3756
 5743TIP3    H141424   6.311   1.621  17.316  0.7046 -0.1015  0.0943
 5743TIP3    H241425   6.326   1.494  17.397 -0.5275  0.1665  0.7690
 5744TIP3   OH241426   4.418   3.519  11.934 -0.1454 -0.1988 -0.0181
 5744TIP3    H141427   4.433   3.495  11.843  0.1630  1.8417 -0.5602
 5744TIP3    H241428   4.505   3.519  11.974  0.5157  3.5819 -1.0470
 5745TIP3   OH241429   7.079   0.678  10.562 -0.5468 -0.3299 -0.1574
 5745TIP3    H141430   7.112   0.656  10.649 -2.4160  0.2496  0.7536
 5745TIP3    H241431   7.097   0.601  10.509  1.8013 -0.2179  0.3552
 5746TIP3   OH241432   7.617   7.596  11.786 -0.4644 -0.1660 -0.3645
 5746TIP3    H141433   7.614   7.599  11.882 -0.3139  1.4831 -0.3862
 5746TIP3    H241434   7.652   7.681  11.760 -0.3107 -0.6631 -1.8899
 5747TIP3   OH241435   4.504   7.172  11.679 -0.2511  0.7378  0.0888
 5747TIP3    H141436   4.537   7.082  11.670  1.2449  0.8625  2.9821
 5747TIP3    H241437   4.552   7.222  11.613 -1.8248 -0.6394 -2.2558
 5748TIP3   OH241438   6.001   1.504  10.813 -0.2541  0.4445 -0.0485
 5748TIP3    H141439   5.950   1.424  10.826 -1.7137  1.5247  1.3534
 5748TIP3    H241440   6.009   1.512  10.718  2.2975 -2.7189 -0.2565
 5749TIP3   OH241441   2.190   0.096  11.566  0.2126 -0.7359  0.5666
 5749TIP3    H141442   2.151   0.120  11.482 -0.2646 -1.2643  0.6290
 5749TIP3    H241443   2.279   0.068  11.544  0.3553 -0.1184  0.3421
 5750TIP3   OH241444   1.071   2.448  10.830 -0.4010  0.3943  0.1818
 5750TIP3    H141445   1.145   2.425  10.773 -0.3466 -1.6180  0.9752
 5750TIP3    H241446   1.029   2.522  10.786  1.5589  1.0282 -0.7452
 5751TIP3   OH241447   3.945   1.032  10.187  0.0823  0.0417  0.6748
 5751TIP3    H141448   4.003   0.957  10.192 -0.8218 -0.9512 -1.9673
 5751TIP3    H241449   3.971   1.077  10.106 -1.0900  1.0563  0.8305
 5752TIP3   OH241450   6.855   0.728  10.319 -0.1405  0.1159 -0.3198
 5752TIP3    H141451   6.838   0.735  10.225 -0.1534 -0.7944 -0.3952
 5752TIP3    H241452   6.950   0.719  10.324 -0.0296  1.2185 -0.1635
 5753TIP3   OH241453   2.159   7.498  11.394  0.0029  0.0372 -0.1916
 5753TIP3    H141454   2.151   7.593  11.404  1.3002  0.2135 -0.5664
 5753TIP3    H241455   2.212   7.487  11.315 -0.0258 -0.9955 -0.0838
 5754TIP3   OH241456   0.128   0.123  11.031 -0.0710 -0.9926  0.3288
 5754TIP3    H141457   0.220   0.147  11.028  0.0857 -1.1839  2.2016
 5754TIP3    H241458   0.081   0.206  11.017  0.2682 -1.2727 -3.2610
 5755TIP3   OH241459   2.618   5.686  11.246  0.3080  0.4195  0.3128
 5755TIP3    H141460   2.587   5.680  11.336 -1.7385  0.1634 -0.3512
 5755TIP3    H241461   2.564   5.623  11.198  0.0317  1.8808 -1.4028
 5756TIP3   OH241462   7.213   3.101  11.140  0.6015  0.0711 -0.2863
 5756TIP3    H141463   7.155   3.176  11.134  0.5558  0.0519 -0.0934
 5756TIP3    H241464   7.167   3.039  11.196 -0.6121 -1.2461 -2.5778
 5757TIP3   OH241465   4.471   5.679  12.018  0.3303  0.3946 -0.2292
 5757TIP3    H141466   4.428   5.735  12.083  1.9469  0.6898  0.6293
 5757TIP3    H241467   4.402   5.659  11.955 -0.9490  1.1979  0.8553
 5758TIP3   OH241468   1.817   3.978  10.436 -0.8724 -0.1092  0.0211
 5758TIP3    H141469   1.858   3.952  10.518 -0.7064 -1.2084 -0.3819
 5758TIP3    H241470   1.801   3.895  10.391 -0.3708  0.5060 -1.3348
 5759TIP3   OH241471   1.730   6.873  11.011  0.8067  0.3706  0.3737
 5759TIP3    H141472   1.715   6.957  11.054 -0.6018 -0.2388  1.1369
 5759TIP3    H241473   1.741   6.811  11.083 -2.0429 -0.7508 -0.0643
 5760TIP3   OH241474   2.315   3.410  11.181 -0.5147  0.1711 -0.0175
 5760TIP3    H141475   2.364   3.329  11.163  0.9917  0.8948  0.6607
 5760TIP3    H241476   2.383   3.478  11.188 -1.6676  1.3125  0.4449
 5761TIP3   OH241477   0.218   1.973  12.599  0.0965  0.1300 -0.5243
 5761TIP3    H141478   0.291   2.002  12.654  1.2184 -2.7429 -0.3373
 5761TIP3    H241479   0.140   1.991  12.651  0.6267  2.7862 -0.5065
 5762TIP3   OH241480   7.115   4.270  12.695  0.2212 -0.0620  0.2964
 5762TIP3    H141481   7.131   4.226  12.612 -1.6500 -1.5629  0.6763
 5762TIP3    H241482   7.145   4.209  12.762  1.5461  1.0595  0.7823
 5763TIP3   OH241483   5.700   5.924  11.461 -0.5313 -0.1928 -0.5491
 5763TIP3    H141484   5.671   5.844  11.417 -2.7565  1.3846 -2.1488
 5763TIP3    H241485   5.640   5.933  11.535  0.0689 -0.2555 -0.0449
 5764TIP3   OH241486   2.104   1.566  12.218  0.4721  0.1819 -0.2121
 5764TIP3    H141487   2.024   1.558  12.166  1.6184  0.3289 -2.1234
 5764TIP3    H241488   2.081   1.529  12.303 -0.2249 -5.0556 -2.2452
 5765TIP3   OH241489   6.357   6.712  10.093 -0.4818 -0.3069 -0.2134
 5765TIP3    H141490   6.419   6.646  10.063 -0.0216 -0.0344  0.1196
 5765TIP3    H241491   6.412   6.787  10.117 -0.8596 -0.3632  0.8934
 5766TIP3   OH241492   6.775   3.085  10.412  0.4002 -0.1209  0.1383
 5766TIP3    H141493   6.718   3.133  10.473  1.2000  0.7117  0.2525
 5766TIP3    H241494   6.816   3.018  10.467 -0.8328 -1.0866 -0.0524
 5767TIP3   OH241495   3.218   5.577  10.779 -0.7646 -0.1208  0.0831
 5767TIP3    H141496   3.267   5.538  10.852 -0.5489  0.2712  0.1566
 5767TIP3    H241497   3.275   5.564  10.703 -0.4227  0.5524  0.2128
 5768TIP3   OH241498   0.288   5.670   9.788  0.6248  0.4995 -0.1154
 5768TIP3    H141499   0.199   5.694   9.761 -0.4652 -0.1515  2.5660
 5768TIP3    H241500   0.297   5.579   9.760 -0.3113 -0.0284  1.1964
 5769TIP3   OH241501   5.665   7.325  11.850  0.4195 -0.4470 -0.3331
 5769TIP3    H141502   5.649   7.257  11.915  0.4204  0.2302  0.3864
 5769TIP3    H241503   5.602   7.393  11.871  0.6829 -0.0543 -0.8057
 5770TIP3   OH241504   3.772   7.531  11.464  0.5421  0.1610  0.1884
 5770TIP3    H141505   3.859   7.540  11.425  0.8520 -0.3223  0.7517
 5770TIP3    H241506   3.765   7.439  11.488  0.4152  0.4638  1.3831
 5771TIP3   OH241507   7.276   0.100  10.378 -0.5324  0.1265  0.2882
 5771TIP3    H141508   7.272   0.112  10.283 -0.2197 -0.6900  0.1587
 5771TIP3    H241509   7.362   0.132  10.403 -0.5072  0.0908  0.2498
 5772TIP3   OH241510   0.168   3.629  10.971 -0.5618 -0.1097  0.2264
 5772TIP3    H141511   0.255   3.643  10.933 -1.2445  1.2384 -0.9132
 5772TIP3    H241512   0.123   3.572  10.909 -0.7626 -0.1478  0.4022
 5773TIP3   OH241513   6.083   3.563  11.406 -0.3786  0.4032  0.2756
 5773TIP3    H141514   6.163   3.603  11.439  0.5771  1.3385 -2.8338
 5773TIP3    H241515   6.018   3.634  11.411 -0.3595  0.4044  0.5197
 5774TIP3   OH241516   3.308   6.790  10.330 -0.3990 -0.3592  0.8008
 5774TIP3    H141517   3.229   6.766  10.379 -0.6715  1.2557  1.2139
 5774TIP3    H241518   3.275   6.828  10.249  0.0320 -1.8926 -0.1241
 5775TIP3   OH241519   2.849   1.285  10.203  0.3173 -0.0878 -0.1727
 5775TIP3    H141520   2.872   1.204  10.158  0.4927 -1.4641  2.2096
 5775TIP3    H241521   2.933   1.325  10.225  0.2336  0.6324 -1.1148
 5776TIP3   OH241522   1.798   2.722  11.320 -0.7974 -0.7796  0.0348
 5776TIP3    H141523   1.705   2.721  11.340 -1.2301  2.1270 -1.3665
 5776TIP3    H241524   1.802   2.725  11.225  0.6626  0.2137  0.0889
 5777TIP3   OH241525   7.526   7.244  12.596 -0.2910  0.0146 -0.3169
 5777TIP3    H141526   7.575   7.326  12.601  1.1624 -0.8860  1.1375
 5777TIP3    H241527   7.542   7.212  12.507  1.2237  0.0839 -0.0884
 5778TIP3   OH241528   6.483   6.962  11.262 -0.1976 -0.1620  0.0614
 5778TIP3    H141529   6.578   6.972  11.256 -0.2516 -0.2301 -1.1110
 5778TIP3    H241530   6.448   7.045  11.229 -0.5655  0.7561  2.5226
 5779TIP3   OH241531   5.831   6.933  10.750  0.0900 -0.2747 -0.3228
 5779TIP3    H141532   5.883   6.979  10.684  1.3840  0.3037  1.0487
 5779TIP3    H241533   5.769   6.999  10.782 -0.0044 -0.3236 -0.4053
 5780TIP3   OH241534   6.304   1.290  11.845  0.4648  0.0505  0.3617
 5780TIP3    H141535   6.290   1.378  11.881  2.4478  0.8292 -0.6224
 5780TIP3    H241536   6.360   1.304  11.768  0.1585 -2.0096 -0.2981
 5781TIP3   OH241537   1.439   1.948  11.831 -0.6831 -0.1836  0.4433
 5781TIP3    H141538   1.511   1.890  11.807  1.3959  2.1129  0.6839
 5781TIP3    H241539   1.416   1.993  11.749 -0.4958  0.4707  0.7423
 5782TIP3   OH241540   2.623   1.875  11.560 -0.2014 -0.6324  0.3639
 5782TIP3    H141541   2.674   1.862  11.481 -1.4621 -0.8919 -0.4320
 5782TIP3    H241542   2.688   1.894  11.628  0.8132  1.3101 -1.0556
 5783TIP3   OH241543   0.023   0.180  11.756  0.4362 -0.0580 -0.0496
 5783TIP3    H141544  -0.019   0.263  11.734 -0.3375 -0.9789 -2.3114
 5783TIP3    H241545  -0.011   0.158  11.843 -1.0847  0.8873 -0.3774
 5784TIP3   OH241546   0.397   5.752  12.075 -0.2501  0.0683 -0.1706
 5784TIP3    H141547   0.367   5.799  11.997  1.5574  0.6515 -0.5705
 5784TIP3    H241548   0.443   5.818  12.127 -1.5143 -0.2901  1.4810
 5785TIP3   OH241549   6.117   4.160  12.427  0.0853  0.1160 -0.2055
 5785TIP3    H141550   6.133   4.066  12.416  3.0165  0.6642 -1.4432
 5785TIP3    H241551   6.190   4.192  12.478 -1.5190  1.5975  1.3116
 5786TIP3   OH241552   0.012   2.963   9.710  0.1909 -0.1600 -0.3162
 5786TIP3    H141553   0.039   2.906   9.783 -0.9666 -0.2713  0.0476
 5786TIP3    H241554  -0.082   2.948   9.703  0.3553 -0.4840 -2.1354
 5787TIP3   OH241555   2.300   0.912  11.276  0.0608  0.5102 -0.6024
 5787TIP3    H141556   2.328   0.991  11.230  2.3895  0.0181 -0.1873
 5787TIP3    H241557   2.229   0.942  11.333  1.3458  2.5029  0.0722
 5788TIP3   OH241558   4.372   7.375  11.415 -0.6753 -0.1599  0.0638
 5788TIP3    H141559   4.304   7.325  11.462 -1.1682  0.3774 -0.0649
 5788TIP3    H241560   4.345   7.466  11.425  0.5545  0.1384  0.8336
 5789TIP3   OH241561   0.322   3.954  11.629  0.0506  0.1473  0.7697
 5789TIP3    H141562   0.417   3.963  11.621 -0.0403 -0.4645 -1.4890
 5789TIP3    H241563   0.310   3.904  11.711  1.6275  0.5793  1.3051
 5790TIP3   OH241564   4.129   4.954  11.347  0.4342  0.1037  0.2237
 5790TIP3    H141565   4.058   4.985  11.402 -0.6063 -0.6823 -0.6332
 5790TIP3    H241566   4.186   5.031  11.335 -0.4199  0.8237  0.6829
 5791TIP3   OH241567   7.267   4.234  10.971  0.3097  0.2502  0.4040
 5791TIP3    H141568   7.197   4.232  10.906  0.6733 -1.0192  0.0065
 5791TIP3    H241569   7.225   4.260  11.052 -0.7498 -0.9676  0.2788
 5792TIP3   OH241570   6.039   2.469  10.262  0.0392  0.2805 -0.6807
 5792TIP3    H141571   6.006   2.381  10.244 -1.1945  0.8268 -1.1853
 5792TIP3    H241572   5.993   2.526  10.200  1.2476  1.2196 -0.7716
 5793TIP3   OH241573   4.462   7.397  10.277 -0.7666  0.6240  0.2886
 5793TIP3    H141574   4.524   7.469  10.292 -0.2677  0.1466  0.5288
 5793TIP3    H241575   4.411   7.392  10.357 -0.3744  0.2981  0.5215
 5794TIP3   OH241576   2.544   3.335  11.777 -0.1409  0.3181  0.2433
 5794TIP3    H141577   2.498   3.331  11.861  1.3597  1.4581  1.1720
 5794TIP3    H241578   2.613   3.400  11.790  1.0301 -0.5046 -1.4392
 5795TIP3   OH241579   1.139   5.339  12.121 -0.5095 -0.4032 -0.3785
 5795TIP3    H141580   1.164   5.287  12.045  0.7906 -1.1442  0.5020
 5795TIP3    H241581   1.124   5.427  12.087  4.0263  0.3455 -1.0305
 5796TIP3   OH241582   0.456   6.462  10.595 -0.5292  0.3076 -0.1722
 5796TIP3    H141583   0.539   6.465  10.546  0.4035 -0.2902  1.2883
 5796TIP3    H241584   0.482   6.480  10.686 -1.8234 -1.0567  0.5040
 5797TIP3   OH241585   2.335   6.358  10.506 -0.1624  0.4485  0.2418
 5797TIP3    H141586   2.390   6.342  10.429  0.0185  1.6181  0.1065
 5797TIP3    H241587   2.246   6.340  10.477  0.0838 -1.3053  0.4134
 5798TIP3   OH241588   0.492   0.331  12.236  0.6667 -0.1959  0.0960
 5798TIP3    H141589   0.407   0.289  12.236  0.7406 -0.4486 -2.1110
 5798TIP3    H241590   0.552   0.266  12.272  0.4217 -1.2231 -1.2804
 5799TIP3   OH241591   1.377   4.675  12.054  0.0432 -0.1098  0.2748
 5799TIP3    H141592   1.337   4.595  12.019 -1.7306  0.7418  0.2146
 5799TIP3    H241593   1.320   4.700  12.127  1.4864  0.2448  1.3057
 5800TIP3   OH241594   4.222   1.758  10.439  0.7051 -0.0236 -0.6018
 5800TIP3    H141595   4.211   1.835  10.494 -0.2087  0.8297 -1.9336
 5800TIP3    H241596   4.240   1.687  10.501 -1.5942  0.6179  0.9264
 5801TIP3   OH241597   6.036   0.157  11.398 -0.4969 -0.5596 -0.3259
 5801TIP3    H141598   6.036   0.153  11.494  1.7951 -2.8011 -0.3072
 5801TIP3    H241599   6.117   0.203  11.377 -1.2332  0.3610 -1.2175
 5802TIP3   OH241600   2.362   3.353  10.734  1.0560  0.0628  0.4564
 5802TIP3    H141601   2.269   3.365  10.755  0.8211 -0.2329 -0.3932
 5802TIP3    H241602   2.380   3.420  10.667  1.7447  0.8651  1.4173
 5803TIP3   OH241603   3.459   1.306  12.333  0.1608 -0.0542 -0.1751
 5803TIP3    H141604   3.443   1.397  12.308  2.3797  0.7514  1.0905
 5803TIP3    H241605   3.441   1.303  12.427 -0.1887 -1.0301 -0.2568
 5804TIP3   OH241606   1.045   4.244  11.129 -0.2013 -0.1610  0.2373
 5804TIP3    H141607   1.000   4.233  11.213 -1.8544  1.8201 -0.2874
 5804TIP3    H241608   0.979   4.222  11.063  1.6720 -3.7641 -0.6945
 5805TIP3   OH241609   5.337   1.768  10.331  0.5292  0.3795  0.5550
 5805TIP3    H141610   5.411   1.744  10.386 -0.9499  0.1902  2.5735
 5805TIP3    H241611   5.262   1.770  10.391 -0.8922  1.7951 -1.1554
 5806TIP3   OH241612   7.518   4.154  10.321  0.0133  0.3709 -0.2221
 5806TIP3    H141613   7.585   4.088  10.336 -0.3359 -0.1227 -0.7748
 5806TIP3    H241614   7.436   4.105  10.315 -0.3769  0.9421  0.2292
 5807TIP3   OH241615   6.479   7.315  12.397 -0.0060 -0.2553 -0.5439
 5807TIP3    H141616   6.423   7.383  12.434 -0.4521  1.0556 -3.3867
 5807TIP3    H241617   6.456   7.235  12.445 -2.1375  0.8550  0.3978
 5808TIP3   OH241618   6.970   0.050  12.524  0.3336  0.3591 -0.0532
 5808TIP3    H141619   7.046   0.064  12.467 -0.0449 -0.8433 -0.9076
 5808TIP3    H241620   6.945  -0.041  12.507 -0.7176  0.4481  0.9334
 5809TIP3   OH241621   0.583   7.666  11.166  0.3441  0.6819 -0.4015
 5809TIP3    H141622   0.664   7.705  11.199 -0.3105 -0.1301  2.3923
 5809TIP3    H241623   0.604   7.573  11.155 -0.0693  0.5629 -0.1742
 5810TIP3   OH241624   1.358   5.325  10.375  0.6885  0.5042  0.3686
 5810TIP3    H141625   1.392   5.246  10.415 -0.5289 -0.1404  0.1799
 5810TIP3    H241626   1.318   5.296  10.293  0.2984  1.3167  0.2543
 5811TIP3   OH241627   5.407   5.424  12.304  0.2196 -0.6053  0.1651
 5811TIP3    H141628   5.493   5.464  12.317  0.2065 -0.3612 -0.4451
 5811TIP3    H241629   5.422   5.331  12.316  0.3071 -0.4532  1.3466
 5812TIP3   OH241630   6.868   6.843  10.654  0.1632 -0.5481  0.2847
 5812TIP3    H141631   6.908   6.891  10.581  0.2641 -1.1710 -0.0807
 5812TIP3    H241632   6.836   6.762  10.614 -0.3823 -0.5977  0.8066
 5813TIP3   OH241633   3.473   0.846  11.553  0.5249 -0.0174  0.2600
 5813TIP3    H141634   3.564   0.874  11.547  0.8363 -0.5152  1.9382
 5813TIP3    H241635   3.448   0.825  11.463  3.0132 -2.6688  0.0169
 5814TIP3   OH241636   1.009   6.945  11.054  0.6051  0.1217  0.3214
 5814TIP3    H141637   0.983   6.976  10.967 -2.3015  1.5147  1.5481
 5814TIP3    H241638   1.095   6.984  11.068  0.3164  1.4320 -1.2102
 5815TIP3   OH241639   0.317   2.963  11.223  0.2353  0.2763  0.0288
 5815TIP3    H141640   0.335   3.015  11.301  1.0121 -2.9533  2.1936
 5815TIP3    H241641   0.222   2.957  11.219  0.1959 -1.0839  1.9342
 5816TIP3   OH241642   2.742   4.720  11.480 -0.3251 -0.0009 -0.1698
 5816TIP3    H141643   2.677   4.780  11.517 -0.0821 -0.8165  1.7130
 5816TIP3    H241644   2.821   4.736  11.532 -0.0801 -1.5158 -0.0361
 5817TIP3   OH241645   7.415   3.027  11.418 -0.4713  0.2159  0.5024
 5817TIP3    H141646   7.398   3.119  11.396  2.4235  0.7319  0.0007
 5817TIP3    H241647   7.489   3.003  11.362  0.6699 -1.5327  2.6133
 5818TIP3   OH241648   4.162   1.531  11.693  0.0295 -0.2366  0.0329
 5818TIP3    H141649   4.107   1.526  11.616 -1.2729 -0.0546  0.9205
 5818TIP3    H241650   4.128   1.462  11.751  1.8811 -1.3285 -0.0907
 5819TIP3   OH241651   1.741   6.977  11.874 -0.0195  0.7254  0.2906
 5819TIP3    H141652   1.727   6.934  11.790 -0.4626 -0.0571  0.7515
 5819TIP3    H241653   1.786   7.058  11.853 -1.3024  1.1755 -0.8329
 5820TIP3   OH241654   2.867   3.361  12.105 -0.2323  0.0238 -0.0241
 5820TIP3    H141655   2.812   3.296  12.148 -0.9154  1.6390  1.6570
 5820TIP3    H241656   2.933   3.383  12.170  0.5295  0.3882 -0.8979
 5821TIP3   OH241657   6.580   0.714  10.367  0.4117 -0.0446 -0.6356
 5821TIP3    H141658   6.676   0.720  10.369  0.4961 -1.1970  0.3812
 5821TIP3    H241659   6.557   0.733  10.276  1.7395 -1.1884 -1.2642
 5822TIP3   OH241660   5.520   7.594  10.205 -0.3105 -0.1489  0.0686
 5822TIP3    H141661   5.518   7.502  10.178  0.9709 -0.2970  0.4160
 5822TIP3    H241662   5.505   7.643  10.125  1.2608 -0.6276 -0.5446
 5823TIP3   OH241663   3.333   5.175  10.229 -0.5390  0.1654 -0.0837
 5823TIP3    H141664   3.305   5.153  10.318 -1.1737  1.0670 -0.0457
 5823TIP3    H241665   3.424   5.204  10.240 -1.1877  2.0931  0.5902
 5824TIP3   OH241666   5.422   5.697  11.075  0.1979  0.6310 -0.6179
 5824TIP3    H141667   5.442   5.609  11.045  2.1402  0.7050  0.2807
 5824TIP3    H241668   5.423   5.750  10.995  0.3062  0.0457 -1.0094
 5825TIP3   OH241669   6.074   6.937  10.133 -0.4029 -0.4919  0.8047
 5825TIP3    H141670   6.131   6.879  10.083  0.9172  0.9471  0.5403
 5825TIP3    H241671   5.987   6.897  10.128 -0.1740 -0.8326 -1.9829
 5826TIP3   OH241672   4.212   2.549  10.501  0.3104  0.3588 -0.4600
 5826TIP3    H141673   4.151   2.622  10.488  1.8090  1.4078 -2.0187
 5826TIP3    H241674   4.220   2.509  10.415  1.3267 -0.1562 -0.1398
 5827TIP3   OH241675   6.599   1.247  10.550  0.5798  0.0332  0.2717
 5827TIP3    H141676   6.631   1.156  10.553  0.7342  0.0968  0.7880
 5827TIP3    H241677   6.612   1.274  10.459  0.5810 -0.4455  0.1243
 5828TIP3   OH241678   2.448   0.689  10.695 -0.3811  0.5256 -0.2129
 5828TIP3    H141679   2.460   0.673  10.601 -0.3245 -0.6990 -0.0122
 5828TIP3    H241680   2.468   0.782  10.706  0.3275  0.5249 -1.2966
 5829TIP3   OH241681   6.438   1.681  10.580  0.5923 -0.2826  0.8736
 5829TIP3    H141682   6.475   1.764  10.551 -0.1725 -0.2178  0.0019
 5829TIP3    H241683   6.482   1.615  10.525  0.8369 -0.4012  1.2126
 5830TIP3   OH241684   4.184   4.764  10.386  0.0261 -0.0450  0.2634
 5830TIP3    H141685   4.098   4.729  10.362 -0.4013  0.3170  1.2148
 5830TIP3    H241686   4.184   4.853  10.352 -0.8369  0.6963  2.0739
 5831TIP3   OH241687   2.220   6.671  12.596  0.1593 -0.0511 -0.3809
 5831TIP3    H141688   2.144   6.697  12.648 -0.5119 -0.1678 -1.2735
 5831TIP3    H241689   2.292   6.725  12.630  0.1051 -1.1245  1.6103
 5832TIP3   OH241690   1.275   1.715   9.850 -0.0055  0.5168 -0.6631
 5832TIP3    H141691   1.336   1.751   9.785 -1.3092  1.3358 -1.4976
 5832TIP3    H241692   1.268   1.784   9.916 -1.3924  1.2500 -1.5198
 5833TIP3   OH241693   1.506   3.035  12.606 -0.3926 -0.3383 -0.2036
 5833TIP3    H141694   1.445   3.103  12.575 -0.3779 -0.7146 -1.0854
 5833TIP3    H241695   1.449   2.965  12.638 -0.4194  0.4355  1.5903
 5834TIP3   OH241696   7.022   6.825  10.279  0.3691  0.1009  0.4185
 5834TIP3    H141697   7.019   6.768  10.356  0.4802  1.2703  1.3213
 5834TIP3    H241698   7.096   6.884  10.296  2.2321 -1.3859 -1.8999
 5835TIP3   OH241699   2.439   2.389  12.430  0.2530  0.6281  0.4318
 5835TIP3    H141700   2.503   2.329  12.467 -0.1010 -0.4249 -0.6068
 5835TIP3    H241701   2.354   2.351  12.452 -0.0139 -1.2545 -3.1463
 5836TIP3   OH241702   3.810   6.351  10.214 -0.2141  0.2886 -0.4893
 5836TIP3    H141703   3.791   6.443  10.231  1.3709  0.6915 -0.7898
 5836TIP3    H241704   3.727   6.316  10.180 -1.5182  1.0129  1.7294
 5837TIP3   OH241705   0.504   4.952  11.363 -0.4711 -0.4044  0.3195
 5837TIP3    H141706   0.504   4.873  11.310  1.8971 -0.5808  0.4846
 5837TIP3    H241707   0.542   5.019  11.307 -0.8389  0.1946  0.7688
 5838TIP3   OH241708   3.020   2.918  12.441  0.1365  0.4655  0.1306
 5838TIP3    H141709   3.072   2.852  12.487  1.6059  1.9310  0.6823
 5838TIP3    H241710   2.988   2.872  12.363  1.0475 -0.9151  0.5134
 5839TIP3   OH241711   7.300   5.797  10.709  0.1894  0.7627 -0.2069
 5839TIP3    H141712   7.246   5.877  10.707 -1.4391 -0.2930 -0.1726
 5839TIP3    H241713   7.325   5.789  10.801 -0.3381  0.8059 -0.0512
 5840TIP3   OH241714   5.536   6.808  12.093 -0.0322 -0.8255 -0.0309
 5840TIP3    H141715   5.550   6.902  12.076  0.1149 -0.8730 -0.1778
 5840TIP3    H241716   5.512   6.804  12.185  0.0531 -0.6517  0.0002
 5841TIP3   OH241717   4.655   6.136   9.673 -0.2932  0.0392 -0.1920
 5841TIP3    H141718   4.725   6.132   9.737 -0.0847 -1.0371 -0.4762
 5841TIP3    H241719   4.574   6.126   9.724 -0.1005 -1.3932 -0.1458
 5842TIP3   OH241720   0.200   2.756  11.912  0.2181  0.1817  0.3286
 5842TIP3    H141721   0.239   2.736  11.828  1.3590  0.9747  0.6449
 5842TIP3    H241722   0.106   2.760  11.895  0.3796 -0.3481 -0.7482
 5843TIP3   OH241723   0.461   2.155  11.649  0.2333  0.0369  0.1773
 5843TIP3    H141724   0.424   2.067  11.650 -1.1300  0.5820 -0.3067
 5843TIP3    H241725   0.544   2.145  11.604 -0.1912 -0.8964 -0.4429
 5844TIP3   OH241726   3.804   7.339  11.732 -0.2142  0.6678  0.5288
 5844TIP3    H141727   3.824   7.257  11.778  0.7522  0.8079  0.3746
 5844TIP3    H241728   3.870   7.400  11.763 -0.3371  1.1200 -0.1003
 5845TIP3   OH241729   4.400   4.240  10.832  0.5363 -0.1494 -0.0127
 5845TIP3    H141730   4.416   4.146  10.843 -0.0085 -0.3016 -0.4927
 5845TIP3    H241731   4.364   4.248  10.743  0.5159  0.5037  0.0514
 5846TIP3   OH241732   5.439   6.875  10.752  0.2594 -0.8436  0.4568
 5846TIP3    H141733   5.396   6.945  10.704 -0.0335  0.1727  2.1100
 5846TIP3    H241734   5.516   6.853  10.699 -0.3684 -0.2279 -0.7540
 5847TIP3   OH241735   1.630   7.036  10.357 -0.1764  0.1056 -0.2394
 5847TIP3    H141736   1.635   6.942  10.339 -2.8064 -0.0264 -0.6618
 5847TIP3    H241737   1.712   7.072  10.324  1.0413 -2.0648  0.2719
 5848TIP3   OH241738   1.843   4.569  10.782 -1.0502 -0.2169 -0.6161
 5848TIP3    H141739   1.913   4.610  10.731 -0.1138 -0.1776  0.6693
 5848TIP3    H241740   1.785   4.641  10.806 -0.3585  0.1004  0.1414
 5849TIP3   OH241741   5.359   7.368  11.447  0.0554 -0.4459 -0.2314
 5849TIP3    H141742   5.421   7.298  11.466  1.3504  0.4015 -1.1832
 5849TIP3    H241743   5.315   7.340  11.366  1.1173  0.1607 -1.0388
 5850TIP3   OH241744   5.906   7.105  11.470 -0.4062  0.0817 -0.0817
 5850TIP3    H141745   5.896   7.021  11.516 -0.0158 -0.3640 -0.7981
 5850TIP3    H241746   5.903   7.082  11.377 -1.9435  1.0658 -0.3131
 5851TIP3   OH241747   3.544   6.657  10.846 -0.5151  0.1343 -0.2942
 5851TIP3    H141748   3.458   6.637  10.883  0.0535 -0.0084  0.9986
 5851TIP3    H241749   3.604   6.649  10.920  0.5109  0.9718 -1.0126
 5852TIP3   OH241750   3.336   5.051  12.303 -0.4706 -0.0704 -0.0399
 5852TIP3    H141751   3.351   5.024  12.394 -1.1167  1.2527  0.4786
 5852TIP3    H241752   3.255   5.101  12.305 -2.8430 -3.4077 -2.0507
 5853TIP3   OH241753   5.091   3.163  10.088 -0.3334 -0.4132 -0.4686
 5853TIP3    H141754   5.046   3.209  10.159 -1.3798 -0.0061 -1.3598
 5853TIP3    H241755   5.060   3.072  10.095  1.1069 -0.8510  0.7902
 5854TIP3   OH241756   1.979   2.427  10.180  0.1950  0.2350  0.2596
 5854TIP3    H141757   1.888   2.400  10.167 -0.1462  1.1899  0.5830
 5854TIP3    H241758   1.993   2.496  10.115  0.6718  0.1246  0.2436
 5855TIP3   OH241759   3.110   1.343  10.376  0.3243 -0.8378 -0.1029
 5855TIP3    H141760   3.163   1.412  10.336 -0.8118  0.0146 -0.2020
 5855TIP3    H241761   3.171   1.272  10.393  1.4612  0.0554 -0.3397
 5856TIP3   OH241762   5.811   7.337  11.628 -0.3187 -0.3971 -0.5472
 5856TIP3    H141763   5.755   7.333  11.705  0.6893  0.0519  0.2223
 5856TIP3    H241764   5.844   7.247  11.617 -1.3286 -0.7086 -1.1239
 5857TIP3   OH241765   3.971   4.897  10.940  0.2287 -0.3039  0.2345
 5857TIP3    H141766   3.988   4.870  11.030 -0.6235  1.0413  0.8374
 5857TIP3    H241767   3.918   4.826  10.903 -0.9608 -0.0715  1.3894
 5858TIP3   OH241768   3.933   2.584  11.449 -0.3937 -0.2184  0.0353
 5858TIP3    H141769   3.903   2.556  11.363 -1.6838  0.0164  0.3888
 5858TIP3    H241770   3.885   2.529  11.511 -0.3934  0.4278  0.6280
 5859TIP3   OH241771   3.416   2.012   9.864 -0.0500 -0.1521 -0.2324
 5859TIP3    H141772   3.431   2.079   9.931 -1.1829 -1.1419  1.0758
 5859TIP3    H241773   3.351   2.051   9.806 -0.2997  0.1142  0.2147
 5860TIP3   OH241774   7.333   4.514  11.708  0.5503 -0.3081 -0.2570
 5860TIP3    H141775   7.376   4.455  11.647 -1.0050  0.4082 -2.1644
 5860TIP3    H241776   7.387   4.593  11.706  0.3863 -0.2052 -0.9107
 5861TIP3   OH241777   1.112   4.097  11.796  0.2774 -0.2510  0.2264
 5861TIP3    H141778   1.193   4.147  11.799 -0.4593  1.1797 -1.3447
 5861TIP3    H241779   1.112   4.058  11.708 -1.5432  1.3556 -0.5672
 5862TIP3   OH241780   2.501   6.543  11.958  0.5973 -0.1039  0.0509
 5862TIP3    H141781   2.440   6.606  11.920  2.2147  1.3278 -0.2295
 5862TIP3    H241782   2.460   6.519  12.042 -1.0570 -0.3120 -0.7768
 5863TIP3   OH241783   5.404   1.415  11.924  0.1532 -0.1120  0.3194
 5863TIP3    H141784   5.480   1.365  11.955 -0.3467 -1.8554 -1.1041
 5863TIP3    H241785   5.331   1.386  11.979 -0.0813 -0.7476 -0.3191
 5864TIP3   OH241786   4.398   2.417  11.884 -0.1690  0.4149  0.3723
 5864TIP3    H141787   4.450   2.340  11.908  0.2723  0.6425  0.1520
 5864TIP3    H241788   4.321   2.412  11.940 -0.8880 -1.0149 -0.6713
 5865TIP3   OH241789   0.475   5.332  10.261  0.4935  0.2920  0.3236
 5865TIP3    H141790   0.470   5.304  10.352  1.2213 -0.0752  0.2554
 5865TIP3    H241791   0.554   5.291  10.227 -0.0696 -0.0355 -0.6404
 5866TIP3   OH241792   1.279   6.247  11.187  0.0022  0.0354 -0.1922
 5866TIP3    H141793   1.288   6.190  11.263  0.9026  2.0469  1.2986
 5866TIP3    H241794   1.368   6.259  11.155 -0.3139 -0.3627 -1.2414
 5867TIP3   OH241795   0.561   6.713  11.504  0.3361  0.3556  0.4363
 5867TIP3    H141796   0.598   6.783  11.558  0.1949 -0.0897  1.1255
 5867TIP3    H241797   0.546   6.754  11.418 -0.3589  1.3641  1.0074
 5868TIP3   OH241798   6.030   7.239  12.796 -0.1308  0.3373 -0.2501
 5868TIP3    H141799   5.984   7.307  12.746 -0.0547 -0.4625 -1.4665
 5868TIP3    H241800   6.122   7.261  12.788 -0.0208 -0.5120 -1.6342
 5869TIP3   OH241801   7.051   7.320  11.881  0.6735 -0.0128  0.0270
 5869TIP3    H141802   7.058   7.294  11.973  0.7044  1.5146  0.4907
 5869TIP3    H241803   7.100   7.402  11.876 -1.0373  1.0147 -0.8718
 5870TIP3   OH241804   4.624   7.098  11.275 -0.3619  0.0313  0.1647
 5870TIP3    H141805   4.628   7.128  11.365  0.7329 -0.0276  0.1514
 5870TIP3    H241806   4.696   7.144  11.231  1.0209 -2.1075  0.0217
 5871TIP3   OH241807   5.892   4.635  10.150 -0.3409 -0.1083  0.0524
 5871TIP3    H141808   5.946   4.605  10.077  0.5902 -0.3097  0.8024
 5871TIP3    H241809   5.919   4.579  10.224  0.9962  2.1070  1.3501
 5872TIP3   OH241810   4.803   2.526  10.744 -0.3826 -0.2138 -0.2688
 5872TIP3    H141811   4.847   2.471  10.679  0.1292 -0.2884  0.1325
 5872TIP3    H241812   4.785   2.608  10.697  1.2653  0.2789 -0.1321
 5873TIP3   OH241813   4.875   5.762  11.318  0.0468 -0.7218 -0.1178
 5873TIP3    H141814   4.895   5.669  11.308 -1.9844 -1.2501  0.1375
 5873TIP3    H241815   4.779   5.766  11.314  0.0302  1.2371  0.8534
 5874TIP3   OH241816   1.646   1.119  11.567  0.6105  0.3832 -0.6614
 5874TIP3    H141817   1.719   1.056  11.571 -0.8028 -1.2723  1.7308
 5874TIP3    H241818   1.571   1.071  11.602 -0.9831  2.8908 -0.3703
 5875TIP3   OH241819   0.804   0.877  11.886 -0.1291 -0.2608  0.2351
 5875TIP3    H141820   0.741   0.808  11.866  0.0087 -0.7184  1.2632
 5875TIP3    H241821   0.751   0.954  11.905 -0.3120 -0.2560 -0.2881
 5876TIP3   OH241822   1.456   1.868  11.191 -0.6872  0.6130  0.0465
 5876TIP3    H141823   1.422   1.830  11.272  0.9758 -1.3019 -0.0792
 5876TIP3    H241824   1.406   1.825  11.121 -1.3295  1.4102  0.0080
 5877TIP3   OH241825   5.901   5.312  10.226  0.2109  0.1260  0.1223
 5877TIP3    H141826   5.873   5.236  10.277 -0.2443  1.1063  1.4146
 5877TIP3    H241827   5.965   5.356  10.282  1.1711  0.2131 -1.0054
 5878TIP3   OH241828   0.719   0.223  11.598 -0.3601  0.3321  0.0293
 5878TIP3    H141829   0.662   0.286  11.642  0.7889  1.3722  0.0823
 5878TIP3    H241830   0.757   0.171  11.669 -1.6700 -0.7791 -0.0434
 5879TIP3   OH241831   7.358   2.364  10.997 -0.3345  0.0813  0.6699
 5879TIP3    H141832   7.353   2.456  10.970 -0.0453 -0.6559 -2.1834
 5879TIP3    H241833   7.451   2.350  11.018 -0.1465  0.1405 -0.1121
 5880TIP3   OH241834   5.773   1.975  10.650 -0.7217  0.1637  0.1693
 5880TIP3    H141835   5.807   1.888  10.628 -0.6726  0.8171 -2.8021
 5880TIP3    H241836   5.680   1.962  10.666 -0.4439 -0.6246  1.1985
 5881TIP3   OH241837   5.603   0.190  10.917 -1.3681  0.0438  0.0302
 5881TIP3    H141838   5.662   0.192  10.842 -0.6239  0.3827  0.6040
 5881TIP3    H241839   5.528   0.138  10.888  0.1122 -2.1745 -0.0805
 5882TIP3   OH241840   6.393   2.811  10.136 -0.0413  0.6279  0.3227
 5882TIP3    H141841   6.480   2.851  10.128  0.7645 -0.6423  2.1370
 5882TIP3    H241842   6.394   2.767  10.221 -1.8939 -0.8055 -0.3258
 5883TIP3   OH241843   1.998   5.224  12.670 -0.4889  0.0470 -1.0418
 5883TIP3    H141844   2.060   5.289  12.638  0.8426 -1.3291 -1.3453
 5883TIP3    H241845   2.052   5.154  12.707 -1.8524 -1.1985 -1.2826
 5884TIP3   OH241846   2.790   3.677  10.606 -0.4762  0.0024 -0.2777
 5884TIP3    H141847   2.886   3.680  10.613 -0.3988 -0.2927 -1.0951
 5884TIP3    H241848   2.768   3.753  10.553 -0.6578 -0.1770 -0.4596
 5885TIP3   OH241849   2.968   5.419  10.163  0.4706  0.2823 -0.7954
 5885TIP3    H141850   3.019   5.361  10.106 -0.5506 -1.3059 -0.1462
 5885TIP3    H241851   3.013   5.415  10.247  0.8846  1.1268 -0.9695
 5886TIP3   OH241852   6.389   6.612  12.225  0.4533  0.2942  0.8648
 5886TIP3    H141853   6.326   6.542  12.214 -0.2904  0.7038  2.3031
 5886TIP3    H241854   6.347   6.674  12.284  2.8781 -0.3644  3.5462
 5887TIP3   OH241855   4.472   4.348  11.467 -0.3745 -0.2450 -0.4584
 5887TIP3    H141856   4.500   4.274  11.521 -1.9979 -1.0723 -0.6661
 5887TIP3    H241857   4.536   4.353  11.397  0.1093 -1.0714 -0.0877
 5888TIP3   OH241858   6.619   7.247  10.791 -0.4338  0.6331 -0.1183
 5888TIP3    H141859   6.661   7.327  10.760 -2.0213  0.7755 -2.1274
 5888TIP3    H241860   6.569   7.274  10.868 -0.6249  1.4938 -0.5353
 5889TIP3   OH241861   2.359   2.169  10.222 -0.1796 -0.0866 -0.3651
 5889TIP3    H141862   2.281   2.195  10.172 -0.0310 -0.4458 -0.7839
 5889TIP3    H241863   2.402   2.104  10.168  0.7252  0.5213 -0.4054
 5890TIP3   OH241864   4.897   5.477  12.176  0.0278  0.0715 -0.2872
 5890TIP3    H141865   4.890   5.419  12.100  0.2173 -0.9561  0.4582
 5890TIP3    H241866   4.991   5.491  12.187 -0.0060  0.3273 -0.3189
 5891TIP3   OH241867   0.246   2.917  10.965 -0.0520  0.1588 -0.1028
 5891TIP3    H141868   0.229   2.827  10.991 -0.3583  0.3484  0.3546
 5891TIP3    H241869   0.323   2.943  11.017  1.3359 -0.5032 -1.7332
 5892TIP3   OH241870   2.393   6.329  11.367  0.5378 -0.1308  0.0671
 5892TIP3    H141871   2.326   6.376  11.417  0.8217  0.3965 -0.0304
 5892TIP3    H241872   2.467   6.391  11.363  1.1232 -0.7954  0.3931
 5893TIP3   OH241873   2.420   7.123   9.900  0.0748  0.3658  0.3415
 5893TIP3    H141874   2.473   7.046   9.878  0.0126  0.5537 -0.4633
 5893TIP3    H241875   2.330   7.097   9.878  0.1135  0.8407 -0.3872
 5894TIP3   OH241876   3.705   4.856  11.037 -0.3071 -0.5038  0.0641
 5894TIP3    H141877   3.694   4.950  11.021  2.3002 -0.1691 -0.0861
 5894TIP3    H241878   3.752   4.851  11.120  0.8027 -1.6114 -0.6019
 5895TIP3   OH241879   6.239   5.062  10.257  0.3054 -0.3248  0.5349
 5895TIP3    H141880   6.163   5.008  10.238  1.2195 -1.4269 -0.1185
 5895TIP3    H241881   6.301   5.002  10.299  1.2888  0.2445 -0.0658
 5896TIP3   OH241882   7.251   4.810  11.222 -0.7914 -0.1568  0.0411
 5896TIP3    H141883   7.169   4.847  11.188 -0.2008 -0.0682 -1.3160
 5896TIP3    H241884   7.299   4.782  11.145  0.6652  0.1992  0.7926
 5897TIP3   OH241885   4.222   1.853   9.949  0.3062 -0.2234  0.4658
 5897TIP3    H141886   4.163   1.906  10.003 -1.0044 -1.8690  0.7606
 5897TIP3    H241887   4.248   1.911   9.878 -1.0866  0.8047  0.7442
 5898TIP3   OH241888   4.630   6.423  10.684 -0.1258 -0.1984 -0.4329
 5898TIP3    H141889   4.615   6.329  10.693 -1.4349 -0.2607 -2.5335
 5898TIP3    H241890   4.544   6.459  10.663  0.2585  1.5736  0.9182
 5899TIP3   OH241891   3.803   4.587  10.522  0.1075 -0.1061  0.6634
 5899TIP3    H141892   3.759   4.516  10.568  1.5580 -1.4440  0.0643
 5899TIP3    H241893   3.872   4.544  10.471 -2.0420  1.0615 -3.7332
 5900TIP3   OH241894   5.196   5.550  12.177 -0.0167 -0.4187  0.2748
 5900TIP3    H141895   5.255   5.556  12.102 -0.0463 -0.8960  0.2129
 5900TIP3    H241896   5.235   5.482  12.232  0.5455  0.6001  1.1712
 5901TIP3   OH241897   6.316   4.932  11.677  0.0994  0.4734 -0.0774
 5901TIP3    H141898   6.245   4.922  11.741 -0.6188  1.1547 -0.7424
 5901TIP3    H241899   6.395   4.939  11.729 -0.3456 -0.1071  0.6908
 5902TIP3   OH241900   1.716   6.842  12.462 -0.0193 -0.1378 -0.0951
 5902TIP3    H141901   1.649   6.805  12.520  0.2250 -0.2367  0.1213
 5902TIP3    H241902   1.736   6.928  12.499 -0.0069 -0.1185 -0.1451
 5903TIP3   OH241903   1.564   2.876  10.129 -0.3402 -0.0154  0.0871
 5903TIP3    H141904   1.568   2.874  10.225 -1.0592  0.8818  0.1477
 5903TIP3    H241905   1.511   2.953  10.109 -0.8070 -0.6058 -1.0178
 5904TIP3   OH241906   0.262   0.986  11.097 -0.2778 -0.3173 -0.0046
 5904TIP3    H141907   0.343   0.938  11.118  0.4488  0.4571 -0.9274
 5904TIP3    H241908   0.255   1.052  11.165 -0.9231 -1.2816  0.8917
 5905TIP3   OH241909   2.323   5.607  12.640  0.2779  0.3558 -0.1657
 5905TIP3    H141910   2.416   5.598  12.622  0.2074 -1.6671  0.2420
 5905TIP3    H241911   2.294   5.676  12.581  1.3400 -1.4844 -3.0881
 5906TIP3   OH241912   0.984   1.593  11.847 -0.1036  0.2771 -0.4596
 5906TIP3    H141913   1.002   1.672  11.796  1.3624  1.4542  1.7063
 5906TIP3    H241914   0.971   1.625  11.936 -1.7176 -1.7603  0.1187
 5907TIP3   OH241915   0.569   7.174  11.101  0.0874  0.2708 -0.3038
 5907TIP3    H141916   0.584   7.261  11.140  1.3896 -0.5899  1.2513
 5907TIP3    H241917   0.655   7.149  11.067 -0.2416 -0.4578 -0.6108
 5908TIP3   OH241918   2.476   4.344  11.713  0.1355  0.3718  0.1416
 5908TIP3    H141919   2.451   4.289  11.786  0.8815 -0.4924 -0.2344
 5908TIP3    H241920   2.430   4.427  11.728 -0.1019  0.0416  1.3172
 5909TIP3   OH241921   6.309   2.945  11.369 -0.1216  0.1998  0.2119
 5909TIP3    H141922   6.278   2.960  11.459  0.8904  0.1545  0.5718
 5909TIP3    H241923   6.237   2.978  11.314 -1.2274 -0.7517  1.0217
 5910TIP3   OH241924   4.727   6.313  12.516 -0.2411 -0.3736 -0.5786
 5910TIP3    H141925   4.781   6.235  12.516  1.6830  0.8548 -2.2639
 5910TIP3    H241926   4.756   6.364  12.592  1.4800  0.5238 -1.7630
 5911TIP3   OH241927   1.228   7.620  11.444 -0.3356  0.0928 -0.4133
 5911TIP3    H141928   1.218   7.653  11.355 -1.3581  0.3880 -0.2044
 5911TIP3    H241929   1.323   7.612  11.456 -0.1761  0.2970 -1.4313
 5912TIP3   OH241930   5.061   4.828  11.870 -1.3909 -0.0055 -0.1249
 5912TIP3    H141931   5.138   4.881  11.848  0.0083 -1.5450  0.8105
 5912TIP3    H241932   5.024   4.870  11.948 -1.3802  0.6425 -0.4702
 5913TIP3   OH241933   6.996   6.054  11.241  0.2400 -0.2877 -0.3380
 5913TIP3    H141934   7.038   6.062  11.326 -0.0796  1.7502 -0.3045
 5913TIP3    H241935   7.026   5.970  11.206 -0.6595 -1.8050  2.2966
 5914TIP3   OH241936   7.232   0.410  11.787 -0.0651 -0.7448  0.0095
 5914TIP3    H141937   7.189   0.490  11.817  1.7912 -0.7904  3.1908
 5914TIP3    H241938   7.188   0.339  11.834  0.6753 -1.2042  0.0399
 5915TIP3   OH241939   3.114   7.277  10.672 -0.6099  0.2653 -0.0925
 5915TIP3    H141940   3.145   7.208  10.612  1.1813  0.6134  0.3643
 5915TIP3    H241941   3.194   7.312  10.711 -1.4520  2.7351 -0.4130
 5916TIP3   OH241942   4.691   5.468  10.222  0.4869 -0.4080 -0.7327
 5916TIP3    H141943   4.656   5.462  10.133 -0.3405  1.4413 -0.5749
 5916TIP3    H241944   4.619   5.438  10.278  1.3433 -2.5647 -0.6645
 5917TIP3   OH241945   5.188   1.453  10.256  0.0702  0.4070 -0.1091
 5917TIP3    H141946   5.165   1.527  10.200  1.9106  1.0641 -0.0652
 5917TIP3    H241947   5.284   1.449  10.252  0.1642 -0.4570  1.8075
 5918TIP3   OH241948   2.179   3.175   9.886  0.1438  0.5072  0.0342
 5918TIP3    H141949   2.087   3.181   9.914  0.0855 -1.3482  0.4027
 5918TIP3    H241950   2.226   3.234   9.944 -1.0119  2.9983 -1.4146
 5919TIP3   OH241951   2.790   2.167  11.855  0.4160  0.3824  0.5072
 5919TIP3    H141952   2.722   2.120  11.904  0.4125 -2.3642 -1.8853
 5919TIP3    H241953   2.871   2.122  11.876  1.1817  2.0585  1.3750
 5920TIP3   OH241954   5.204   5.558   9.958 -0.1795 -0.3140  0.5589
 5920TIP3    H141955   5.289   5.573   9.916  0.0857  1.7095  1.6822
 5920TIP3    H241956   5.140   5.580   9.891  0.2340  2.8782  1.0439
 5921TIP3   OH241957   3.956   0.271  11.403 -0.0884 -0.1879 -0.5601
 5921TIP3    H141958   3.923   0.359  11.385  0.0317 -0.5201 -2.5755
 5921TIP3    H241959   3.885   0.213  11.375  0.1469 -0.7727  0.0191
 5922TIP3   OH241960   3.342   5.702  10.063  0.5765  0.1687 -0.2585
 5922TIP3    H141961   3.300   5.659   9.989  0.6413 -0.3721  0.0167
 5922TIP3    H241962   3.373   5.631  10.119 -0.5145  0.5609  0.8904
 5923TIP3   OH241963   4.885   7.524  11.319  0.1299  0.9551 -0.3003
 5923TIP3    H141964   4.799   7.565  11.317 -0.4108 -0.1712 -0.4703
 5923TIP3    H241965   4.894   7.481  11.234  0.6089  0.5488 -0.0515
 5924TIP3   OH241966   0.835   4.899  11.692  0.1167 -0.1780  0.7842
 5924TIP3    H141967   0.812   4.828  11.752  0.2386  0.7195  1.9445
 5924TIP3    H241968   0.807   4.979  11.738 -1.1519  0.4870 -0.9878
 5925TIP3   OH241969   2.341   7.663  12.728  0.3122 -0.7452  0.3236
 5925TIP3    H141970   2.423   7.618  12.708 -0.5155 -2.0200 -0.3541
 5925TIP3    H241971   2.305   7.616  12.803  0.5085  0.2580  1.0823
 5926TIP3   OH241972   2.237   6.686  12.323  0.1397 -0.0219 -0.5574
 5926TIP3    H141973   2.179   6.757  12.297 -0.2602 -0.2434 -0.2703
 5926TIP3    H241974   2.238   6.688  12.418  1.0734  0.3519 -0.5622
 5927TIP3   OH241975   3.889   2.736  10.335 -0.3310 -0.0841 -0.1078
 5927TIP3    H141976   3.799   2.728  10.368 -0.9873  1.0766 -1.5298
 5927TIP3    H241977   3.908   2.649  10.300 -0.9297 -0.3194  0.1228
 5928TIP3   OH241978   2.430   1.264  11.567  0.4886  0.4857  0.6958
 5928TIP3    H141979   2.349   1.314  11.562 -0.2162 -0.4229  2.4499
 5928TIP3    H241980   2.472   1.293  11.648  2.3703  1.5262 -0.5583
 5929TIP3   OH241981   5.292   5.550  11.751  0.5878  0.0379 -0.7005
 5929TIP3    H141982   5.328   5.581  11.834 -0.2111 -1.4092  0.2206
 5929TIP3    H241983   5.336   5.467  11.735 -2.2997 -1.9046  0.5782
 5930TIP3   OH241984   3.356   2.910  10.107 -0.4130 -0.2124  0.4398
 5930TIP3    H141985   3.355   2.833  10.164  0.3510  0.3247  1.2148
 5930TIP3    H241986   3.300   2.974  10.152  0.2794  0.2524  0.6594
 5931TIP3   OH241987   5.312   5.475  10.691 -0.1788  0.4738  0.0649
 5931TIP3    H141988   5.287   5.397  10.740  1.9171 -0.8061 -0.7417
 5931TIP3    H241989   5.264   5.469  10.609 -1.2183  0.8904  0.6316
 5932TIP3   OH241990   1.980   4.185  10.371 -0.7100 -0.5933  0.0777
 5932TIP3    H141991   1.899   4.136  10.354 -1.5979  0.8583 -0.0603
 5932TIP3    H241992   2.040   4.120  10.406 -3.2678 -1.0288  4.3838
 5933TIP3   OH241993   1.886   3.206   9.967 -0.0225  0.5277  0.5318
 5933TIP3    H141994   1.874   3.138  10.033 -0.9715  0.6542  0.5013
 5933TIP3    H241995   1.813   3.194   9.906  0.7910  0.4656 -0.4550
 5934TIP3   OH241996   2.543   7.044  10.411  0.9101 -0.1643 -0.1793
 5934TIP3    H141997   2.569   7.091  10.490 -0.8863  1.0458 -0.2419
 5934TIP3    H241998   2.569   7.102  10.339 -2.2239  1.4023 -0.2253
 5935TIP3   OH241999   6.418   4.378  10.812 -0.1568  0.6200  0.1032
 5935TIP3    H142000   6.495   4.422  10.776 -0.4875 -1.2982 -3.4226
 5935TIP3    H242001   6.450   4.291  10.837 -0.7426  0.6200  0.8938
 5936TIP3   OH242002   3.632   2.713  10.403 -0.1210 -0.3891  0.1456
 5936TIP3    H142003   3.555   2.718  10.345 -0.1256 -1.7500 -0.0132
 5936TIP3    H242004   3.607   2.648  10.469  1.3761 -1.9571 -0.7256
 5937TIP3   OH242005   3.195   3.054  10.292 -0.0647  0.0084 -0.4362
 5937TIP3    H142006   3.134   3.058  10.365 -0.6394 -1.4043 -0.8103
 5937TIP3    H242007   3.140   3.043  10.215  0.6010  0.1446 -0.9442
 5938TIP3   OH242008   6.623   5.917  12.249 -0.1051 -0.0480  0.4970
 5938TIP3    H142009   6.665   5.914  12.335  0.2670  0.8836  0.3539
 5938TIP3    H242010   6.687   5.960  12.192 -0.4503 -0.4206 -0.1968
 5939TIP3   OH242011   3.844   0.042  11.655  0.4077  0.5262 -0.1249
 5939TIP3    H142012   3.834   0.009  11.566  1.1715 -1.4619  0.4617
 5939TIP3    H242013   3.892  -0.028  11.701 -1.2899  0.8041  2.2416
 5940TIP3   OH242014   4.518   2.991  11.764  0.1596  0.2668 -0.1904
 5940TIP3    H142015   4.570   2.912  11.744 -0.3890 -0.2440  0.3588
 5940TIP3    H242016   4.472   3.011  11.683  0.8538  0.4501 -0.5467
 5941TIP3   OH242017   6.528   4.033  10.055 -0.3925 -0.0527  1.1387
 5941TIP3    H142018   6.588   3.999   9.989 -0.9649  2.7593 -1.0677
 5941TIP3    H242019   6.481   3.956  10.088 -1.0007 -1.5790 -2.7368
 5942TIP3   OH242020   3.037   6.760  10.834  0.1953  0.2809  0.1882
 5942TIP3    H142021   2.954   6.713  10.844 -0.0212  0.5819 -0.1536
 5942TIP3    H242022   3.030   6.803  10.749  0.8011  0.1214  0.0517
 5943TIP3   OH242023   6.637   1.687  11.697  0.0150 -0.1315  0.4937
 5943TIP3    H142024   6.702   1.639  11.748 -0.9161 -2.0043  0.0375
 5943TIP3    H242025   6.576   1.722  11.762 -0.3974 -1.3247  0.7837
 5944TIP3   OH242026   1.425   5.586  12.013  0.3818  0.0599  0.2943
 5944TIP3    H142027   1.462   5.603  12.100  1.2699  1.2967 -0.3005
 5944TIP3    H242028   1.345   5.640  12.010  0.5268  0.2701  0.2215
 5945TIP3   OH242029   6.664   2.360  10.049 -0.0845 -0.0574  0.1128
 5945TIP3    H142030   6.570   2.372  10.035 -0.1727 -0.6593  0.1443
 5945TIP3    H242031   6.705   2.420   9.986 -0.4796  0.9523  0.7874
 5946TIP3   OH242032   6.642   2.005  11.909 -0.2494  0.3141  0.0144
 5946TIP3    H142033   6.562   2.055  11.922  0.9484  1.8132  2.3917
 5946TIP3    H242034   6.615   1.914  11.916 -1.7252  0.7972  1.0695
 5947TIP3   OH242035   4.030   3.061  10.044 -0.4800 -0.1934 -0.3028
 5947TIP3    H142036   4.120   3.046  10.073 -0.1255 -0.2075 -1.3654
 5947TIP3    H242037   3.997   2.974  10.022  0.0137  0.0027 -2.0144
 5948TIP3   OH242038   0.024   3.836  11.196  0.2098  0.3910  0.3813
 5948TIP3    H142039   0.051   3.746  11.177  1.5350  0.9589 -0.5661
 5948TIP3    H242040  -0.048   3.826  11.258 -0.2844 -1.3468 -0.3970
 5949TIP3   OH242041   4.136   6.796  10.547  0.0942 -0.1139 -0.1635
 5949TIP3    H142042   4.195   6.777  10.474  1.3950  0.0283  0.8277
 5949TIP3    H242043   4.051   6.811  10.505  0.3868 -1.8407 -1.4879
 5950TIP3   OH242044   5.422   1.552  11.146  0.2146 -0.3645  0.0748
 5950TIP3    H142045   5.479   1.629  11.153 -0.5949  0.0738  3.0226
 5950TIP3    H242046   5.481   1.478  11.160  0.6538 -0.1778 -0.7084
 5951TIP3   OH242047   3.797   3.708  10.198  0.0473  0.3077  0.0076
 5951TIP3    H142048   3.891   3.729  10.196 -0.0372  0.5951 -1.8693
 5951TIP3    H242049   3.794   3.614  10.181 -0.0352  0.4573 -0.8422
 5952TIP3   OH242050   6.720   6.048  10.590 -0.8028 -0.6312 -0.1024
 5952TIP3    H142051   6.809   6.080  10.581 -1.2021 -0.0290 -2.5482
 5952TIP3    H242052   6.730   5.958  10.622  0.7530 -0.9339 -1.3157
 5953TIP3   OH242053   1.497   0.101  11.089 -0.5074 -0.2475  0.3092
 5953TIP3    H142054   1.494   0.107  10.993  1.3703 -2.3003  0.0428
 5953TIP3    H242055   1.553   0.174  11.115  1.3505 -1.3211 -0.4760
 5954TIP3   OH242056   0.031   0.562  11.425 -0.0200  0.0767 -0.0769
 5954TIP3    H142057  -0.012   0.490  11.377  0.2052  0.4571 -0.8734
 5954TIP3    H242058  -0.040   0.603  11.474 -0.3057 -0.1907 -0.2571
 5955TIP3   OH242059   4.637   4.149  11.079 -0.0384 -0.0327 -0.2908
 5955TIP3    H142060   4.548   4.184  11.076 -0.8773 -1.9162  1.0077
 5955TIP3    H242061   4.627   4.054  11.071  1.7314 -0.3931  1.0521
 5956TIP3   OH242062   3.445   1.555  19.043  0.5008  0.3567 -0.1527
 5956TIP3    H142063   3.389   1.477  19.048 -0.3566  0.9091 -0.9175
 5956TIP3    H242064   3.534   1.520  19.046  0.1287 -0.6782 -0.6920
 5957TIP3   OH242065   4.915   6.882   9.828 -0.2440 -0.2980  0.0486
 5957TIP3    H142066   4.983   6.839   9.776 -1.1443 -0.9517 -0.6190
 5957TIP3    H242067   4.835   6.834   9.807 -1.7423  2.7918 -2.2214
 5958TIP3   OH242068   5.144   3.455  12.582  0.2173 -0.0001  0.7725
 5958TIP3    H142069   5.179   3.367  12.567  0.0699 -0.0353  0.6317
 5958TIP3    H242070   5.051   3.448  12.560  0.2233  0.2122  0.6738
 5959TIP3   OH242071   1.122   7.590  10.731  0.3123 -0.2624  0.7581
 5959TIP3    H142072   1.195   7.530  10.720 -0.7458 -1.4920  0.0527
 5959TIP3    H242073   1.154   7.675  10.699  0.5097 -1.4588 -2.5984
 5960TIP3   OH242074   6.511   5.919  10.051 -0.2666  0.1167  0.0165
 5960TIP3    H142075   6.471   5.986  10.106 -1.4905  0.1049 -0.8141
 5960TIP3    H242076   6.459   5.920   9.971  0.3746 -1.0796 -0.4423
 5961TIP3   OH242077   5.036   6.455  11.871 -0.3130 -0.3538 -0.6156
 5961TIP3    H142078   5.052   6.406  11.790 -0.0902  1.8265 -1.9682
 5961TIP3    H242079   5.116   6.446  11.921 -0.4272 -1.6729 -0.6467
 5962TIP3   OH242080   2.676   0.512  10.302  0.6200 -0.0315  0.2874
 5962TIP3    H142081   2.658   0.587  10.247  0.7611 -0.5134 -0.4314
 5962TIP3    H242082   2.727   0.453  10.246 -0.0898 -0.9675  0.6022
 5963TIP3   OH242083   3.122   4.056  10.040 -0.0518  0.2724 -0.5251
 5963TIP3    H142084   3.163   4.107  10.110 -0.6434 -0.0482  0.0714
 5963TIP3    H242085   3.042   4.105  10.018  0.3804  0.6287 -1.3232
 5964TIP3   OH242086   2.797   2.183  11.581 -0.2797  0.4026  0.2420
 5964TIP3    H142087   2.790   2.169  11.675  0.6382 -1.4932  0.0781
 5964TIP3    H242088   2.887   2.157  11.560 -0.6436  0.2534 -1.2406
 5965TIP3   OH242089   5.683   2.346  11.366  0.0745 -0.1460 -0.2547
 5965TIP3    H142090   5.704   2.439  11.367  0.3094 -0.1780  1.2829
 5965TIP3    H242091   5.764   2.303  11.392 -1.1230 -0.3889  3.8616
 5966TIP3   OH242092   6.853   2.419  10.622  0.1565  0.6249  0.0602
 5966TIP3    H142093   6.938   2.412  10.667  1.2997 -0.1106 -2.0614
 5966TIP3    H242094   6.856   2.504  10.578  0.5003 -0.0465 -1.2753
 5967TIP3   OH242095   3.365   3.561  10.949 -0.0530 -0.6323 -0.1819
 5967TIP3    H142096   3.443   3.539  10.898  0.0290 -1.0070  0.0967
 5967TIP3    H242097   3.393   3.554  11.040 -0.0640  0.5251 -0.0717
 5968TIP3   OH242098   3.016   2.051  11.969  0.0019 -0.1425 -0.5081
 5968TIP3    H142099   3.057   1.977  11.924  1.4040  1.1397 -1.4658
 5968TIP3    H242100   2.959   2.011  12.034 -1.0044 -2.0729 -2.4577
 5969TIP3   OH242101   5.842   5.252  10.802 -0.2989  0.3937 -0.7134
 5969TIP3    H142102   5.842   5.285  10.892 -0.2662  2.1866 -1.3424
 5969TIP3    H242103   5.891   5.169  10.808 -0.8600  0.1333  1.0076
 5970TIP3   OH242104   7.625   3.836  10.752  0.0004 -0.5101  0.1704
 5970TIP3    H142105   7.603   3.918  10.709  0.8892 -1.1687 -1.6585
 5970TIP3    H242106   7.591   3.845  10.841 -1.2023  1.2484 -0.4192
 5971TIP3   OH242107   0.370   3.353  10.137 -0.1711  0.3346 -0.4671
 5971TIP3    H142108   0.329   3.432  10.101 -2.1367 -0.5663 -0.3377
 5971TIP3    H242109   0.451   3.343  10.086  0.5017  2.7734 -0.0084
 5972TIP3   OH242110   2.285   1.005  11.628  0.2808 -0.0357  0.0273
 5972TIP3    H142111   2.276   1.076  11.565 -2.2136 -0.7332 -0.5235
 5972TIP3    H242112   2.224   1.027  11.698  1.2483 -0.4607  1.0302
 5973TIP3   OH242113   7.506   3.520  11.622 -0.4389  0.5735  0.3586
 5973TIP3    H142114   7.573   3.472  11.573 -1.1051  0.3917 -0.3789
 5973TIP3    H242115   7.471   3.584  11.560 -1.9778 -0.3159  0.2674
 5974TIP3   OH242116   0.810   5.676  11.948  0.1707 -0.4490  0.0093
 5974TIP3    H142117   0.758   5.624  12.010  0.6736 -0.8056  0.1391
 5974TIP3    H242118   0.900   5.664  11.977  0.3285  0.1722 -0.2111
 5975TIP3   OH242119   5.824   7.175  10.589 -0.1010 -0.9134  0.1642
 5975TIP3    H142120   5.771   7.253  10.573  0.2055 -0.8109 -0.3829
 5975TIP3    H242121   5.914   7.206  10.579  0.2246 -0.5387  3.3067
 5976TIP3   OH242122   6.434   1.082  10.331 -0.3711  0.2438 -0.6011
 5976TIP3    H142123   6.482   1.027  10.393 -0.9139  0.4494  0.0220
 5976TIP3    H242124   6.479   1.071  10.248  0.5943  0.2349 -0.0891
 5977TIP3   OH242125   2.048   4.390  10.180  0.2666 -0.0433 -0.2729
 5977TIP3    H142126   2.031   4.477  10.217  2.5576  0.4949 -0.3053
 5977TIP3    H242127   2.014   4.329  10.245 -2.2097  0.8090 -0.6628
 5978TIP3   OH242128   1.484   0.903  12.709 -0.3758 -0.2225 -0.3492
 5978TIP3    H142129   1.457   0.892  12.618  0.1400 -0.5817 -0.4602
 5978TIP3    H242130   1.437   0.834  12.756 -0.3796 -0.2507 -0.3950
 5979TIP3   OH242131   0.361   1.182  12.323  0.2981  0.2908  0.1306
 5979TIP3    H142132   0.299   1.109  12.326  2.1984 -1.3671  0.6756
 5979TIP3    H242133   0.429   1.154  12.262  0.3922  2.2324 -0.7456
 5980TIP3   OH242134   0.347   4.181  11.935 -0.1059  0.5148 -0.1835
 5980TIP3    H142135   0.435   4.211  11.911  0.3068 -0.8494 -0.4704
 5980TIP3    H242136   0.356   4.086  11.944 -1.4725  0.3994  0.1707
 5981TIP3   OH242137   4.032   4.415  10.396 -0.0219  0.2033 -0.3932
 5981TIP3    H142138   4.106   4.388  10.342  0.3754 -1.4324  0.9027
 5981TIP3    H242139   3.982   4.335  10.411 -1.8694  1.1978 -0.9130
 5982TIP3   OH242140   3.915   1.104  11.235  0.2130 -0.0781  0.1619
 5982TIP3    H142141   3.864   1.121  11.314  0.2589  0.3702  0.0984
 5982TIP3    H242142   4.005   1.129  11.258  0.2777 -0.2172  0.0610
 5983TIP3   OH242143   0.183   7.075  12.207  0.4918 -0.8482 -0.0989
 5983TIP3    H142144   0.251   7.142  12.211 -0.9812  0.6844  1.2544
 5983TIP3    H242145   0.227   6.995  12.235  1.6900  0.1659  1.0858
 5984TIP3   OH242146   5.927   1.617  11.975  0.5609 -0.3521 -0.8020
 5984TIP3    H142147   5.995   1.682  11.989 -0.3739  0.5372 -0.2108
 5984TIP3    H242148   5.890   1.603  12.062 -1.6848  1.0956 -1.4483
 5985TIP3   OH242149   0.472   4.056  10.803  0.1937 -0.0442  0.2892
 5985TIP3    H142150   0.547   4.096  10.760  3.3482 -2.3207  3.0628
 5985TIP3    H242151   0.404   4.123  10.800  3.0406  3.1269 -0.4766
 5986TIP3   OH242152   1.204   6.182  10.919  0.5739  0.2776  0.4334
 5986TIP3    H142153   1.211   6.274  10.893 -1.1906  0.0700 -0.9930
 5986TIP3    H242154   1.255   6.176  11.000  2.7339  1.9397 -0.7082
 5987TIP3   OH242155   1.099   0.930  11.313 -0.1986  0.3994  0.1326
 5987TIP3    H142156   1.056   1.009  11.281 -0.9266  0.0970  0.3528
 5987TIP3    H242157   1.037   0.860  11.296  0.8306 -0.2903 -0.9434
 5988TIP3   OH242158   6.162   4.765  10.007  0.4496 -0.4687 -0.5155
 5988TIP3    H142159   6.171   4.828  10.078  0.9719 -0.6221 -0.4376
 5988TIP3    H242160   6.243   4.773   9.957 -0.1097 -0.0283 -1.3772
 5989TIP3   OH242161   5.231   6.196  12.342 -0.1903 -0.1326  0.0237
 5989TIP3    H142162   5.282   6.252  12.400 -1.6776  1.6650 -0.3306
 5989TIP3    H242163   5.200   6.125  12.399  1.9070 -0.7974  0.4231
 5990TIP3   OH242164   3.378   3.174  11.026 -0.2626  0.2998 -0.2492
 5990TIP3    H142165   3.292   3.134  11.042  0.1063  0.5178  2.7256
 5990TIP3    H242166   3.405   3.138  10.941 -1.5957 -2.8457  0.5091
 5991TIP3   OH242167   4.578   5.131  11.275  1.0603  0.5352 -0.3336
 5991TIP3    H142168   4.660   5.088  11.247  2.0977  0.6241  2.3053
 5991TIP3    H242169   4.601   5.174  11.357 -1.6753  0.5516  0.4888
 5992TIP3   OH242170   1.951   5.440  12.381  0.0557 -0.1440 -0.2117
 5992TIP3    H142171   1.954   5.425  12.476 -1.4951 -0.5531 -0.2065
 5992TIP3    H242172   2.041   5.464  12.358  0.2691  0.8959  1.5042
 5993TIP3   OH242173   1.697   7.268  11.759  0.1443  0.5284  0.5058
 5993TIP3    H142174   1.771   7.328  11.764  0.2764  0.4117  0.0573
 5993TIP3    H242175   1.666   7.258  11.849 -1.3528  3.1162  0.3726
 5994TIP3   OH242176   6.026   6.186  10.954 -0.6391 -0.1844 -0.7180
 5994TIP3    H142177   6.053   6.167  10.864 -0.4780  0.0626 -0.7223
 5994TIP3    H242178   5.969   6.263  10.946  1.3308  1.3965 -0.3570
 5995TIP3   OH242179   1.928   1.631  12.471  0.2975  0.2852  0.0059
 5995TIP3    H142180   1.945   1.538  12.453 -0.2238  0.0273  0.7655
 5995TIP3    H242181   1.844   1.630  12.517  1.1464  0.9763  1.6243
 5996TIP3   OH242182   3.258   7.475  10.910 -0.0507  0.3889  0.4576
 5996TIP3    H142183   3.204   7.437  10.979  0.8462 -2.8340 -0.4243
 5996TIP3    H242184   3.340   7.426  10.915  0.0569  0.0412 -2.7931
 5997TIP3   OH242185   0.725   5.832   9.782 -0.1828 -0.6195  0.1123
 5997TIP3    H142186   0.747   5.890   9.709  0.1989 -1.8401 -0.7718
 5997TIP3    H242187   0.703   5.892   9.853 -1.7432  0.6341 -1.3179
 5998TIP3   OH242188   1.411   2.391  10.996 -0.1234  0.4333 -0.4966
 5998TIP3    H142189   1.398   2.335  11.073 -0.1778  1.8519  0.5683
 5998TIP3    H242190   1.424   2.330  10.924  0.8911 -0.9479  0.8000
 5999TIP3   OH242191   7.562   7.200  10.891  0.2329  0.0287 -0.3213
 5999TIP3    H142192   7.567   7.118  10.940 -0.0545 -0.0837 -0.4779
 5999TIP3    H242193   7.624   7.189  10.819  2.3288  1.0492  1.2473
 6000TIP3   OH242194   4.216   4.664  10.671  0.3457 -0.3824  0.3521
 6000TIP3    H142195   4.244   4.752  10.645  1.4831 -1.0907 -0.9367
 6000TIP3    H242196   4.264   4.605  10.612 -0.4749 -1.8652  1.1169
 6001TIP3   OH242197   3.804   4.367  10.195  0.2833 -0.0225 -0.7045
 6001TIP3    H142198   3.895   4.336  10.202  1.4760  2.4294 -3.5582
 6001TIP3    H242199   3.768   4.319  10.121 -0.2461  0.1339 -0.5498
 6002TIP3   OH242200   7.570   0.289  11.307 -0.0372  0.0112 -0.2659
 6002TIP3    H142201   7.494   0.249  11.264 -2.4801  0.8217  2.8383
 6002TIP3    H242202   7.601   0.222  11.368 -0.4975  0.7977  0.8763
 6003TIP3   OH242203   1.105   2.183  10.010  0.0090 -0.8877  0.2000
 6003TIP3    H142204   1.139   2.167  10.099 -0.6217 -0.9266  0.4394
 6003TIP3    H242205   1.010   2.175  10.019 -0.0162 -1.7583 -0.6521
 6004TIP3   OH242206   2.800   3.466  12.397 -0.2885 -0.0708  0.2067
 6004TIP3    H142207   2.886   3.497  12.366 -0.3125  0.5488  0.7394
 6004TIP3    H242208   2.819   3.382  12.438  0.0248 -0.0530  0.1076
 6005TIP3   OH242209   1.096   6.699  12.288  0.1710  0.4142 -0.6323
 6005TIP3    H142210   1.039   6.767  12.323 -0.1101  0.3725 -1.0064
 6005TIP3    H242211   1.091   6.709  12.193  0.4681  0.1505 -0.6787
 6006TIP3   OH242212   0.699   2.688  11.408 -0.0920  0.4921 -0.0321
 6006TIP3    H142213   0.638   2.761  11.396  0.5591  1.1469  0.5850
 6006TIP3    H242214   0.697   2.669  11.502  1.0161  0.8499  0.0749
 6007TIP3   OH242215   2.464   2.746  10.181 -0.6249  0.4320 -0.1710
 6007TIP3    H142216   2.466   2.717  10.272 -0.2584  0.0676 -0.2918
 6007TIP3    H242217   2.556   2.745  10.153 -0.7902 -0.0691 -0.7264
 6008TIP3   OH242218   6.339   7.455  11.203  0.1739  0.6701  0.7452
 6008TIP3    H142219   6.355   7.394  11.274 -0.9181 -0.1340  0.3209
 6008TIP3    H242220   6.260   7.503  11.229 -1.0718 -0.6047 -0.5150
 6009TIP3   OH242221   7.025   5.560   9.954 -0.5527  0.4318  0.2203
 6009TIP3    H142222   7.116   5.560   9.926 -0.7541  1.6379 -0.5389
 6009TIP3    H242223   7.029   5.558  10.050  0.2576  0.2510  0.1886
 6010TIP3   OH242224   5.185   3.369  10.611 -0.2885 -0.0292  0.0844
 6010TIP3    H142225   5.118   3.436  10.626  1.0255  1.5008 -0.6210
 6010TIP3    H242226   5.159   3.328  10.529 -2.1442 -1.7644  1.4511
 6011TIP3   OH242227   0.649   5.400  10.600 -0.0423  0.5345 -0.2852
 6011TIP3    H142228   0.574   5.341  10.596  0.8517 -0.6411 -0.7013
 6011TIP3    H242229   0.693   5.388  10.516  1.5681 -0.1624  0.6010
 6012TIP3   OH242230   5.376   0.955   9.979 -0.5543  0.4708  1.0382
 6012TIP3    H142231   5.297   0.903   9.996 -0.6009 -0.0690 -0.6764
 6012TIP3    H242232   5.343   1.038   9.944 -0.4011 -0.7071 -2.2092
 6013TIP3   OH242233   4.263   7.424  10.086  0.1073 -0.0517 -0.2236
 6013TIP3    H142234   4.332   7.442  10.151 -0.5846  0.1451  0.4773
 6013TIP3    H242235   4.210   7.356  10.127 -1.2460  1.1629  0.1045
 6014TIP3   OH242236   5.046   4.208  12.332  0.0203  0.1693  0.1365
 6014TIP3    H142237   5.066   4.288  12.283 -0.1316  0.9288  1.2753
 6014TIP3    H242238   4.987   4.237  12.402  0.0303 -0.9313  0.6176
 6015TIP3   OH242239   4.894   4.974  10.651 -0.2030  0.1640 -0.4766
 6015TIP3    H142240   4.933   5.059  10.633  1.0245 -0.5538 -1.3935
 6015TIP3    H242241   4.918   4.954  10.741  0.4429  0.3168 -0.6099
 6016TIP3   OH242242   0.910   4.300  10.700 -0.1041  0.1295 -0.3391
 6016TIP3    H142243   0.961   4.256  10.632 -0.6322 -0.1283 -0.5822
 6016TIP3    H242244   0.942   4.390  10.701  0.0448  0.0813 -0.7949
 6017TIP3   OH242245   4.943   6.267   9.722  0.0919  0.2118  0.2257
 6017TIP3    H142246   4.903   6.215   9.791 -2.1857 -0.7574 -1.6793
 6017TIP3    H242247   5.013   6.211   9.687  0.2282  0.0792  0.7000
 6018TIP3   OH242248   4.288   6.300  11.490 -0.1750  0.1757 -0.3572
 6018TIP3    H142249   4.286   6.207  11.466  2.2696 -0.0477  0.0028
 6018TIP3    H242250   4.261   6.302  11.582  0.3166 -0.2623 -0.1991
 6019TIP3   OH242251   6.049   5.858  11.072 -0.0276 -0.2405  0.5986
 6019TIP3    H142252   6.019   5.907  11.148  0.6248 -0.5212  1.0371
 6019TIP3    H242253   6.139   5.886  11.059 -0.1198 -0.2229 -0.0494
 6020TIP3   OH242254   7.014   2.141  10.829  0.5024 -0.4809 -0.1387
 6020TIP3    H142255   7.097   2.100  10.856  0.1975 -1.0521 -0.0508
 6020TIP3    H242256   7.039   2.229  10.801  1.0330 -0.3516  0.6801
 6021TIP3   OH242257   4.215   3.473  12.111 -0.0091  0.1049  0.6287
 6021TIP3    H142258   4.237   3.392  12.157  0.1798  0.2402  0.7769
 6021TIP3    H242259   4.293   3.491  12.058  0.5362  0.9645  1.6826
 6022TIP3   OH242260   1.231   3.266  11.584  0.4339 -0.4213 -0.1666
 6022TIP3    H142261   1.194   3.341  11.537 -1.1080  0.7746  2.6769
 6022TIP3    H242262   1.206   3.190  11.532 -2.6114  0.6994 -0.5519
 6023TIP3   OH242263   7.185   6.022  10.566  0.5887  0.1322 -0.2002
 6023TIP3    H142264   7.246   6.091  10.542 -0.1821  1.1078  0.5927
 6023TIP3    H242265   7.101   6.050  10.531 -0.3655  1.0977  2.5825
 6024TIP3   OH242266   5.065   0.082  12.556 -0.0922 -0.0896  0.3097
 6024TIP3    H142267   5.096   0.152  12.613 -0.7165  1.5274 -1.2431
 6024TIP3    H242268   5.144   0.033  12.534  1.2112  2.7444 -1.9681
 6025TIP3   OH242269   3.682   7.066  12.283  0.2632  0.2956 -0.3824
 6025TIP3    H142270   3.611   7.063  12.348  0.3146  0.2710 -0.3274
 6025TIP3    H242271   3.752   7.114  12.326  1.4090 -2.1639  0.6797
 6026TIP3   OH242272   2.651   5.622  10.912  0.0724  0.2913 -0.1333
 6026TIP3    H142273   2.656   5.593  10.821  0.3235 -1.6905  0.4664
 6026TIP3    H242274   2.742   5.620  10.942  0.0273  1.2194  0.1080
 6027TIP3   OH242275   5.684   0.593  10.229 -0.5546  0.2158 -0.0078
 6027TIP3    H142276   5.642   0.532  10.289 -1.4583  0.1058 -0.7352
 6027TIP3    H242277   5.624   0.668  10.224  0.4074  1.0588  0.6638
 6028TIP3   OH242278   3.055   5.146  10.310 -0.1981 -0.6547 -0.0096
 6028TIP3    H142279   3.100   5.115  10.231 -0.8749 -0.1454 -0.6122
 6028TIP3    H242280   2.973   5.097  10.311  0.6563 -2.1184  1.4856
 6029TIP3   OH242281   7.295   6.898  10.126 -0.0515  0.0095  0.2580
 6029TIP3    H142282   7.273   6.922  10.215 -1.4219  0.2761 -0.1326
 6029TIP3    H242283   7.334   6.810  10.133 -3.5990 -1.6718  0.7860
 6030TIP3   OH242284   6.383   3.448  10.454 -0.5464 -0.2955 -0.2430
 6030TIP3    H142285   6.300   3.409  10.428  0.2625 -3.3081  1.2400
 6030TIP3    H242286   6.370   3.472  10.546  0.0142 -0.0756 -0.2147
 6031TIP3   OH242287   1.012   1.642  10.878 -0.3984 -0.2029  0.2225
 6031TIP3    H142288   0.976   1.556  10.854 -0.5364 -0.2895  0.7230
 6031TIP3    H242289   1.096   1.646  10.833 -0.2318 -0.7493  0.4755
 6032TIP3   OH242290   3.551   7.469  11.726  0.1142  0.0432 -0.3495
 6032TIP3    H142291   3.622   7.407  11.708 -1.3278 -1.5979 -0.5659
 6032TIP3    H242292   3.596   7.546  11.763  1.8566 -1.5707  1.1137
 6033TIP3   OH242293   5.656   0.345  11.131  0.3504 -0.1415  0.6250
 6033TIP3    H142294   5.626   0.296  11.054 -0.6936 -1.7044  1.9479
 6033TIP3    H242295   5.730   0.295  11.165  2.2145  1.7002 -0.4985
 6034TIP3   OH242296   2.753   2.422   9.677  0.3498  0.4242  0.1016
 6034TIP3    H142297   2.743   2.328   9.664  1.6199  0.3730 -0.6552
 6034TIP3    H242298   2.847   2.435   9.690  0.2318  1.6215 -0.0849
 6035TIP3   OH242299   2.030   6.347  10.489 -0.0931  0.3471 -0.0086
 6035TIP3    H142300   1.951   6.351  10.543 -0.9953  2.1482 -1.3449
 6035TIP3    H242301   2.004   6.388  10.406  2.6367  2.4731  0.0307
 6036TIP3   OH242302   6.968   5.812  11.511 -0.2187  0.2863 -0.0319
 6036TIP3    H142303   6.991   5.797  11.419 -1.2566  0.5380 -0.3514
 6036TIP3    H242304   6.923   5.897  11.510 -0.7399  0.0250  0.6198
 6037TIP3   OH242305   4.605   0.759  12.637 -0.0656  0.1096  0.0711
 6037TIP3    H142306   4.623   0.665  12.637  0.7284  0.2592 -0.1755
 6037TIP3    H242307   4.538   0.770  12.570  0.0936 -0.2331 -0.1469
 6038TIP3   OH242308   0.130   3.397  11.861 -0.2272 -0.0898 -0.0765
 6038TIP3    H142309   0.102   3.327  11.919  0.7594  1.1302  1.9864
 6038TIP3    H242310   0.093   3.477  11.900  2.0611  0.9894  0.0337
 6039TIP3   OH242311   7.447   3.775  10.320 -0.5359  0.0425  0.4018
 6039TIP3    H142312   7.504   3.699  10.337  0.6005  1.1057  1.5429
 6039TIP3    H242313   7.427   3.810  10.407 -0.9919  1.0945 -0.1146
 6040TIP3   OH242314   5.809   7.647  10.198 -0.2465  0.3710 -0.5615
 6040TIP3    H142315   5.877   7.581  10.180  0.1226  0.7349 -0.5006
 6040TIP3    H242316   5.729   7.595  10.210  0.3114 -0.1938  1.0020
 6041TIP3   OH242317   5.901   6.686  10.675 -0.1733  0.1563  0.4133
 6041TIP3    H142318   5.944   6.713  10.594 -2.4564  0.0005 -0.9433
 6041TIP3    H242319   5.898   6.765  10.729 -0.6066  0.8598 -0.6133
 6042TIP3   OH242320   0.706   0.333  11.232  0.5081 -0.3394  0.2263
 6042TIP3    H142321   0.631   0.391  11.221  0.6737 -0.2638 -0.6162
 6042TIP3    H242322   0.761   0.376  11.297  0.1582 -0.0352  0.3225
 6043TIP3   OH242323   7.266   4.709  10.683 -0.0337  0.3268  0.3207
 6043TIP3    H142324   7.345   4.737  10.637 -0.8789  0.4352 -1.0972
 6043TIP3    H242325   7.237   4.786  10.731 -0.2429  0.8103 -0.5620
 6044TIP3   OH242326   7.656   1.178  11.679  0.2567 -0.2844  0.0846
 6044TIP3    H142327   7.662   1.203  11.771 -1.2766  0.2927  0.0611
 6044TIP3    H242328   7.676   1.259  11.632  2.3264 -0.8724 -0.1607
 6045TIP3   OH242329   1.208   4.899  11.761 -0.0716 -0.5465  0.2994
 6045TIP3    H142330   1.182   4.879  11.671  0.7429 -1.7921  0.3101
 6045TIP3    H242331   1.165   4.831  11.814  1.6411 -1.5295  0.5110
 6046TIP3   OH242332   3.644   0.438  10.730  0.1515  0.5015 -0.1526
 6046TIP3    H142333   3.716   0.452  10.791  1.3107  0.9309 -1.5401
 6046TIP3    H242334   3.588   0.372  10.772  0.0474  1.8699  2.0196
 6047TIP3   OH242335   2.232   6.956  12.051 -0.5506 -0.3469  0.4772
 6047TIP3    H142336   2.194   6.928  12.135 -2.4416 -0.2190 -0.2929
 6047TIP3    H242337   2.245   6.875  12.003 -1.8129 -0.2774 -0.0274
 6048TIP3   OH242338   1.894   3.880  10.967 -0.4861 -0.0159 -0.4236
 6048TIP3    H142339   1.852   3.965  10.950  1.4861  1.3511  1.1221
 6048TIP3    H242340   1.902   3.876  11.062  2.4538 -0.3419 -0.5988
 6049TIP3   OH242341   1.067   4.235  10.248 -0.0764  0.1271 -0.0344
 6049TIP3    H142342   1.120   4.248  10.326  0.0812  0.7972 -0.2482
 6049TIP3    H242343   1.011   4.312  10.243  0.3967  0.4279 -0.9532
 6050TIP3   OH242344   6.602   5.768  10.308 -0.0312 -0.1081 -0.2934
 6050TIP3    H142345   6.561   5.689  10.272  0.6170 -0.8133  0.4763
 6050TIP3    H242346   6.556   5.783  10.391  0.9713 -0.6921  0.3973
 6051TIP3   OH242347   5.097   7.535  10.558  0.6596  0.3419 -0.0853
 6051TIP3    H142348   5.052   7.539  10.474  1.7878 -0.6782 -0.7836
 6051TIP3    H242349   5.153   7.612  10.559 -0.0873  0.8881  0.1840
 6052TIP3   OH242350   6.528   1.904  10.417 -0.3067 -0.4411  0.4009
 6052TIP3    H142351   6.452   1.920  10.362 -1.0874  1.6315  1.9689
 6052TIP3    H242352   6.544   1.987  10.462  2.7426 -0.8642  0.3266
 6053TIP3   OH242353   4.682   0.848  12.291  0.6764 -0.2770  0.3138
 6053TIP3    H142354   4.752   0.798  12.250  0.1333 -1.0131  0.2582
 6053TIP3    H242355   4.725   0.899  12.360  1.3870 -0.0543 -0.2870
 6054TIP3   OH242356   1.122   4.285  11.473  0.0695  0.2612 -0.1893
 6054TIP3    H142357   1.036   4.251  11.499  0.3851 -0.9777 -0.7072
 6054TIP3    H242358   1.112   4.380  11.477 -2.0578  0.2300 -2.4914
 6055TIP3   OH242359   3.827   4.836  12.538  0.7379  0.3454 -0.1396
 6055TIP3    H142360   3.756   4.900  12.536  0.2370 -0.1287  1.0288
 6055TIP3    H242361   3.800   4.774  12.606  1.1685 -1.1508 -1.2804
 6056TIP3   OH242362   6.498   0.466  10.421 -0.1165 -0.4354 -0.2886
 6056TIP3    H142363   6.510   0.410  10.344 -0.1141 -0.9894  0.1122
 6056TIP3    H242364   6.522   0.554  10.390 -2.0418 -0.2679 -1.4927
 6057TIP3   OH242365   2.611   7.406  10.419  0.3047  0.5815 -0.5068
 6057TIP3    H142366   2.568   7.435  10.500 -0.5708  1.0744 -1.1287
 6057TIP3    H242367   2.541   7.369  10.366  1.0260 -0.5792 -0.6814
 6058TIP3   OH242368   2.025   2.338  10.441  0.2247  0.3258 -0.3176
 6058TIP3    H142369   2.007   2.367  10.351  0.4506 -0.7480 -0.7225
 6058TIP3    H242370   2.022   2.418  10.493 -2.2238  0.6866 -0.9005
 6059TIP3   OH242371   4.072   2.823   9.840 -0.0250  0.1618 -0.2716
 6059TIP3    H142372   4.094   2.910   9.808 -0.2288  0.6642  0.9090
 6059TIP3    H242373   4.115   2.817   9.925 -2.3775  0.2277  0.9926
 6060TIP3   OH242374   6.495   0.523   9.993 -0.1839  0.0037 -0.4673
 6060TIP3    H142375   6.488   0.429   9.975 -1.2336 -0.3275  1.4460
 6060TIP3    H242376   6.420   0.543  10.050 -0.1134  2.0579 -0.9980
 6061TIP3   OH242377   6.887   4.117  12.178 -0.7479 -0.8125 -0.0855
 6061TIP3    H142378   6.817   4.182  12.185 -1.0317 -1.0405 -0.7450
 6061TIP3    H242379   6.854   4.042  12.228 -0.9893 -0.9343 -0.4290
 6062TIP3   OH242380   2.801   3.077  12.163 -0.6117  0.0640 -0.0785
 6062TIP3    H142381   2.710   3.047  12.166 -0.7414  0.0046 -2.7797
 6062TIP3    H242382   2.852   3.002  12.195 -1.3094 -1.1296 -1.6519
 6063TIP3   OH242383   5.820   3.890  10.739 -0.3281 -0.3196 -0.3031
 6063TIP3    H142384   5.831   3.818  10.676 -0.0038 -0.2047 -0.3833
 6063TIP3    H242385   5.726   3.907  10.740 -0.2059  0.6831 -1.9017
 6064TIP3   OH242386   3.749   3.444  10.247 -1.1023  0.2308 -0.4401
 6064TIP3    H142387   3.765   3.363  10.197  0.9601 -0.7696  1.6383
 6064TIP3    H242388   3.667   3.428  10.293 -0.5832 -0.8466  0.1624
 6065TIP3   OH242389   3.826   1.819   9.583 -0.1538 -0.2383  0.6403
 6065TIP3    H142390   3.891   1.877   9.544 -1.2927 -0.1694 -1.2736
 6065TIP3    H242391   3.803   1.861   9.666 -0.6427  1.8959 -0.4958
 6066TIP3   OH242392   0.978   0.784  10.156  0.5964 -0.5323  0.3957
 6066TIP3    H142393   0.917   0.780  10.082  0.7171 -0.4052  0.2886
 6066TIP3    H242394   1.039   0.854  10.133  0.4292 -0.2549  0.7690
 6067TIP3   OH242395   6.964   5.218   9.885  0.6772 -0.4831 -0.0769
 6067TIP3    H142396   6.887   5.222   9.828  0.0545  1.2581  0.7974
 6067TIP3    H242397   6.928   5.216   9.974  1.4033  4.6696  0.6371
 6068TIP3   OH242398   4.189   5.502  10.532 -0.1597  0.3598  0.2138
 6068TIP3    H142399   4.168   5.461  10.448 -0.8342  1.9248 -0.4136
 6068TIP3    H242400   4.215   5.591  10.510 -0.3416  0.8050  1.6716
 6069TIP3   OH242401   6.837   4.151  11.885 -0.0992 -0.4216  0.4295
 6069TIP3    H142402   6.929   4.176  11.897 -0.1081 -0.2919  0.2219
 6069TIP3    H242403   6.815   4.104  11.966 -0.0179  0.0488  0.7330
 6070TIP3   OH242404   0.165   7.130  11.039  0.8263  0.0552 -0.0084
 6070TIP3    H142405   0.081   7.092  11.065  0.7262  0.9557  1.1079
 6070TIP3    H242406   0.168   7.122  10.944 -0.4173 -0.2054 -0.0367
 6071TIP3   OH242407   7.625   7.254  11.789  0.0737 -0.2071  0.5162
 6071TIP3    H142408   7.637   7.268  11.883 -2.3079 -0.7364  0.9812
 6071TIP3    H242409   7.638   7.340  11.749 -1.6670  0.6888  1.7249
 6072TIP3   OH242410   2.157   3.619  11.217 -0.1604  0.2482  0.2597
 6072TIP3    H142411   2.184   3.527  11.216 -1.2247 -0.1239 -1.9961
 6072TIP3    H242412   2.061   3.615  11.214 -0.2474  1.4617  0.8651
 6073TIP3   OH242413   4.740   0.958  11.421  0.3770 -0.1840  0.2428
 6073TIP3    H142414   4.727   0.863  11.427 -0.0368 -0.0674  1.3264
 6073TIP3    H242415   4.750   0.974  11.327  0.8745 -1.3510  0.0776
 6074TIP3   OH242416   1.246   1.715  11.347  0.1970  0.2100 -0.2313
 6074TIP3    H142417   1.207   1.798  11.374  0.4994  0.1013  0.5536
 6074TIP3    H242418   1.273   1.673  11.428 -1.0502 -1.2283 -0.5210
 6075TIP3   OH242419   6.091   2.509  11.723  0.0308  0.1648  0.1082
 6075TIP3    H142420   6.114   2.489  11.813 -0.7854 -1.8292 -0.0711
 6075TIP3    H242421   6.011   2.562  11.729 -0.4421 -0.5864  0.5536
 6076TIP3   OH242422   5.192   0.869  11.040  0.5720 -0.5388  0.0227
 6076TIP3    H142423   5.100   0.847  11.047 -0.2051  2.2721  0.0360
 6076TIP3    H242424   5.220   0.888  11.129  0.8142 -0.2084 -0.1190
 6077TIP3   OH242425   1.791   1.309  10.437 -0.7930  0.3230  0.2156
 6077TIP3    H142426   1.699   1.326  10.458 -0.6992 -0.8128  1.6189
 6077TIP3    H242427   1.840   1.352  10.507 -0.2195  1.1168 -0.6465
 6078TIP3   OH242428   4.023   7.521  10.844  0.5427 -0.3779  0.0735
 6078TIP3    H142429   4.018   7.467  10.765  2.5228 -1.1534  0.4296
 6078TIP3    H242430   3.947   7.494  10.895 -0.1668 -0.6458 -1.0859
 6079TIP3   OH242431   0.358   1.085  10.228 -0.7914 -0.3033 -0.0130
 6079TIP3    H142432   0.361   1.116  10.319 -0.2356 -1.3515  0.3429
 6079TIP3    H242433   0.290   1.016  10.228 -1.2776  0.1595 -0.5564
 6080TIP3   OH242434   4.659   2.650  11.865  0.3924  0.3777  0.5375
 6080TIP3    H142435   4.567   2.661  11.842  0.7533  3.7462  0.2009
 6080TIP3    H242436   4.667   2.558  11.892 -3.1359  0.1156  1.0719
 6081TIP3   OH242437   0.827   4.083  10.333  0.0214  0.8832  0.1621
 6081TIP3    H142438   0.901   4.144  10.333  1.4282 -0.7433 -0.0714
 6081TIP3    H242439   0.812   4.065  10.426  0.9653  0.0418  0.1683
 6082TIP3   OH242440   0.022   6.704  10.295  0.0177 -0.4455  0.3194
 6082TIP3    H142441   0.095   6.645  10.316 -0.6307 -1.0185  1.0526
 6082TIP3    H242442  -0.004   6.740  10.380  0.2467  0.7195 -0.0999
 6083TIP3   OH242443   3.678   1.421  11.555 -0.8480 -0.3380  0.6117
 6083TIP3    H142444   3.677   1.329  11.528 -3.3357 -0.4290  0.7689
 6083TIP3    H242445   3.649   1.420  11.646  0.8187  0.5140  1.1998
 6084TIP3   OH242446   1.474   7.332  11.585  0.7184  0.3484 -0.2801
 6084TIP3    H142447   1.402   7.332  11.648  0.9559  1.8613  0.0244
 6084TIP3    H242448   1.547   7.290  11.631  0.3819 -0.1253 -0.1764
 6085TIP3   OH242449   1.637   0.639  11.970 -0.0152  0.0478 -0.3443
 6085TIP3    H142450   1.680   0.725  11.966  0.2568 -0.0593  0.1962
 6085TIP3    H242451   1.632   0.619  12.064  0.0401 -0.5877 -0.4717
 6086TIP3   OH242452   7.674   2.414  11.547 -0.7881 -0.5947  0.3147
 6086TIP3    H142453   7.685   2.495  11.597 -1.6997  0.7492 -1.4885
 6086TIP3    H242454   7.749   2.360  11.570  0.0524  0.9297  1.3035
 6087TIP3   OH242455   4.956   0.457  10.965  0.0702  0.3399 -0.3988
 6087TIP3    H142456   4.937   0.487  11.054 -0.0574  0.3434 -0.4273
 6087TIP3    H242457   4.884   0.490  10.912  0.6145  1.1200 -0.6717
 6088TIP3   OH242458   3.239   0.672  10.529 -0.2225 -0.5964 -0.6126
 6088TIP3    H142459   3.196   0.600  10.576  0.3234 -1.2555 -1.0876
 6088TIP3    H242460   3.325   0.678  10.570 -0.4455  0.1376 -0.2384
 6089TIP3   OH242461   2.563   5.247  10.552 -0.3781 -0.1760  0.3962
 6089TIP3    H142462   2.549   5.294  10.470 -0.8113 -1.1956 -0.1333
 6089TIP3    H242463   2.476   5.215  10.577 -0.5112  1.3021  2.0215
 6090TIP3   OH242464   6.086   0.091  11.944  0.2007  0.6437  0.2262
 6090TIP3    H142465   5.992   0.098  11.962  0.1495 -0.1230  0.2935
 6090TIP3    H242466   6.128   0.131  12.020 -0.0407 -1.2359  1.4230
 6091TIP3   OH242467   3.952   6.348  10.481 -1.0367 -0.1161 -0.0456
 6091TIP3    H142468   3.904   6.426  10.454  0.4151  1.2433  1.0547
 6091TIP3    H242469   3.926   6.333  10.572 -0.4859 -0.2428  0.0988
 6092TIP3   OH242470   0.326   3.894  11.952  0.4362 -0.2174 -0.1401
 6092TIP3    H142471   0.244   3.847  11.965 -0.0483  0.6864  0.2100
 6092TIP3    H242472   0.388   3.828  11.922 -0.1023 -1.1395  0.7431
 6093TIP3   OH242473   1.445   0.125  11.873 -0.4888  0.4817 -0.2391
 6093TIP3    H142474   1.411   0.103  11.959  0.5524 -1.4012 -0.2516
 6093TIP3    H242475   1.394   0.071  11.812  2.3011 -2.5051 -0.2503
 6094TIP3   OH242476   2.795   5.176  10.154  0.0788  0.1529  0.3923
 6094TIP3    H142477   2.836   5.261  10.138  0.1087 -0.0089 -0.4174
 6094TIP3    H242478   2.704   5.188  10.127 -0.3873  0.4376  1.9465
 6095TIP3   OH242479   0.250   6.567  10.432  0.3998 -0.1685  0.0388
 6095TIP3    H142480   0.275   6.545  10.343  2.3603 -0.4883  0.6155
 6095TIP3    H242481   0.320   6.531  10.486 -1.2175 -0.8318  1.8053
 6096TIP3   OH242482   3.869   2.316  12.279 -0.6297 -0.0496  0.0140
 6096TIP3    H142483   3.788   2.367  12.283 -0.3243  0.4109  0.4799
 6096TIP3    H242484   3.935   2.378  12.245 -0.2260 -0.0835  0.7167
 6097TIP3   OH242485   4.645   4.866  10.911  0.0793 -0.8253 -0.4343
 6097TIP3    H142486   4.650   4.928  10.838  3.2542 -0.5114 -0.1294
 6097TIP3    H242487   4.689   4.912  10.983 -2.0597 -1.5275  1.3990
 6098TIP3   OH242488   1.844   5.696  12.095  0.0022  0.5538  0.2672
 6098TIP3    H142489   1.929   5.737  12.079  0.6350 -0.2956  1.3648
 6098TIP3    H242490   1.799   5.701  12.011  2.4187 -2.0098 -1.3222
 6099TIP3   OH242491   1.769   0.526  11.385  0.2561  1.0972 -0.5422
 6099TIP3    H142492   1.848   0.520  11.331 -0.0553  0.1409 -0.9116
 6099TIP3    H242493   1.800   0.516  11.475  0.9239  3.8102 -0.3837
 6100TIP3   OH242494   7.535   0.148  10.478  0.1464  0.1761 -0.0781
 6100TIP3    H142495   7.528   0.240  10.505 -3.4212 -0.1600  0.6129
 6100TIP3    H242496   7.585   0.106  10.548 -0.1429  1.1900  0.7654
 6101TIP3   OH242497   3.441   3.535  11.689  0.2147 -0.5628 -0.1492
 6101TIP3    H142498   3.377   3.606  11.687 -1.2018 -1.7760  0.4597
 6101TIP3    H242499   3.459   3.522  11.782 -0.7370 -1.9958 -0.1321
 6102TIP3   OH242500   0.966   1.566  11.145 -0.0395 -0.4998 -0.1920
 6102TIP3    H142501   0.892   1.505  11.142  0.0944 -0.6446 -0.6516
 6102TIP3    H242502   0.983   1.587  11.053 -0.2955  0.4903 -0.0254
 6103TIP3   OH242503   2.832   2.187  10.985 -0.5188 -0.0059 -0.0362
 6103TIP3    H142504   2.753   2.134  10.993 -0.8486  0.0872 -2.0299
 6103TIP3    H242505   2.802   2.277  10.995 -0.2843 -0.0668  1.3647
 6104TIP3   OH242506   2.102   6.928  10.184 -0.0092  0.2591 -0.0338
 6104TIP3    H142507   2.123   6.851  10.237 -0.5517 -1.4527 -2.1370
 6104TIP3    H242508   2.029   6.899  10.129 -0.4281  2.4056 -0.6969
 6105TIP3   OH242509   5.026   2.102   9.746  0.0252 -0.3426  0.6866
 6105TIP3    H142510   5.008   2.114   9.653 -2.7569 -0.1470  1.1668
 6105TIP3    H242511   5.119   2.119   9.755  0.0177  1.4506 -1.7632
 6106TIP3   OH242512   5.475   2.121  11.514 -0.3041  0.0931  0.0605
 6106TIP3    H142513   5.499   2.122  11.607 -1.7041 -0.0295  0.4509
 6106TIP3    H242514   5.504   2.206  11.481 -0.4890  0.4607  0.8149
 6107TIP3   OH242515   5.755   1.482  11.822  0.1152 -0.1165 -0.1379
 6107TIP3    H142516   5.796   1.465  11.737  2.2234  0.9880  0.5772
 6107TIP3    H242517   5.819   1.536  11.869 -2.2941  2.0015  0.9880
 6108TIP3   OH242518   5.071   2.033  11.316 -0.2464 -0.0172 -0.2979
 6108TIP3    H142519   5.132   2.082  11.261 -0.3745  0.0084 -0.4174
 6108TIP3    H242520   5.122   2.012  11.395 -0.2588  0.5038 -0.1450
 6109TIP3   OH242521   6.416   6.735  10.873  0.2684  0.2542  0.8043
 6109TIP3    H142522   6.473   6.800  10.831  0.2740  0.1907  0.7125
 6109TIP3    H242523   6.382   6.780  10.950 -1.6058  1.2255 -0.5099
 6110TIP3   OH242524   6.875   6.063  11.497 -0.2106 -0.2601  0.9033
 6110TIP3    H142525   6.923   6.137  11.533  0.0057  0.3644 -0.5703
 6110TIP3    H242526   6.793   6.101  11.466 -1.0911 -1.0746  2.1955
 6111TIP3   OH242527   0.013   3.543  10.735  0.0320 -0.1390 -0.6253
 6111TIP3    H142528  -0.046   3.471  10.759 -0.4360 -0.3164 -2.1992
 6111TIP3    H242529  -0.046   3.615  10.714  0.4805  0.5181  0.3336
 6112TIP3   OH242530   3.608   5.592  12.160 -0.0349  0.0834 -0.4228
 6112TIP3    H142531   3.686   5.543  12.132 -1.4322 -1.4336 -1.9266
 6112TIP3    H242532   3.592   5.653  12.088 -1.5228 -1.2401 -1.2667
 6113TIP3   OH242533   0.107   2.386  10.977 -0.2610  0.0840 -0.3133
 6113TIP3    H142534   0.169   2.312  10.982 -0.3352  0.0612  0.3220
 6113TIP3    H242535   0.057   2.380  11.058  0.2957  1.3388  0.1397
 6114TIP3   OH242536   6.219   4.921  11.923 -0.9603 -0.3787  0.1525
 6114TIP3    H142537   6.147   4.920  11.987 -4.2992  2.0350 -3.1141
 6114TIP3    H242538   6.263   5.004  11.939 -1.4678 -0.0133 -0.3209
 6115TIP3   OH242539   3.139   5.745  10.535  0.2946 -0.4783 -0.1067
 6115TIP3    H142540   3.168   5.832  10.561  1.5940 -0.7984 -0.3816
 6115TIP3    H242541   3.220   5.697  10.516 -0.3296 -2.0205  0.8821
 6116TIP3   OH242542   4.111   2.331  11.662  0.0620  0.6427  0.2197
 6116TIP3    H142543   4.137   2.275  11.589  0.1567  0.5756  0.3048
 6116TIP3    H242544   4.160   2.412  11.649  0.3269  0.5120  0.3878
 6117TIP3   OH242545   7.359   2.469  10.437 -0.1601  0.0803 -0.5608
 6117TIP3    H142546   7.300   2.409  10.483 -0.9503  0.7827 -0.6197
 6117TIP3    H242547   7.334   2.461  10.345 -0.6388  0.8634 -0.5141
 6118TIP3   OH242548   0.819   4.768  11.463  0.2085  0.2534 -0.1095
 6118TIP3    H142549   0.837   4.801  11.551  1.3166  0.8025 -0.5241
 6118TIP3    H242550   0.823   4.846  11.407  0.5025 -0.2324 -0.7818
 6119TIP3   OH242551   2.302   6.640  10.502  0.1434 -0.3884 -0.1454
 6119TIP3    H142552   2.260   6.621  10.418 -1.1949 -0.0250  0.4135
 6119TIP3    H242553   2.349   6.560  10.524 -0.9924 -1.1489 -0.3761
 6120TIP3   OH242554   0.587   2.143   9.957 -0.4088  0.3692  0.6075
 6120TIP3    H142555   0.517   2.197   9.994 -1.1993 -0.2110 -0.0078
 6120TIP3    H242556   0.565   2.136   9.864 -0.8979 -1.8571  0.8435
 6121TIP3   OH242557   6.322   4.816  10.875  0.0349  0.0080 -0.4961
 6121TIP3    H142558   6.412   4.783  10.880 -0.8608 -2.8221 -1.3096
 6121TIP3    H242559   6.302   4.842  10.965  0.5593 -2.6517  0.4754
 6122TIP3   OH242560   1.931   3.971   9.954 -0.0908 -0.1526 -0.6486
 6122TIP3    H142561   1.854   4.020   9.983 -0.0389 -0.1282 -0.5533
 6122TIP3    H242562   1.896   3.889   9.920 -0.2143  0.1142 -1.1810
 6123TIP3   OH242563   0.639   1.056  10.678 -0.2319 -0.1481 -0.8102
 6123TIP3    H142564   0.698   1.077  10.751 -0.5085  0.3071 -0.7202
 6123TIP3    H242565   0.560   1.022  10.720  0.3618 -1.8464 -0.9499
 6124TIP3   OH242566   2.612   5.866  10.139 -0.1702 -0.2759  0.3243
 6124TIP3    H142567   2.651   5.901  10.220  0.0624  1.5920 -0.5417
 6124TIP3    H242568   2.684   5.823  10.094  0.7034  2.0353 -0.6528
 6125TIP3   OH242569   1.683   2.383  10.942  0.0175 -0.0561  0.0543
 6125TIP3    H142570   1.707   2.412  11.031  0.1318  2.9432 -0.8381
 6125TIP3    H242571   1.594   2.415  10.930 -0.1668 -0.8587 -0.7531
 6126TIP3   OH242572   3.688   6.782  10.632  0.3826  0.6101  0.5537
 6126TIP3    H142573   3.769   6.810  10.674 -0.1542  1.2465  1.1825
 6126TIP3    H242574   3.634   6.749  10.703  0.1812 -0.0596  0.1034
 6127TIP3   OH242575   0.073   6.944  10.128  0.3208 -0.2505 -0.2684
 6127TIP3    H142576   0.045   6.936  10.220 -4.4674 -0.8249 -1.4774
 6127TIP3    H242577   0.166   6.963  10.133  0.5583 -1.2291  4.6631
 6128TIP3   OH242578   4.420   0.773   9.938  0.2649 -0.1658  0.6579
 6128TIP3    H142579   4.415   0.859   9.897  2.9356  0.3166  1.1753
 6128TIP3    H242580   4.481   0.784  10.011  1.0661 -2.5732  0.4566
 6129TIP3   OH242581   3.072   4.817  12.226 -0.2229 -0.1343  0.3753
 6129TIP3    H142582   3.054   4.863  12.308  1.9057 -0.0455  0.8404
 6129TIP3    H242583   3.056   4.725  12.246 -3.3785  0.1597 -0.2406
 6130TIP3   OH242584   1.835   5.391  12.098  0.4249 -0.2764 -0.2489
 6130TIP3    H142585   1.886   5.363  12.022  0.1384  1.7479 -1.2582
 6130TIP3    H242586   1.857   5.484  12.109  0.1407 -0.4026  1.9156
 6131TIP3   OH242587   2.368   7.241  10.554  0.1437  0.4449 -0.0347
 6131TIP3    H142588   2.367   7.193  10.471  1.1546  0.6612 -0.1829
 6131TIP3    H242589   2.295   7.302  10.547 -1.0095 -0.8747  0.0535
 6132TIP3   OH242590   0.395   0.399  10.854 -0.0242 -0.1908 -0.1808
 6132TIP3    H142591   0.438   0.463  10.911 -1.0281  0.0636  0.3299
 6132TIP3    H242592   0.305   0.431  10.847  0.0670 -0.2048 -1.9396
 6133TIP3   OH242593   6.378   0.725  11.157 -0.3514 -0.1649  0.6542
 6133TIP3    H142594   6.369   0.632  11.138 -0.4288 -0.1290  0.5106
 6133TIP3    H242595   6.347   0.735  11.247 -1.6339 -0.0698  0.2251
 6134TIP3   OH242596   0.207   5.362  10.513 -0.2237  0.0613 -0.1963
 6134TIP3    H142597   0.145   5.290  10.526  0.2809 -0.1773  1.0164
 6134TIP3    H242598   0.209   5.375  10.419 -0.4123 -1.4379 -0.4335
 6135TIP3   OH242599   0.443   4.185  11.308  0.2051 -0.0578 -0.1488
 6135TIP3    H142600   0.364   4.144  11.273 -0.1590 -0.2615  0.9017
 6135TIP3    H242601   0.419   4.277  11.320  0.1341 -0.1122  0.1358
 6136TIP3   OH242602   1.810   4.268  10.083  0.0599 -0.1539 -0.1278
 6136TIP3    H142603   1.902   4.291  10.074  0.2536 -0.9730 -0.3327
 6136TIP3    H242604   1.763   4.346  10.053  0.6593  0.8079  1.3502
 6137TIP3   OH242605   4.290   6.746   9.964 -0.1176  0.2020 -0.1270
 6137TIP3    H142606   4.269   6.652   9.964  0.3532  0.0794 -1.6754
 6137TIP3    H242607   4.219   6.786  10.015 -1.4862 -0.7618 -1.2096
 6138TIP3   OH242608   2.252   6.697  10.852 -0.0925  0.6688 -0.2543
 6138TIP3    H142609   2.201   6.619  10.875 -0.9100  1.5199  0.9660
 6138TIP3    H242610   2.323   6.664  10.797  0.7602 -1.2446  1.8233
 6139TIP3   OH242611   7.612   4.108  10.663 -0.7062 -0.0644  0.0998
 6139TIP3    H142612   7.628   4.166  10.738  1.1060  0.1836 -0.4286
 6139TIP3    H242613   7.528   4.139  10.627 -0.7197  0.9731  0.9572
 6140TIP3   OH242614   1.330   3.903  10.334  0.2271  0.3635  0.0493
 6140TIP3    H142615   1.346   3.905  10.239  1.2725  1.0594  0.2180
 6140TIP3    H242616   1.330   3.810  10.356  0.4881  0.2067 -0.5647
 6141TIP3   OH242617   1.561   3.609  10.849 -0.3234 -0.3740 -0.3393
 6141TIP3    H142618   1.596   3.589  10.762 -0.8015 -0.0613 -0.6099
 6141TIP3    H242619   1.473   3.641  10.832  0.0955  1.1301  0.1329
 6142TIP3   OH242620   6.494   4.102  10.847 -0.6339  0.3118 -0.9247
 6142TIP3    H142621   6.435   4.079  10.918 -0.5377  0.6421 -0.7329
 6142TIP3    H242622   6.544   4.022  10.829 -1.6971 -0.2087 -1.6485
 6143TIP3   OH242623   1.364   2.269  12.586 -0.2849  0.2204  0.2100
 6143TIP3    H142624   1.358   2.326  12.663 -1.1986  0.1041  0.2261
 6143TIP3    H242625   1.417   2.318  12.523 -0.6738  0.8801  0.3991
 6144TIP3   OH242626   2.500   2.003  11.261  0.0999 -0.0554 -0.0122
 6144TIP3    H142627   2.580   2.056  11.267 -0.4672  0.7194  1.1835
 6144TIP3    H242628   2.518   1.940  11.191  1.5461  0.4497 -0.1332
 6145TIP3   OH242629   6.303   6.087  11.739 -0.1545 -0.1952  0.0073
 6145TIP3    H142630   6.315   6.016  11.676 -4.3541 -2.8974  1.8581
 6145TIP3    H242631   6.352   6.059  11.816 -0.9603 -0.6375  0.3740
 6146TIP3   OH242632   2.510   3.980  10.804  0.0410 -0.4489  0.3639
 6146TIP3    H142633   2.529   3.977  10.710  0.7354  0.5103  0.4533
 6146TIP3    H242634   2.594   3.961  10.846 -0.1894 -0.5349  0.7884
 6147TIP3   OH242635   7.655   6.585  10.905  0.0254  0.1538 -0.2486
 6147TIP3    H142636   7.693   6.672  10.890 -0.5310  0.5510  0.5385
 6147TIP3    H242637   7.724   6.536  10.949  0.0573  0.4755  0.0677
 6148TIP3   OH242638   3.751   7.093  11.965 -0.7294 -0.3826 -0.3211
 6148TIP3    H142639   3.709   7.090  12.051 -1.0128 -0.6281 -0.4664
 6148TIP3    H242640   3.844   7.079  11.983 -0.6271  0.6493  0.0502
 6149TIP3   OH242641   1.503   4.401  11.371  0.3215  0.0092 -0.7172
 6149TIP3    H142642   1.530   4.401  11.462 -0.4865  0.8754 -0.4550
 6149TIP3    H242643   1.583   4.389  11.321  0.5766 -2.2482  0.1308
 6150TIP3   OH242644   5.531   7.272  10.758 -0.0992 -0.1201 -0.1182
 6150TIP3    H142645   5.444   7.233  10.766  0.2426 -0.8472  0.2076
 6150TIP3    H242646   5.535   7.303  10.668 -0.0242 -1.7841 -0.7237
 6151TIP3   OH242647   6.241   5.352  10.709 -0.1722 -0.0310 -0.2996
 6151TIP3    H142648   6.278   5.372  10.624  1.7642  0.5550  0.6309
 6151TIP3    H242649   6.303   5.292  10.750 -1.1102 -0.3887  0.6788
 6152TIP3   OH242650   6.071   3.073  11.343  0.0178  0.6486  0.3514
 6152TIP3    H142651   6.036   3.162  11.345  2.9274  1.9294 -0.7517
 6152TIP3    H242652   6.093   3.054  11.434  0.3667  1.4794  0.4430
 6153TIP3   OH242653   1.177   2.049  12.188 -0.3205  0.0067  0.2373
 6153TIP3    H142654   1.194   2.093  12.271  1.3131 -0.2806  0.1024
 6153TIP3    H242655   1.136   1.966  12.212  0.3996 -0.1968  0.8042
 6154TIP3   OH242656   4.965   5.460  10.750  0.1862  0.1433 -0.0676
 6154TIP3    H142657   4.893   5.475  10.811 -0.8118  0.4173 -1.2734
 6154TIP3    H242658   4.968   5.539  10.696  1.0605 -0.0856 -0.3781
 6155TIP3   OH242659   5.967   1.677  11.429 -0.0486  0.7203  0.4234
 6155TIP3    H142660   5.915   1.748  11.465  1.8628  1.1571  2.5002
 6155TIP3    H242661   6.057   1.710  11.429  0.9604 -1.7492  1.8036
 6156TIP3   OH242662   2.035   0.420  10.516  0.1116 -0.0481  0.0791
 6156TIP3    H142663   2.109   0.367  10.548 -0.4685  0.1191  1.7373
 6156TIP3    H242664   1.959   0.386  10.563 -0.7220  0.4788 -0.8529
 6157TIP3   OH242665   2.956   5.907  10.083 -0.2696  0.0089 -0.1644
 6157TIP3    H142666   2.904   5.884  10.161 -0.2871 -0.6464 -0.3582
 6157TIP3    H242667   2.895   5.954  10.027 -0.3783  0.1088  0.0342
 6158TIP3   OH242668   0.488   0.870  10.441  0.9547  0.0678  0.0573
 6158TIP3    H142669   0.396   0.854  10.423  0.8831  1.1793 -0.6828
 6158TIP3    H242670   0.496   0.966  10.444  1.7584 -0.0241  1.8938
 6159TIP3   OH242671   4.487   7.353  11.181  0.1412  0.3110 -0.1549
 6159TIP3    H142672   4.449   7.382  11.264 -1.1280 -0.2955 -0.4906
 6159TIP3    H242673   4.515   7.263  11.199 -1.9682 -0.5458 -0.8898
 6160TIP3   OH242674   0.483   5.552  11.892  0.1383  0.0705  0.0011
 6160TIP3    H142675   0.461   5.601  11.812  0.9155 -0.9090 -0.8335
 6160TIP3    H242676   0.443   5.604  11.962  0.0834  1.3680 -0.9331
 6161TIP3   OH242677   0.948   4.277  12.569  0.7544 -0.2489 -0.1626
 6161TIP3    H142678   0.957   4.181  12.575  0.7367 -0.1600  3.9071
 6161TIP3    H242679   1.035   4.310  12.588  0.4440  0.5674 -0.1442
 6162TIP3   OH242680   3.471   0.257  11.104 -0.5339 -0.3938 -0.1296
 6162TIP3    H142681   3.478   0.228  11.013  0.4388 -0.0166 -0.1952
 6162TIP3    H242682   3.520   0.340  11.106 -0.0599 -0.6828  0.8478
 6163TIP3   OH242683   4.936   5.824  10.102  0.0529 -0.1407 -0.2543
 6163TIP3    H142684   4.924   5.771  10.023  0.1101  0.4827 -0.6907
 6163TIP3    H242685   4.864   5.799  10.160  0.0918 -0.7025 -0.4433
 6164TIP3   OH242686   0.293   6.332  12.089  0.1228 -0.0837  0.6220
 6164TIP3    H142687   0.256   6.307  12.173  0.6204  1.1341  1.2384
 6164TIP3    H242688   0.384   6.301  12.093  0.1854  0.0929  0.6026
 6165TIP3   OH242689   7.152   0.908  11.284  0.5969 -0.2726 -0.1178
 6165TIP3    H142690   7.199   0.987  11.256 -0.0203 -0.1294 -0.7845
 6165TIP3    H242691   7.144   0.918  11.379  1.1731  0.1031 -0.1035
 6166TIP3   OH242692   1.759   2.008  12.305  0.4772 -0.0723 -0.2578
 6166TIP3    H142693   1.672   2.035  12.274  0.6593  1.2829  0.3220
 6166TIP3    H242694   1.773   1.922  12.266 -1.7313 -0.9809  0.7825
 6167TIP3   OH242695   6.852   4.731   9.993 -0.2414 -0.0970  0.2069
 6167TIP3    H142696   6.807   4.648  10.011 -1.0624  0.4446  0.7129
 6167TIP3    H242697   6.859   4.773  10.079  2.4014 -0.7128  0.3859
 6168TIP3   OH242698   3.915   3.704  12.351 -0.3461  0.2622 -0.1737
 6168TIP3    H142699   3.939   3.639  12.285 -2.4557  1.1415 -1.9254
 6168TIP3    H242700   3.977   3.776  12.338  0.0923 -0.1294 -0.2682
 6169TIP3   OH242701   0.170   4.067  16.902 -0.2252 -0.0376 -0.2154
 6169TIP3    H142702   0.259   4.042  16.877  0.4852  1.1663  0.9749
 6169TIP3    H242703   0.148   4.010  16.975  0.4429  1.0943  0.9040
 6170TIP3   OH242704   3.586   2.042  10.826 -0.2848 -0.2361 -0.8541
 6170TIP3    H142705   3.678   2.013  10.829 -0.9493 -2.5457 -0.5222
 6170TIP3    H242706   3.571   2.062  10.734  0.2969 -0.7888 -1.0805
 6171TIP3   OH242707   4.237   2.122  10.154 -0.3677 -0.0465 -0.0492
 6171TIP3    H142708   4.232   2.079  10.239 -2.1288 -0.2951 -0.2446
 6171TIP3    H242709   4.330   2.139  10.141  0.0439 -1.0114  1.4212
 6172TIP3   OH242710   4.501   6.050  10.961 -0.1327 -0.3826 -0.5420
 6172TIP3    H142711   4.558   6.078  11.032 -1.6526  0.9741  0.1944
 6172TIP3    H242712   4.531   6.099  10.885 -0.1870  0.1931 -0.1981
 6173TIP3   OH242713   3.861   4.025  11.465 -0.1055  0.0445  0.3222
 6173TIP3    H142714   3.804   3.956  11.500 -1.5982  0.6788 -0.7280
 6173TIP3    H242715   3.882   4.079  11.542  1.2580 -1.6195  1.1983
 6174TIP3   OH242716   2.338   3.634  11.698  0.2600  0.1885  0.5571
 6174TIP3    H142717   2.297   3.661  11.616  0.9578 -0.4275 -0.0050
 6174TIP3    H242718   2.272   3.580  11.741  0.9732 -2.1877 -1.1021
 6175TIP3   OH242719   6.716   3.172  10.010  0.2475 -0.0704  0.4000
 6175TIP3    H142720   6.810   3.190  10.008 -0.1465  2.3634 -1.9736
 6175TIP3    H242721   6.677   3.252  10.044 -1.0504 -0.6453  0.3327
 6176TIP3   OH242722   1.169   2.960  11.158 -0.3428 -0.0365 -0.0633
 6176TIP3    H142723   1.205   2.887  11.208 -0.8827 -0.2181  0.0612
 6176TIP3    H242724   1.234   2.975  11.089 -1.3780 -2.2554 -1.6242
 6177TIP3   OH242725   6.637   1.293  10.290  0.1775 -0.5409 -0.1128
 6177TIP3    H142726   6.605   1.234  10.221  2.9426 -2.6339  0.2489
 6177TIP3    H242727   6.728   1.312  10.266  0.4825  0.6251  1.7390
 6178TIP3   OH242728   0.740   4.157  11.296  0.0485  0.1126  0.2774
 6178TIP3    H142729   0.646   4.139  11.297 -0.2082  1.2401 -0.7362
 6178TIP3    H242730   0.747   4.252  11.295  1.1347  0.0667 -1.5957
 6179TIP3   OH242731   1.104   1.575  10.443 -0.4392  0.2619 -0.1946
 6179TIP3    H142732   1.049   1.566  10.521  1.5890  0.1502  1.3095
 6179TIP3    H242733   1.119   1.485  10.414 -1.1709  0.3019 -0.7108
 6180TIP3   OH242734   0.628   3.265  12.021 -0.1344  0.5766  0.3703
 6180TIP3    H142735   0.630   3.348  12.070  0.5400  0.5219  0.4510
 6180TIP3    H242736   0.654   3.199  12.086 -0.4635  0.3315  0.2531
 6181TIP3   OH242737   3.584   7.380   9.846 -0.0352 -0.4408 -0.6093
 6181TIP3    H142738   3.526   7.451   9.872  0.2375  0.2803 -1.8703
 6181TIP3    H242739   3.538   7.337   9.774  1.1424  0.4030 -1.9069
 6182TIP3   OH242740   6.866   2.143  11.075 -0.0151  0.5774  0.0418
 6182TIP3    H142741   6.897   2.145  10.984  1.8409 -0.8377  0.5806
 6182TIP3    H242742   6.930   2.195  11.123  0.5098 -0.7915  0.8939
 6183TIP3   OH242743   3.880   2.850  11.394 -0.1240 -0.0583  0.4886
 6183TIP3    H142744   3.969   2.885  11.389 -0.0558  0.1955  2.4611
 6183TIP3    H242745   3.893   2.757  11.411 -0.2839 -0.4058 -1.1370
 6184TIP3   OH242746   0.768   4.446  11.581 -0.1428  0.0991 -0.6189
 6184TIP3    H142747   0.830   4.484  11.519  0.7877 -3.1846 -1.9288
 6184TIP3    H242748   0.800   4.357  11.596 -0.9889  0.3014  3.7737
 6185TIP3   OH242749   5.817   2.055  10.950 -0.3583  0.1620 -0.1679
 6185TIP3    H142750   5.873   2.125  10.982 -2.5129  2.3177 -0.8354
 6185TIP3    H242751   5.877   1.981  10.936  1.5994  0.9877  2.9283
 6186TIP3   OH242752   3.012   2.498   9.778 -0.2554 -0.1930 -0.3975
 6186TIP3    H142753   3.036   2.584   9.811 -1.5083  0.2311 -0.5469
 6186TIP3    H242754   3.092   2.446   9.786  0.9853  1.3963 -1.7753
 6187TIP3   OH242755   1.132   0.281  10.804 -0.0383  0.6266  0.2857
 6187TIP3    H142756   1.173   0.216  10.747  0.7778  1.9950 -0.7573
 6187TIP3    H242757   1.175   0.364  10.781 -1.7271  1.7181  0.8471
 6188TIP3   OH242758   7.163   6.016  10.212 -0.2338 -0.3242  0.5232
 6188TIP3    H142759   7.214   5.941  10.241  0.1768 -0.0396  0.5544
 6188TIP3    H242760   7.219   6.092  10.230 -0.1224 -0.1004 -0.6209
 6189TIP3   OH242761   3.544   1.770  10.217  0.0532 -0.3084  0.2264
 6189TIP3    H142762   3.475   1.718  10.260 -0.0313  0.1487  0.6634
 6189TIP3    H242763   3.625   1.724  10.239 -0.1966 -1.6327 -1.4362
 6190TIP3   OH242764   1.636   0.602  10.548  0.3674 -0.1794 -0.2782
 6190TIP3    H142765   1.577   0.527  10.551  3.4381 -2.7553  0.9794
 6190TIP3    H242766   1.614   0.653  10.626 -0.3633 -0.9267  0.0190
 6191TIP3   OH242767   0.670   2.668  10.954 -0.2364 -0.1426 -0.3906
 6191TIP3    H142768   0.605   2.739  10.957  0.8979  0.9120  0.2157
 6191TIP3    H242769   0.623   2.592  10.989 -1.9794 -0.1603 -2.5513
 6192TIP3   OH242770   1.045   1.582   9.969  0.3107  0.7860  0.0709
 6192TIP3    H142771   1.080   1.670   9.983 -0.5075  1.3254 -1.0900
 6192TIP3    H242772   1.084   1.553   9.886  2.0431 -0.7463  1.3396
 6193TIP3   OH242773   3.024   5.255  11.300 -0.0082  0.2802  0.1092
 6193TIP3    H142774   2.929   5.252  11.289  0.1846  0.3204 -2.1673
 6193TIP3    H242775   3.056   5.291  11.217  1.9911  0.3369  0.8589
 6194TIP3   OH242776   6.942   6.187  10.500 -0.2237  0.1603 -0.0215
 6194TIP3    H142777   6.953   6.226  10.587  1.1510 -0.3795  0.0697
 6194TIP3    H242778   6.994   6.242  10.442  0.1831 -0.4185 -0.2138
 6195TIP3   OH242779   1.997   3.998  10.696 -0.0924  0.2816  0.7749
 6195TIP3    H142780   2.084   4.034  10.676 -0.5923  1.0971 -0.0590
 6195TIP3    H242781   2.005   3.960  10.783  1.1668  0.1243  0.6012
 6196TIP3   OH242782   5.342   4.608  11.734  0.2469  0.4448 -0.6819
 6196TIP3    H142783   5.310   4.556  11.660 -0.5748  0.1125 -0.1193
 6196TIP3    H242784   5.390   4.680  11.695 -0.1151  0.2293 -1.5352
 6197TIP3   OH242785   4.485   2.888  11.238  0.1612 -0.0176 -0.0310
 6197TIP3    H142786   4.563   2.838  11.215  0.3871  1.5370 -3.0274
 6197TIP3    H242787   4.415   2.848  11.186  0.0200  1.6240 -1.1870
 6198TIP3   OH242788   1.194   6.164  11.737 -0.2220 -0.3801 -0.0140
 6198TIP3    H142789   1.108   6.192  11.707  0.1405  1.0392  0.2060
 6198TIP3    H242790   1.254   6.188  11.666  0.2353  0.3330  0.6009
 6199TIP3   OH242791   1.100   4.803  11.317 -0.0178  0.5110  0.2373
 6199TIP3    H142792   1.180   4.752  11.332 -0.7275 -0.3141  1.3920
 6199TIP3    H242793   1.086   4.851  11.399 -0.6090  0.7800 -0.0109
 6200TIP3   OH242794   6.898   1.730  10.148 -0.2204 -0.2125  0.2702
 6200TIP3    H142795   6.846   1.790  10.202 -0.2773  0.6098 -0.6670
 6200TIP3    H242796   6.971   1.783  10.116 -0.8800 -0.2910 -1.4892
 6201TIP3   OH242797   2.670   7.303  12.828 -0.1435 -0.9304  0.2011
 6201TIP3    H142798   2.718   7.240  12.773 -1.5320 -1.6364 -0.2748
 6201TIP3    H242799   2.594   7.253  12.859 -1.5778  0.6424 -0.6246
 6202TIP3   OH242800   7.458   5.203   9.932  0.1191 -0.4312  0.1643
 6202TIP3    H142801   7.465   5.199  10.027 -0.6815  0.2485  0.2660
 6202TIP3    H242802   7.368   5.231   9.916  0.8896  1.7900 -0.7167
 6203TIP3   OH242803   3.078   2.137  11.112 -0.1569 -0.8822 -0.7683
 6203TIP3    H142804   2.995   2.110  11.074 -0.1246  0.4918 -1.9068
 6203TIP3    H242805   3.118   2.192  11.045  0.6081  0.3885  0.6739
 6204TIP3   OH242806   3.896   3.778  10.622  0.0932 -0.2395  0.6406
 6204TIP3    H142807   3.875   3.826  10.542  1.1081  0.1308  0.5863
 6204TIP3    H242808   3.980   3.736  10.604  0.2257 -0.3347  1.4336
 6205TIP3   OH242809   0.088   0.765  12.200  0.0475  0.2593  0.1156
 6205TIP3    H142810   0.055   0.734  12.285 -0.7658  1.6226  0.3282
 6205TIP3    H242811   0.170   0.717  12.187 -0.1951 -0.5289  1.3110
 6206TIP3   OH242812   2.404   1.856  10.651 -0.2383 -0.0144 -0.0714
 6206TIP3    H142813   2.476   1.839  10.591  1.0685 -0.9770  1.6787
 6206TIP3    H242814   2.378   1.946  10.634  1.0608  0.1851 -1.0563
 6207TIP3   OH242815   4.289   3.921  11.152 -0.3431  0.3342 -0.0196
 6207TIP3    H142816   4.230   3.953  11.221  1.3196 -0.0685  1.6714
 6207TIP3    H242817   4.265   3.971  11.074 -0.1694  3.1837  1.6511
 6208TIP3   OH242818   2.769   4.770  11.070 -0.2622  0.0118  0.2697
 6208TIP3    H142819   2.771   4.803  10.980  2.0919  0.3165  0.3718
 6208TIP3    H242820   2.839   4.705  11.073  1.4966  1.8532  2.4888
 6209TIP3   OH242821   5.136   2.408  10.586  0.0016 -0.6057  0.4824
 6209TIP3    H142822   5.145   2.501  10.606  0.4904 -0.4134 -0.5838
 6209TIP3    H242823   5.201   2.365  10.643  0.3488 -0.2193  0.3810
 6210TIP3   OH242824   1.221   0.087  11.188  0.1570  0.2840 -0.0392
 6210TIP3    H142825   1.188   0.173  11.213  1.0341  1.6644 -3.2030
 6210TIP3    H242826   1.310   0.104  11.156  1.5489 -2.3184  2.0300
 6211TIP3   OH242827   2.422   7.631  11.524 -0.2566 -0.3557  0.3358
 6211TIP3    H142828   2.478   7.594  11.593 -0.3975  2.9586  2.4340
 6211TIP3    H242829   2.451   7.588  11.444  1.9915 -2.2068  1.9927
 6212TIP3   OH242830   2.438   5.907  12.580 -0.1438 -0.2732 -0.2229
 6212TIP3    H142831   2.489   5.895  12.500  0.6256  0.2230  0.1795
 6212TIP3    H242832   2.351   5.873  12.558 -0.4789  1.4532 -1.8500
 6213TIP3   OH242833   7.076   7.583  10.387 -0.0080  0.3485  0.2642
 6213TIP3    H142834   7.121   7.531  10.320  1.5237  0.3544  1.2389
 6213TIP3    H242835   7.116   7.670  10.381 -1.3943  0.9759 -0.2432
 6214TIP3   OH242836   0.287   4.585  11.462  0.1265  0.3693 -0.6847
 6214TIP3    H142837   0.318   4.535  11.538  1.5140  1.0966 -0.7364
 6214TIP3    H242838   0.367   4.609  11.415 -0.6914  0.1414 -2.2555
 6215TIP3   OH242839   6.464   0.804  11.549  0.6986 -0.2180  0.2057
 6215TIP3    H142840   6.559   0.802  11.542  0.7994  0.5233  1.1112
 6215TIP3    H242841   6.437   0.870  11.484  0.9450  0.6589  0.9633
 6216TIP3   OH242842   0.320   0.538  11.576  0.4528 -0.2778 -0.1672
 6216TIP3    H142843   0.335   0.628  11.547  0.5671  0.0160  0.7615
 6216TIP3    H242844   0.238   0.512  11.535  0.0608  0.5003  0.1042
 6217TIP3   OH242845   0.033   4.419  11.608  0.3207 -0.2135 -0.5434
 6217TIP3    H142846  -0.013   4.415  11.523  0.9092 -0.5720 -0.8517
 6217TIP3    H242847  -0.023   4.369  11.667  0.1606 -0.3903 -0.8379
 6218TIP3   OH242848   1.354   3.993  10.599 -0.0902 -0.5287  0.0383
 6218TIP3    H142849   1.329   3.970  10.510  0.7285  1.9667 -0.9301
 6218TIP3    H242850   1.431   4.050  10.589 -0.2235  0.1647  2.2947
 6219TIP3   OH242851   4.682   6.438  11.328 -0.0829  0.4952  0.1546
 6219TIP3    H142852   4.767   6.480  11.325  0.4323 -0.3694  1.5234
 6219TIP3    H242853   4.619   6.508  11.309  0.9011  1.2049 -0.5571
 6220TIP3   OH242854   2.530   4.215  11.470  0.2937  0.4335  0.1235
 6220TIP3    H142855   2.513   4.259  11.553  0.2695  0.0047  0.3429
 6220TIP3    H242856   2.476   4.137  11.471  0.4529  0.3137 -0.2049
 6221TIP3   OH242857   6.421   2.952  11.670 -0.5239  0.3308  0.2095
 6221TIP3    H142858   6.392   3.002  11.746 -3.2507 -0.3043 -0.2773
 6221TIP3    H242859   6.495   2.900  11.701 -0.3139  1.5308  1.8415
 6222TIP3   OH242860   1.322   6.258  10.203  0.8170  0.6225  0.2110
 6222TIP3    H142861   1.394   6.210  10.162  1.7144  0.5601  1.7807
 6222TIP3    H242862   1.359   6.343  10.225  0.1019  0.9620  0.1291
 6223TIP3   OH242863   1.782   6.743  11.252  0.3665  0.5782 -0.5490
 6223TIP3    H142864   1.841   6.693  11.307 -0.8026 -0.9061 -0.5991
 6223TIP3    H242865   1.788   6.833  11.286  1.4989  0.1711  0.3876
 6224TIP3   OH242866   1.799   1.034  11.115 -0.2248 -0.1481 -0.2790
 6224TIP3    H142867   1.888   1.006  11.096 -0.3933 -1.2512  0.4757
 6224TIP3    H242868   1.764   1.062  11.030  0.7924  0.1719 -0.5979
 6225TIP3   OH242869   2.874   0.767  10.247 -0.1721  0.2390 -0.0476
 6225TIP3    H142870   2.942   0.735  10.187  2.1493  3.2883  0.7180
 6225TIP3    H242871   2.879   0.708  10.322 -0.4667 -1.3106 -1.1955
 6226TIP3   OH242872   1.782   4.668  10.362  0.0507 -0.0157 -0.2440
 6226TIP3    H142873   1.732   4.751  10.361 -0.4524 -0.2749  1.1842
 6226TIP3    H242874   1.870   4.693  10.335 -0.8821  0.3900 -3.3205
 6227TIP3   OH242875   1.842   6.151  11.734  0.1497 -0.2913  0.0543
 6227TIP3    H142876   1.870   6.073  11.686  1.3814  0.7435 -0.9711
 6227TIP3    H242877   1.922   6.185  11.773 -0.6029 -0.3146  1.7124
 6228TIP3   OH242878   7.313   3.293  11.356  0.1552  0.1965 -0.0262
 6228TIP3    H142879   7.373   3.346  11.304  1.0814 -1.6822 -0.9634
 6228TIP3    H242880   7.273   3.233  11.294  1.1278 -1.9674  1.3117
 6229TIP3   OH242881   1.883   6.548  11.436  0.4610  0.1321 -0.7194
 6229TIP3    H142882   1.807   6.564  11.492  1.0249  0.4837 -0.0443
 6229TIP3    H242883   1.868   6.459  11.401  0.3698 -0.3183  0.4318
 6230TIP3   OH242884   3.487   6.783  11.360 -0.1036  0.5767 -0.1948
 6230TIP3    H142885   3.571   6.801  11.402  0.0637 -0.6043 -0.0072
 6230TIP3    H242886   3.425   6.842  11.404  0.2492  0.0393  1.0657
 6231TIP3   OH242887   4.227   5.645  12.658 -0.4095  0.2909  0.3604
 6231TIP3    H142888   4.201   5.730  12.622  1.7907  0.5526 -0.7664
 6231TIP3    H242889   4.188   5.580  12.599 -0.0057  0.5969 -0.2380
 6232TIP3   OH242890   4.819   4.437  10.538 -0.0257 -0.1107 -0.3274
 6232TIP3    H142891   4.774   4.433  10.622 -1.3916  0.0606 -1.0124
 6232TIP3    H242892   4.867   4.520  10.539  0.1835 -0.2328  0.3673
 6233TIP3   OH242893   6.779   4.987  11.300  0.5089  0.2991  0.0294
 6233TIP3    H142894   6.728   4.907  11.290  1.6137 -0.3144 -0.9529
 6233TIP3    H242895   6.743   5.029  11.379 -2.0649  0.3687 -1.0804
 6234TIP3   OH242896   3.295   6.790  10.726  0.0515  0.1954  0.1161
 6234TIP3    H142897   3.231   6.723  10.752  0.5302  0.2703  1.5504
 6234TIP3    H242898   3.366   6.741  10.685  0.5357 -0.2349  1.4251
 6235TIP3   OH242899   6.278   7.286  12.701  0.2137  0.4173  0.4544
 6235TIP3    H142900   6.349   7.227  12.676 -0.6454  0.0051 -1.1031
 6235TIP3    H242901   6.272   7.349  12.630 -1.7615 -0.2907 -0.0725
 6236TIP3   OH242902   0.648   7.518  10.490  0.1296  0.0188  0.1295
 6236TIP3    H142903   0.588   7.592  10.499 -0.1201  0.0123 -1.1997
 6236TIP3    H242904   0.617   7.472  10.411 -0.6880 -2.4009  1.7252
 6237TIP3   OH242905   3.321   2.578  10.846  0.1442 -0.1632 -0.7687
 6237TIP3    H142906   3.349   2.669  10.837 -0.1774  0.0602  0.3333
 6237TIP3    H242907   3.339   2.538  10.761  0.9759  0.7410 -1.0225
 6238TIP3   OH242908   4.952   1.053  11.623 -0.3927  0.2506 -0.0955
 6238TIP3    H142909   4.909   1.034  11.706  0.6935 -1.9061  0.0543
 6238TIP3    H242910   4.891   1.019  11.557 -0.8345  1.1105 -0.1354
 6239TIP3   OH242911   2.469   0.530  11.513  0.3347 -0.0613  0.3480
 6239TIP3    H142912   2.484   0.616  11.474  0.8069  0.1028  0.8801
 6239TIP3    H242913   2.504   0.468  11.449 -0.7617  0.0752 -0.4298
 6240TIP3   OH242914   4.431   3.645  10.505 -0.3192 -0.0808  0.4099
 6240TIP3    H142915   4.501   3.698  10.545  1.2024 -0.7522 -1.2053
 6240TIP3    H242916   4.419   3.572  10.566  0.0457  0.3085  0.9609
 6241TIP3   OH242917   7.436   2.896  10.766 -0.9506 -0.6954 -0.4436
 6241TIP3    H142918   7.518   2.858  10.737 -0.9070 -0.6573 -0.3702
 6241TIP3    H242919   7.375   2.878  10.695 -1.2725 -2.0644  0.1539
 6242TIP3   OH242920   3.263   7.374  10.155 -0.1637 -0.1967  0.1376
 6242TIP3    H142921   3.345   7.422  10.170 -1.2137  1.6266  0.3860
 6242TIP3    H242922   3.270   7.297  10.211  1.9171 -0.8070 -0.8477
 6243TIP3   OH242923   5.550   5.539  10.781 -0.2730  0.4477 -0.0044
 6243TIP3    H142924   5.461   5.536  10.746 -0.4775  0.9206  0.4671
 6243TIP3    H242925   5.543   5.498  10.867 -0.0984  0.7982  0.1753
 6244TIP3   OH242926   1.079   3.536  10.571  0.3427  0.0958 -0.1118
 6244TIP3    H142927   1.086   3.486  10.653  1.0893  0.2365 -0.0800
 6244TIP3    H242928   1.029   3.614  10.595  0.3251  0.0076  0.1458
 6245TIP3   OH242929   5.781   6.510  11.485  0.0742 -0.4565  0.1242
 6245TIP3    H142930   5.686   6.496  11.492 -0.0720  0.3149 -0.2701
 6245TIP3    H242931   5.807   6.458  11.409 -0.3366  0.7193 -0.8454
 6246TIP3   OH242932   7.167   0.083  10.644  0.2966 -0.6340  0.0189
 6246TIP3    H142933   7.109   0.156  10.666 -0.8584 -1.2579 -0.8499
 6246TIP3    H242934   7.180   0.091  10.550  0.7424 -1.1466  0.0349
 6247TIP3   OH242935   6.277   4.358  10.253 -0.1056  0.4669  0.3935
 6247TIP3    H142936   6.266   4.313  10.336  1.9941 -0.5166  0.2070
 6247TIP3    H242937   6.295   4.288  10.190  1.9183  1.3888 -0.1534
 6248TIP3   OH242938   7.339   0.324  12.425 -0.6662 -0.4560 -0.3207
 6248TIP3    H142939   7.336   0.318  12.330 -0.7149 -0.1660 -0.3398
 6248TIP3    H242940   7.317   0.236  12.456  1.2055 -1.0759 -0.5909
 6249TIP3   OH242941   1.881   6.644  12.340 -0.2679 -0.0421 -0.5331
 6249TIP3    H142942   1.809   6.695  12.377 -0.9553 -0.2260 -1.5790
 6249TIP3    H242943   1.948   6.708  12.318  0.0943  0.0874  0.8577
 6250TIP3   OH242944   7.526   5.837  11.751  0.0511  0.1162 -0.1499
 6250TIP3    H142945   7.614   5.802  11.766 -0.2986 -0.2082  1.3847
 6250TIP3    H242946   7.519   5.911  11.812 -1.0150 -0.3692  0.3408
 6251TIP3   OH242947   3.119   4.871  11.957  0.0976  0.0788  0.1784
 6251TIP3    H142948   3.103   4.964  11.942  0.7236  0.3221  0.9731
 6251TIP3    H242949   3.117   4.861  12.052  0.8852 -0.5611  0.1391
 6252TIP3   OH242950   2.684   3.170  10.798 -0.4249 -0.5963 -0.4415
 6252TIP3    H142951   2.765   3.192  10.845  0.9136 -2.2678 -1.8142
 6252TIP3    H242952   2.677   3.075  10.806 -2.1338 -0.5190 -0.6087
 6253TIP3   OH242953   6.998   1.312  11.103  0.5845 -0.4080  0.0034
 6253TIP3    H142954   6.972   1.229  11.064  0.8898 -0.4963 -0.0186
 6253TIP3    H242955   6.991   1.376  11.032 -3.0127  0.3064  0.8210
 6254TIP3   OH242956   2.778   6.453  10.207 -0.6047  0.0640 -0.1532
 6254TIP3    H142957   2.819   6.517  10.149 -2.0408  1.4249  0.2471
 6254TIP3    H242958   2.690   6.489  10.224 -1.1872 -1.6425  0.7060
 6255TIP3   OH242959   7.155   4.551  10.448  0.0242 -0.3746 -0.0724
 6255TIP3    H142960   7.067   4.516  10.462  0.7188 -1.9256  0.6410
 6255TIP3    H242961   7.178   4.591  10.532  0.0231  0.0240 -0.2568
 6256TIP3   OH242962   7.085   2.880   9.836 -0.0049 -0.0277  0.1807
 6256TIP3    H142963   7.022   2.837   9.778 -0.0952 -0.9386  0.9370
 6256TIP3    H242964   7.033   2.907   9.912  0.4290 -0.3482  0.5904
 6257TIP3   OH242965   1.087   6.947  11.427  0.0488  0.4687 -0.3545
 6257TIP3    H142966   1.034   7.024  11.449  1.9367  1.6659  0.2578
 6257TIP3    H242967   1.034   6.873  11.456 -1.0314  1.6201  0.7821
 6258TIP3   OH242968   5.690   0.659  12.884 -0.2309 -0.2302 -0.6597
 6258TIP3    H142969   5.656   0.748  12.882 -1.4363 -0.6151  1.0484
 6258TIP3    H242970   5.657   0.619  12.803  0.5060  0.9015 -1.5505
 6259TIP3   OH242971   3.404   1.563   9.893 -0.4967 -0.4660 -0.4513
 6259TIP3    H142972   3.316   1.602   9.891 -0.4437  0.0665  2.6346
 6259TIP3    H242973   3.463   1.637   9.882 -0.4072 -0.6753 -1.4448
 6260TIP3   OH242974   5.007   7.447  10.149 -0.0918  0.3393  0.0692
 6260TIP3    H142975   5.097   7.467  10.122 -0.2982  1.0783 -0.0778
 6260TIP3    H242976   4.979   7.524  10.198  0.0565 -0.6953  1.8798
 6261TIP3   OH242977   0.778   4.501  10.083 -0.1944  0.2665 -0.4578
 6261TIP3    H142978   0.715   4.552  10.032 -0.9920  0.1667  0.4052
 6261TIP3    H242979   0.771   4.536  10.171 -0.6858 -1.2622  0.1415
 6262TIP3   OH242980   1.765   1.773  12.155 -0.0326  0.0370  0.2985
 6262TIP3    H142981   1.816   1.694  12.134 -2.8478 -1.9643  0.3481
 6262TIP3    H242982   1.721   1.752  12.237 -0.1809  2.0846  0.8009
 6263TIP3   OH242983   2.739   3.148  11.689 -0.0884 -0.3889 -0.4762
 6263TIP3    H142984   2.678   3.212  11.725  0.5299  0.3489 -0.7130
 6263TIP3    H242985   2.804   3.136  11.758 -0.8108 -1.6347  0.0179
 6264TIP3   OH242986   0.419   1.372  10.240  1.0351 -0.0066 -0.1707
 6264TIP3    H142987   0.418   1.286  10.198  0.5039 -0.1101  0.0524
 6264TIP3    H242988   0.335   1.412  10.216 -0.4145 -1.0208  2.7374
 6265TIP3   OH242989   7.058   3.661  10.242 -0.0691  0.7915  0.4746
 6265TIP3    H142990   6.999   3.641  10.170 -0.1980  1.5596  0.3685
 6265TIP3    H242991   7.120   3.587  10.244 -0.1563  0.6981 -0.3188
 6266TIP3   OH242992   1.632   0.594  12.864  0.2864  0.9229  0.8728
 6266TIP3    H142993   1.545   0.632  12.871  0.2703  0.7272  1.9965
 6266TIP3    H242994   1.618   0.500  12.865  0.3957  0.8630 -0.8715
 6267TIP3   OH242995   2.244   7.546  10.843  0.6979  0.1235 -0.3922
 6267TIP3    H142996   2.204   7.585  10.921 -0.0261 -0.0668 -0.6639
 6267TIP3    H242997   2.319   7.498  10.877  0.7270  0.5183  0.1202
 6268TIP3   OH242998   0.023   3.073  10.829  0.3593 -0.5137  0.2134
 6268TIP3    H142999   0.069   3.154  10.848  1.0870 -1.4491  2.8610
 6268TIP3    H243000   0.027   3.023  10.911 -0.3059 -3.0986 -1.2129
 6269TIP3   OH243001   2.960   1.080  11.079  0.1086  0.2310  0.7490
 6269TIP3    H143002   2.911   1.145  11.028  0.7460 -1.3647 -2.0546
 6269TIP3    H243003   3.028   1.132  11.123  1.2061  1.4731 -2.1525
 6270TIP3   OH243004   5.987   5.292  12.270 -0.4659  0.1049 -0.4682
 6270TIP3    H143005   6.015   5.229  12.203 -0.6980  1.5365 -1.9774
 6270TIP3    H243006   5.981   5.241  12.350  0.0473 -1.6363 -1.4921
 6271TIP3   OH243007   6.005   0.405  11.774 -0.0728  0.2499  0.3471
 6271TIP3    H143008   6.016   0.316  11.741  1.4268  0.5799 -0.1262
 6271TIP3    H243009   5.915   0.428  11.751 -0.9363 -1.5920  1.6466
 6272TIP3   OH243010   2.032   2.806  12.538  0.3888 -0.3473 -0.0198
 6272TIP3    H143011   2.123   2.793  12.564  0.1056  0.7531  1.7024
 6272TIP3    H243012   2.036   2.864  12.463  1.0889  1.2890  1.2246
 6273TIP3   OH243013   6.814   5.822  11.993 -0.2504 -0.3971 -0.3391
 6273TIP3    H143014   6.876   5.767  11.944  0.1257 -0.2100 -0.0748
 6273TIP3    H243015   6.837   5.912  11.969 -0.3452 -0.3209 -0.1465
 6274TIP3   OH243016   5.185   1.013  10.392 -0.0448  0.2687  0.0668
 6274TIP3    H143017   5.258   0.984  10.448  1.9426 -0.5675 -2.7454
 6274TIP3    H243018   5.222   1.083  10.339 -1.1056 -0.5085 -1.7936
 6275TIP3   OH243019   0.056   3.930  12.768  0.6095  0.2668 -0.0298
 6275TIP3    H143020   0.097   3.999  12.717 -1.6541  1.6126 -0.1718
 6275TIP3    H243021  -0.034   3.926  12.735  0.3336 -1.9250  0.8284
 6276TIP3   OH243022   7.097   3.577   9.924  0.5780 -0.0695  0.0498
 6276TIP3    H143023   7.092   3.652   9.865 -1.6943  0.7478  1.1295
 6276TIP3    H243024   7.186   3.579   9.959  0.7909  1.6784 -0.5231
 6277TIP3   OH243025   6.426   4.911  11.419 -0.3376 -0.4177  0.0440
 6277TIP3    H143026   6.391   4.912  11.509  0.7104 -0.4633  0.4703
 6277TIP3    H243027   6.391   4.831  11.381 -0.3744 -0.6662  0.5881
 6278TIP3   OH243028   7.192   2.007  11.130  0.2872  0.1921  0.0623
 6278TIP3    H143029   7.268   2.050  11.169  0.0989  1.5051 -0.9624
 6278TIP3    H243030   7.198   2.026  11.036  0.0939 -1.8903 -0.4444
 6279TIP3   OH243031   4.568   0.013  11.117 -0.2329 -0.3146 -0.2174
 6279TIP3    H143032   4.597   0.010  11.209 -2.6034 -1.6459  0.6001
 6279TIP3    H243033   4.483   0.057  11.120  0.5513  1.4655 -2.1295
 6280TIP3   OH243034   6.184   6.600  11.688  0.2201 -0.0010 -0.3751
 6280TIP3    H143035   6.241   6.528  11.714  0.7907  0.7503  0.4704
 6280TIP3    H243036   6.097   6.573  11.718  0.5900  0.0910  0.8302
 6281TIP3   OH243037   6.137   2.927  10.346  0.1499  0.4556 -0.8847
 6281TIP3    H143038   6.183   3.010  10.331  0.0683  0.5554 -0.5765
 6281TIP3    H243039   6.081   2.917  10.269 -0.7711  1.3046 -0.3499
 6282TIP3   OH243040   0.278   0.870  11.848 -0.5749  0.6278 -0.2810
 6282TIP3    H143041   0.247   0.877  11.939 -0.7111 -0.3620 -0.2456
 6282TIP3    H243042   0.367   0.905  11.851 -0.3067 -0.0833  0.3948
 6283TIP3   OH243043   7.262   3.706  11.203 -0.1421 -0.3898  0.0262
 6283TIP3    H143044   7.166   3.703  11.199 -0.2500  0.6077  1.2841
 6283TIP3    H243045   7.284   3.784  11.152 -0.1766  0.6410  1.5211
 6284TIP3   OH243046   6.707   0.363  11.097  0.7249  0.2517 -0.4231
 6284TIP3    H143047   6.741   0.439  11.049  0.6056  0.3118 -0.4117
 6284TIP3    H243048   6.710   0.389  11.189  0.7887  0.2021 -0.4110
 6285TIP3   OH243049   1.451   0.048  12.149  0.1175  0.5894 -0.3612
 6285TIP3    H143050   1.456   0.132  12.194 -1.4905  0.8945 -0.6815
 6285TIP3    H243051   1.489  -0.015  12.210 -0.5504  1.2423  0.7576
 6286TIP3   OH243052   4.825   0.195  11.373  0.4225 -0.3187 -0.0154
 6286TIP3    H143053   4.842   0.201  11.467 -1.4745  0.3038  0.3470
 6286TIP3    H243054   4.910   0.176  11.333  1.5110  0.7707  1.6923
 6287TIP3   OH243055   4.380   5.190  10.591  0.2709 -0.4115  0.0607
 6287TIP3    H143056   4.445   5.257  10.608 -0.4018  0.4783 -0.7493
 6287TIP3    H243057   4.415   5.111  10.633  1.0471  0.4428  1.0816
 6288TIP3   OH243058   7.410   0.057  11.593 -0.0027 -0.2409 -0.0222
 6288TIP3    H143059   7.454   0.000  11.656 -0.7890  0.0532  0.8124
 6288TIP3    H243060   7.453   0.037  11.509 -0.1727 -1.9687  0.2573
 6289TIP3   OH243061   1.449   3.124  11.060  0.0824  0.2361 -0.3268
 6289TIP3    H143062   1.517   3.079  11.010  0.1918 -0.0509  0.0769
 6289TIP3    H243063   1.442   3.075  11.141  0.3523  1.0714  0.2155
 6290TIP3   OH243064   4.417   3.336  12.448 -0.5527 -0.1863 -0.2376
 6290TIP3    H143065   4.345   3.293  12.402 -0.2032 -1.3443  0.2737
 6290TIP3    H243066   4.495   3.287  12.422 -0.2506 -0.3846  0.9897
 6291TIP3   OH243067   4.110   2.225  11.919  0.2528  0.0240  0.7318
 6291TIP3    H143068   4.106   2.263  11.831  0.6609 -0.2261  0.6042
 6291TIP3    H243069   4.147   2.294  11.974 -1.8000  0.8867  1.1088
 6292TIP3   OH243070   2.510   3.993  10.146 -0.5544 -0.4627  0.1705
 6292TIP3    H143071   2.532   3.929  10.078 -1.4121  0.6024 -1.1409
 6292TIP3    H243072   2.590   4.044  10.157 -0.5356 -0.3738 -0.3462
 6293TIP3   OH243073   6.416   4.907   9.975  0.3250 -0.2071 -0.8254
 6293TIP3    H143074   6.509   4.902   9.952  0.7554  0.9955  0.4810
 6293TIP3    H243075   6.383   4.982   9.926  0.2395 -0.1656 -0.7050
 6294TIP3   OH243076   0.177   2.009  11.951  0.2627 -0.0847 -0.4487
 6294TIP3    H143077   0.132   2.065  11.888  0.0667 -1.5712 -1.6959
 6294TIP3    H243078   0.129   2.021  12.032 -1.4720 -0.4557 -1.3605
 6295TIP3   OH243079   2.480   7.553  10.608  0.3951  0.0164 -0.3184
 6295TIP3    H143080   2.462   7.537  10.701 -1.4731 -0.2499 -0.6735
 6295TIP3    H243081   2.532   7.633  10.607  2.3268 -1.1294  1.0341
 6296TIP3   OH243082   3.798   4.215  10.813 -0.2696  0.0218  0.0858
 6296TIP3    H143083   3.732   4.283  10.823 -0.2513 -0.1966  2.1735
 6296TIP3    H243084   3.881   4.260  10.825 -0.2084 -0.1872  0.4648
 6297TIP3   OH243085   2.361   4.475  11.999 -0.1588  0.0458  0.2120
 6297TIP3    H143086   2.399   4.398  12.042 -0.6286  0.5084  1.5002
 6297TIP3    H243087   2.308   4.517  12.066 -0.5795  1.0526 -0.7076
 6298TIP3   OH243088   1.913   4.352  11.580  0.3431 -0.3461 -0.3952
 6298TIP3    H143089   1.986   4.384  11.633  0.7717 -1.4401 -0.2878
 6298TIP3    H243090   1.896   4.264  11.613 -0.8868 -0.1943 -0.5747
 6299TIP3   OH243091   2.541   7.472  12.651  0.9226  0.0813 -0.1044
 6299TIP3    H143092   2.463   7.416  12.649  0.3110  0.8460  1.0145
 6299TIP3    H243093   2.602   7.424  12.707  0.1035  0.8270  1.5241
 6300TIP3   OH243094   0.222   5.540  10.980  0.0272  0.0830  0.6578
 6300TIP3    H143095   0.188   5.608  10.922  0.1631 -0.4186 -0.0302
 6300TIP3    H243096   0.312   5.568  11.000  0.8065 -0.8471 -1.2480
 6301TIP3   OH243097   3.101   6.651  10.475  0.3206 -0.2801 -0.6122
 6301TIP3    H143098   3.021   6.692  10.507  0.5364  0.1425 -0.6075
 6301TIP3    H243099   3.071   6.590  10.407 -0.1763 -1.4761  0.6382
 6302TIP3   OH243100   5.388   5.005   9.722 -0.1611 -0.8577 -0.5261
 6302TIP3    H143101   5.470   4.970   9.757  0.3023  1.0835  0.4364
 6302TIP3    H243102   5.399   5.001   9.627  0.6253 -1.5555 -0.4186
 6303TIP3   OH243103   0.349   1.910  10.567 -0.1836  0.1677  0.2388
 6303TIP3    H143104   0.417   1.963  10.608  1.3181 -0.9047 -0.7605
 6303TIP3    H243105   0.336   1.950  10.481  0.7801 -0.8984 -0.4226
 6304TIP3   OH243106   5.947   1.019  10.979 -0.2584 -0.2068 -0.0480
 6304TIP3    H143107   5.912   0.951  10.922 -1.0768  0.1432  0.0317
 6304TIP3    H243108   6.023   0.978  11.021  0.9783 -0.1895 -2.0785
 6305TIP3   OH243109   6.939   5.957  10.965  0.1079  0.2506 -0.2696
 6305TIP3    H143110   7.029   5.985  10.981  0.6727 -1.4722 -0.2026
 6305TIP3    H243111   6.887   6.037  10.969  1.6773  1.3208 -0.6540
 6306TIP3   OH243112   2.584   1.543  10.723 -0.3703 -0.0717 -0.1354
 6306TIP3    H143113   2.618   1.632  10.712  0.6499 -0.5514 -1.1326
 6306TIP3    H243114   2.568   1.534  10.816  1.7086  0.4132  0.3273
 6307TIP3   OH243115   2.994   7.576  10.431  0.6356  0.2619  0.6032
 6307TIP3    H143116   3.053   7.647  10.408  2.1868 -0.8300  1.0676
 6307TIP3    H243117   2.986   7.524  10.351  1.8587 -0.6387  1.0385
 6308TIP3   OH243118   1.191   1.855  10.088 -0.3802  0.0647 -0.6853
 6308TIP3    H143119   1.103   1.883  10.112 -0.5100 -0.9384  0.0893
 6308TIP3    H243120   1.241   1.936  10.081 -1.7481  0.7941 -2.9248
 6309TIP3   OH243121   4.963   4.116  10.770  0.1870  1.2079  0.3822
 6309TIP3    H143122   4.986   4.084  10.683 -0.5843  1.9317 -0.0995
 6309TIP3    H243123   4.874   4.149  10.761  0.0847  1.2751  1.4572
 6310TIP3   OH243124   6.941   1.768  11.963  0.2124  1.0672  0.3525
 6310TIP3    H143125   6.928   1.755  12.057 -1.9068 -0.1220 -0.0379
 6310TIP3    H243126   6.905   1.689  11.923 -0.0882  2.1012 -1.5196
 6311TIP3   OH243127   1.651   7.423  10.823  0.1163 -0.1095  0.1030
 6311TIP3    H143128   1.740   7.435  10.854  0.2948  1.3909 -0.8932
 6311TIP3    H243129   1.658   7.432  10.728 -0.6885 -2.7000 -0.2796
 6312TIP3   OH243130   2.330   4.377  10.142  0.5662  0.6254 -0.0146
 6312TIP3    H143131   2.343   4.301  10.086  0.4006 -0.8322  1.8155
 6312TIP3    H243132   2.235   4.389  10.145  0.6313  1.4460 -0.9606
 6313TIP3   OH243133   0.860   7.678  12.500  0.3431 -0.2192  0.7288
 6313TIP3    H143134   0.801   7.609  12.471  3.0192 -1.7237 -1.6814
 6313TIP3    H243135   0.908   7.640  12.574  1.5169 -0.8896 -0.3293
 6314TIP3   OH243136   7.314   6.909  11.386 -0.1024 -0.0052  0.3193
 6314TIP3    H143137   7.338   6.981  11.328 -0.6391  0.2158  0.3658
 6314TIP3    H243138   7.395   6.859  11.398  0.4967  1.0891  0.9976
 6315TIP3   OH243139   1.775   0.993  10.418  0.0329 -0.0510 -0.3378
 6315TIP3    H143140   1.833   1.056  10.375 -0.3527  0.3305 -0.3081
 6315TIP3    H243141   1.787   1.008  10.511  0.5593 -0.5938 -0.3162
 6316TIP3   OH243142   3.721   0.100  11.321 -0.4707  0.5383  0.2501
 6316TIP3    H143143   3.635   0.123  11.356  0.1938  0.3781  2.1443
 6316TIP3    H243144   3.736   0.011  11.354  1.1122  1.2005  1.4381
 6317TIP3   OH243145   1.928   3.992  12.045  0.5002  0.1784  0.0263
 6317TIP3    H143146   1.903   3.900  12.042  2.3250 -0.3303 -1.5485
 6317TIP3    H243147   2.014   3.992  12.088  0.7337  1.0835 -0.4261
 6318TIP3   OH243148   2.600   4.445   9.755  0.1170 -0.4573 -0.4780
 6318TIP3    H143149   2.552   4.527   9.765  2.1908  0.9859 -1.5793
 6318TIP3    H243150   2.621   4.418   9.845  0.2774  0.7799 -0.1307
 6319TIP3   OH243151   0.085   6.659  11.271 -0.0687  0.1252  0.2032
 6319TIP3    H143152   0.112   6.681  11.182 -0.5998  0.6046  0.1550
 6319TIP3    H243153   0.166   6.631  11.314  0.1934 -0.1096 -0.4240
 6320TIP3   OH243154   2.396   5.337  12.323 -0.5078  0.4967 -0.0459
 6320TIP3    H143155   2.463   5.399  12.293  0.1513 -0.6559 -1.0610
 6320TIP3    H243156   2.432   5.251  12.302 -2.0371 -0.1868 -0.0240
 6321TIP3   OH243157   4.590   0.292  11.602  0.1443 -0.5595 -0.4932
 6321TIP3    H143158   4.568   0.347  11.527 -0.6224  1.5634  1.1574
 6321TIP3    H243159   4.509   0.244  11.622 -0.4407  0.7359  0.3950
 6322TIP3   OH243160   1.155   5.785   9.955 -0.3066  0.5063  0.0956
 6322TIP3    H143161   1.081   5.735   9.920  0.0777 -1.4167  1.8204
 6322TIP3    H243162   1.216   5.718   9.985  0.4640  2.0109  2.0855
 6323TIP3   OH243163   3.180   3.260   9.978 -0.2949 -0.3186  0.2429
 6323TIP3    H143164   3.265   3.300   9.993 -0.3736  0.3740 -1.0000
 6323TIP3    H243165   3.127   3.285  10.054  0.8823 -1.6166  1.5306
 6324TIP3   OH243166   0.264   1.030  12.079 -0.0551 -0.3449  0.2938
 6324TIP3    H143167   0.296   1.089  12.011  1.7669 -0.7493  0.7452
 6324TIP3    H243168   0.174   1.057  12.094 -0.8713 -0.8740 -2.9533
 6325TIP3   OH243169   7.521   6.352  10.959  0.0204  0.2807 -0.4012
 6325TIP3    H143170   7.547   6.437  10.926  1.1362  0.3970  0.7145
 6325TIP3    H243171   7.439   6.368  11.005 -0.0162  0.6590 -0.5993
 6326TIP3   OH243172   0.356   0.257  10.605 -0.2725  0.1700 -0.5817
 6326TIP3    H143173   0.385   0.349  10.604  2.9704 -0.7084 -0.6380
 6326TIP3    H243174   0.325   0.243  10.695  1.2918  0.8118  0.1065
 6327TIP3   OH243175   0.258   2.224  12.157  0.2131 -0.1235  0.2864
 6327TIP3    H143176   0.274   2.241  12.064  0.9068  0.0578  0.4303
 6327TIP3    H243177   0.164   2.240  12.169  0.2308  0.4313 -0.2596
 6328TIP3   OH243178   4.511   6.964  11.934  0.1569  0.2087 -0.0460
 6328TIP3    H143179   4.488   6.896  11.872  1.1839  0.7500 -1.0501
 6328TIP3    H243180   4.429   6.984  11.980 -0.1954 -1.5115  0.1088
 6329TIP3   OH243181   2.555   0.494  10.000  0.3207 -0.5584 -0.0476
 6329TIP3    H143182   2.634   0.491   9.946  0.8449  1.0520  0.5666
 6329TIP3    H243183   2.561   0.577  10.047 -1.7167 -0.4141  0.0685
 6330TIP3   OH243184   3.848   5.707  10.617  0.2056 -0.4658  0.0232
 6330TIP3    H143185   3.916   5.716  10.550  0.5826 -1.4407  0.2630
 6330TIP3    H243186   3.809   5.795  10.623  0.9997 -0.0561 -0.5775
 6331TIP3   OH243187   7.314   5.483   9.788 -0.4984 -0.2661 -0.2331
 6331TIP3    H143188   7.222   5.459   9.777 -0.5424 -1.5418  2.2776
 6331TIP3    H243189   7.312   5.563   9.841 -0.1765 -0.4173  0.0116
 6332TIP3   OH243190   6.711   4.310  11.688  0.0116  0.1206 -0.1934
 6332TIP3    H143191   6.736   4.252  11.760  0.9998  1.2675  0.3977
 6332TIP3    H243192   6.700   4.396  11.728  1.8129  1.0559 -1.5959
 6333TIP3   OH243193   4.843   1.519   9.938  0.3515  0.8749 -0.4541
 6333TIP3    H143194   4.851   1.459   9.864  1.3058 -1.1642  1.2098
 6333TIP3    H243195   4.898   1.594   9.915  0.6985  0.2379 -1.7646
 6334TIP3   OH243196   0.464   3.861  11.265 -0.0636 -0.4912 -0.1336
 6334TIP3    H143197   0.430   3.928  11.325  0.5728  2.2842 -2.6504
 6334TIP3    H243198   0.559   3.873  11.267  0.1441 -1.9356 -0.0396
 6335TIP3   OH243199   0.638   7.391  11.230  0.0206 -0.2236 -0.1877
 6335TIP3    H143200   0.605   7.414  11.317 -1.5905 -0.9285 -0.5695
 6335TIP3    H243201   0.729   7.421  11.230 -0.0728  0.1759  1.5772
 6336TIP3   OH243202   2.115   3.003  10.791 -0.0347 -0.0887 -0.6185
 6336TIP3    H143203   2.133   2.931  10.851 -1.2879 -0.8006 -1.0405
 6336TIP3    H243204   2.047   3.054  10.835  0.0137  0.1611 -0.8326
 6337TIP3   OH243205   4.685   1.776  11.307 -0.4649 -0.5880  0.2322
 6337TIP3    H143206   4.737   1.847  11.269 -0.5058 -0.3972  0.5344
 6337TIP3    H243207   4.620   1.756  11.240 -1.9243  1.2242  1.0434
 6338TIP3   OH243208   3.702   5.490  11.701  0.3894  0.0355 -0.3235
 6338TIP3    H143209   3.608   5.509  11.693 -0.0019 -0.7167  1.8218
 6338TIP3    H243210   3.710   5.398  11.676  0.2411 -0.3880  1.0944
 6339TIP3   OH243211   5.546   1.775  11.123  0.1345 -0.2580  0.3793
 6339TIP3    H143212   5.635   1.798  11.095 -0.4142  0.4358 -0.8397
 6339TIP3    H243213   5.490   1.839  11.079 -0.9850 -0.7482  1.0689
 6340TIP3   OH243214   6.924   5.735  12.397 -0.1383 -0.5151  0.0380
 6340TIP3    H143215   7.001   5.766  12.445  0.6884 -0.1902 -1.4299
 6340TIP3    H243216   6.850   5.772  12.444  0.6691  0.3027  0.6981
 6341TIP3   OH243217   1.618   1.663  12.366  0.1388 -0.3885  0.3425
 6341TIP3    H143218   1.537   1.701  12.399 -1.9258 -2.7789 -1.5276
 6341TIP3    H243219   1.655   1.615  12.440 -0.8169 -0.2563  0.9209
 6342TIP3   OH243220   2.625   1.148  11.788  0.5041 -0.1124 -0.0591
 6342TIP3    H143221   2.563   1.162  11.860  0.7904  1.0100 -0.0104
 6342TIP3    H243222   2.576   1.098  11.723 -0.2203  0.1436  0.2843
 6343TIP3   OH243223   1.184   4.999  10.821  0.3961 -0.3267 -0.0404
 6343TIP3    H143224   1.209   5.026  10.909 -1.0282  3.3210 -0.5639
 6343TIP3    H243225   1.102   4.952  10.833  0.3998 -0.1743  0.6356
 6344TIP3   OH243226   4.540   1.583  11.435 -0.3451  0.3234  0.3028
 6344TIP3    H143227   4.544   1.497  11.393 -0.3240  0.4837 -0.0278
 6344TIP3    H243228   4.595   1.639  11.380 -1.2576  0.8169 -0.1302
 6345TIP3   OH243229   4.508   5.885  10.689 -0.1906 -0.1352 -0.4340
 6345TIP3    H143230   4.440   5.827  10.653 -1.3399  1.8544 -1.6726
 6345TIP3    H243231   4.586   5.864  10.638  0.0513 -2.0827  0.6359
 6346TIP3   OH243232   5.374   0.554  10.142 -0.1231 -0.4818  0.3414
 6346TIP3    H143233   5.422   0.636  10.148 -0.7694  0.0170 -0.8975
 6346TIP3    H243234   5.423   0.501  10.079 -1.1558  0.0507 -0.9721
 6347TIP3   OH243235   1.288   1.559  11.099 -0.3188  0.7146  0.4376
 6347TIP3    H143236   1.305   1.631  11.039  1.8563  1.8825  2.2964
 6347TIP3    H243237   1.274   1.600  11.183  1.7901 -0.9769  1.7308
 6348TIP3   OH243238   7.544   2.237  11.962  0.3776  0.1459  0.5412
 6348TIP3    H143239   7.548   2.333  11.957 -0.4946  0.1551 -0.3439
 6348TIP3    H243240   7.596   2.215  12.039  2.5166  1.1724 -0.5095
 6349TIP3   OH243241   2.448   3.428   9.708 -0.1754 -0.3855  0.0452
 6349TIP3    H143242   2.464   3.462   9.796 -0.4406 -0.3036  0.0637
 6349TIP3    H243243   2.353   3.415   9.704 -0.2410  0.1831 -0.4294
 6350TIP3   OH243244   1.842   4.182  11.849 -0.5029 -0.3235  0.3577
 6350TIP3    H143245   1.857   4.136  11.931 -2.9021 -1.2027  0.3655
 6350TIP3    H243246   1.809   4.268  11.876  1.2614  0.4077  0.3014
 6351TIP3   OH243247   5.509   5.949  11.673  0.1918  0.7693 -0.1004
 6351TIP3    H143248   5.546   5.908  11.751 -1.0440  1.3427  0.8307
 6351TIP3    H243249   5.441   5.888  11.644  1.8433 -0.3396 -1.8666
 6352TIP3   OH243250   6.919   2.654  10.247  0.1374  0.2080  0.1416
 6352TIP3    H143251   6.928   2.559  10.254 -1.4962 -0.1359 -1.3524
 6352TIP3    H243252   6.829   2.672  10.277  0.4855  1.3088  0.5879
 6353TIP3   OH243253   7.444   3.170  12.257 -0.1764 -0.0563 -0.2052
 6353TIP3    H143254   7.496   3.107  12.306  0.4871  0.0980 -0.6925
 6353TIP3    H243255   7.362   3.124  12.238 -0.0883 -0.4208  0.2864
 6354TIP3   OH243256   3.362   2.771  11.502  0.4665 -0.3184 -0.0742
 6354TIP3    H143257   3.367   2.861  11.535  1.8545 -0.0281 -0.9702
 6354TIP3    H243258   3.340   2.719  11.579 -1.3772  0.8600  0.2820
 6355TIP3   OH243259   1.320   2.142  10.216 -0.4512 -0.1609 -0.0364
 6355TIP3    H143260   1.368   2.069  10.255  1.2691  1.5998  1.2661
 6355TIP3    H243261   1.252   2.164  10.280 -0.7899 -0.3900 -0.3064
 6356TIP3   OH243262   5.155   5.264  11.967  0.0263 -0.1489  0.3192
 6356TIP3    H143263   5.126   5.355  11.967  0.1949 -0.0879  1.4236
 6356TIP3    H243264   5.149   5.237  11.875  0.4604  1.1253 -0.1018
 6357TIP3   OH243265   5.579   3.812  11.158  0.0075 -0.1612  0.3054
 6357TIP3    H143266   5.577   3.896  11.112 -0.7030  0.0194  0.6679
 6357TIP3    H243267   5.574   3.747  11.088  0.2494  0.0992  0.0431
 6358TIP3   OH243268   7.630   1.145  11.016 -0.0594 -0.1415 -0.1121
 6358TIP3    H143269   7.695   1.128  11.084  0.1831  0.0890 -0.2851
 6358TIP3    H243270   7.552   1.171  11.064 -0.3585 -1.4426  0.1494
 6359TIP3   OH243271   7.280   7.302  11.078 -0.0850  0.3364 -0.3052
 6359TIP3    H143272   7.326   7.270  11.000 -0.9131  0.2112 -0.7598
 6359TIP3    H243273   7.194   7.329  11.045 -0.4514  0.2639  0.5701
 6360TIP3   OH243274   7.309   5.280  11.416 -0.3420 -1.0512 -0.2168
 6360TIP3    H143275   7.276   5.290  11.327  0.4026  1.3967 -0.2926
 6360TIP3    H243276   7.404   5.279  11.407 -0.2560 -0.7002  0.5424
 6361TIP3   OH243277   1.547   6.340  11.359 -0.2531  0.3376 -0.5231
 6361TIP3    H143278   1.548   6.316  11.267  0.2238 -0.0519 -0.4215
 6361TIP3    H243279   1.541   6.435  11.359 -0.1052  0.3480 -0.9537
 6362TIP3   OH243280   6.186   2.800  10.780 -0.1926 -0.2308  0.2153
 6362TIP3    H143281   6.222   2.828  10.864  1.8566  0.4221 -0.7982
 6362TIP3    H243282   6.256   2.748  10.740 -1.6513 -1.7280 -0.5244
 6363TIP3   OH243283   0.133   4.270  11.077 -0.6700  0.1652 -0.1414
 6363TIP3    H143284   0.114   4.187  11.121  0.3845  0.4481  0.8922
 6363TIP3    H243285   0.158   4.244  10.988 -1.5596 -0.5143 -0.2076
 6364TIP3   OH243286   4.120   7.654  10.148 -0.0851 -0.3630 -0.2783
 6364TIP3    H143287   4.115   7.715  10.075  4.2087  3.4740  2.0569
 6364TIP3    H243288   4.192   7.595  10.126  0.8541  0.4549  0.4588
 6365TIP3   OH243289   0.138   5.705  10.769  0.1465 -0.2485  0.0635
 6365TIP3    H143290   0.139   5.697  10.674  3.5427 -2.0414  0.0890
 6365TIP3    H243291   0.178   5.790  10.786 -1.2053  0.4357 -0.0638
 6366TIP3   OH243292   3.675   0.455   9.831  0.1484  0.2523  0.4925
 6366TIP3    H143293   3.735   0.509   9.780 -1.3445  0.9385 -0.6239
 6366TIP3    H243294   3.673   0.496   9.917  1.4102  0.0930  0.6092
 6367TIP3   OH243295   1.496   1.300  11.770 -0.3120 -0.9638 -0.7947
 6367TIP3    H143296   1.482   1.302  11.865  1.4506 -2.1970 -0.4527
 6367TIP3    H243297   1.486   1.208  11.746  0.5048 -0.8640 -1.5699
 6368TIP3   OH243298   0.231   3.005   9.526  0.9194 -0.3631 -0.5590
 6368TIP3    H143299   0.226   2.928   9.470  1.5174 -1.2448  0.5648
 6368TIP3    H243300   0.161   2.993   9.590  0.1712  0.6869 -1.1544
 6369TIP3   OH243301   6.609   1.322  11.345  0.2255  0.2144  0.3427
 6369TIP3    H143302   6.589   1.409  11.309 -0.6362  0.2603  0.8947
 6369TIP3    H243303   6.581   1.261  11.278 -3.6119  0.1874  1.7353
 6370TIP3   OH243304   5.438   2.711  10.228 -0.3460 -0.3509  0.4477
 6370TIP3    H143305   5.509   2.652  10.254  0.3621 -0.5962 -1.8664
 6370TIP3    H243306   5.361   2.679  10.277  0.5778 -1.5834  1.1524
 6371TIP3   OH243307   5.221   2.188  10.297 -0.3154 -0.5822 -0.3659
 6371TIP3    H143308   5.179   2.272  10.279 -0.8428 -0.7467  0.0740
 6371TIP3    H243309   5.284   2.207  10.366  0.4337 -0.3143 -1.0960
 6372TIP3   OH243310   4.824   0.182  10.291  0.4124 -0.7217 -0.2643
 6372TIP3    H143311   4.781   0.154  10.211 -0.9844 -1.1312  0.5926
 6372TIP3    H243312   4.791   0.271  10.307  0.2079 -0.8718  0.1720
 6373TIP3   OH243313   3.022   7.149   9.854 -0.5117  0.4760  0.1147
 6373TIP3    H143314   3.031   7.055   9.842  0.8664  0.5184  0.6524
 6373TIP3    H243315   2.934   7.169   9.821 -0.0287 -0.6429 -2.0502
 6374TIP3   OH243316   3.621   3.901  12.375 -0.7339  0.2870  0.2419
 6374TIP3    H143317   3.541   3.866  12.335 -0.3626  0.9501 -1.1760
 6374TIP3    H243318   3.649   3.834  12.437  1.0565 -3.1379 -3.7289
 6375TIP3   OH243319   2.309   0.290  11.727  0.2729 -0.3631 -0.2711
 6375TIP3    H143320   2.279   0.381  11.720  1.2165 -0.0764 -0.7419
 6375TIP3    H243321   2.232   0.237  11.706 -0.7299  0.2813  1.5345
 6376TIP3   OH243322   7.582   4.245   9.877  0.0810 -0.4566  0.3391
 6376TIP3    H143323   7.566   4.189   9.952  1.3332 -2.1549 -0.5952
 6376TIP3    H243324   7.562   4.190   9.801 -0.5654  1.0120 -0.6064
 6377TIP3   OH243325   1.794   1.658  11.880  0.0488 -0.3386 -0.0626
 6377TIP3    H143326   1.757   1.603  11.810  2.1235 -1.8579 -0.0355
 6377TIP3    H243327   1.855   1.716  11.834  0.1648 -0.1836  0.2907
 6378TIP3   OH243328   4.434   5.782  10.976 -0.2938 -0.1457 -0.2934
 6378TIP3    H143329   4.454   5.795  10.883  0.7465  2.1983  0.1686
 6378TIP3    H243330   4.422   5.871  11.010  0.4442 -0.8638  2.0388
 6379TIP3   OH243331   1.636   7.525   9.791  0.5511 -0.0583  0.4957
 6379TIP3    H143332   1.619   7.617   9.809 -4.6396 -0.0928 -2.2578
 6379TIP3    H243333   1.568   7.478   9.838  1.4732 -2.2745 -0.2337
 6380TIP3   OH243334   1.403   4.780  12.426  0.5245  0.4571  0.0731
 6380TIP3    H143335   1.451   4.803  12.346  1.3635  0.7452  0.6483
 6380TIP3    H243336   1.334   4.721  12.396  0.8855  0.4866 -0.8525
 6381TIP3   OH243337   0.986   0.661  11.223  0.1525  0.1971  0.0494
 6381TIP3    H143338   0.962   0.579  11.265 -1.1777 -0.4002 -1.7588
 6381TIP3    H243339   1.063   0.639  11.171 -1.4674 -0.5377 -2.1580
 6382TIP3   OH243340   4.993   7.032  11.576 -0.0806 -0.0403 -0.2721
 6382TIP3    H143341   4.970   7.042  11.483  2.4404  0.7765 -0.8955
 6382TIP3    H243342   5.071   6.977  11.575 -0.7009 -1.0050  1.5028
 6383TIP3   OH243343   3.934   7.074  11.265 -1.2103 -0.3445 -0.0895
 6383TIP3    H143344   3.992   7.019  11.319 -0.8626  2.2266  2.3774
 6383TIP3    H243345   3.993   7.136  11.223 -1.8373 -0.1187 -0.6468
 6384TIP3   OH243346   2.247   3.335  10.085 -0.0804 -0.1794  0.0662
 6384TIP3    H143347   2.323   3.324  10.142 -0.5004 -0.2447  0.6251
 6384TIP3    H243348   2.171   3.324  10.144 -0.5617  2.5150  0.0757
 6385TIP3   OH243349   6.297   7.075  11.979  0.1909  0.0650  0.1094
 6385TIP3    H143350   6.251   7.115  11.906 -0.3850  1.7462  1.3291
 6385TIP3    H243351   6.382   7.119  11.982 -0.5189  1.4589  1.5756
 6386TIP3   OH243352   2.345   5.669  11.772  0.5614 -0.8603 -0.0205
 6386TIP3    H143353   2.336   5.690  11.865  1.3343  0.3723 -0.1982
 6386TIP3    H243354   2.419   5.609  11.768  0.9222 -0.4307  0.1070
 6387TIP3   OH243355   6.999   0.488  11.144 -0.7501  0.4049  0.0983
 6387TIP3    H143356   7.026   0.451  11.060 -0.7887  1.5305 -0.4375
 6387TIP3    H243357   7.005   0.416  11.206  3.2594  0.3997  0.0175
 6388TIP3   OH243358   7.300   2.175  10.362 -0.3123 -0.1762  0.0640
 6388TIP3    H143359   7.312   2.238  10.291 -1.5279  2.6780  2.2021
 6388TIP3    H243360   7.212   2.139  10.348 -0.0734 -0.5663 -0.5047
 6389TIP3   OH243361   2.716   1.442  12.449  0.0788 -0.4784  0.5834
 6389TIP3    H143362   2.725   1.378  12.520 -0.0537 -1.4317 -0.2365
 6389TIP3    H243363   2.673   1.393  12.379  1.8939 -0.1025 -0.8491
 6390TIP3   OH243364   6.316   7.121  12.244 -0.1101  0.4315 -0.0041
 6390TIP3    H143365   6.283   7.094  12.158  2.7983 -1.1658 -0.7589
 6390TIP3    H243366   6.334   7.215  12.235 -0.5872  0.4440 -0.8806
 6391TIP3   OH243367   4.473   1.147  10.747  0.1348 -0.4434  0.0385
 6391TIP3    H143368   4.408   1.092  10.792 -0.3331 -1.5288 -1.8580
 6391TIP3    H243369   4.556   1.125  10.789 -0.6853  1.2755  2.7948
 6392TIP3   OH243370   2.138   1.801  10.525 -0.1173  0.1450 -0.0481
 6392TIP3    H143371   2.225   1.793  10.563 -0.0795  0.4760 -0.0605
 6392TIP3    H243372   2.117   1.714  10.493  0.3023  0.1173 -0.2471
 6393TIP3   OH243373   5.538   3.001  10.957  0.0559 -0.1476 -0.1903
 6393TIP3    H143374   5.619   3.019  11.006 -0.5661  1.0761  0.4306
 6393TIP3    H243375   5.486   3.080  10.967 -2.0365 -1.5678  0.9903
 6394TIP3   OH243376   1.537   1.447  10.939 -0.2566  0.1000  0.0599
 6394TIP3    H143377   1.449   1.461  10.972 -0.3520  0.6676 -0.4210
 6394TIP3    H243378   1.525   1.419  10.849  0.0290 -0.6953  0.2594
 6395TIP3   OH243379   1.274   2.168  11.954  0.0889  0.2138  0.1052
 6395TIP3    H143380   1.274   2.094  11.894 -1.9882  0.8408 -0.7403
 6395TIP3    H243381   1.237   2.133  12.035  0.5671 -0.0440  0.2127
 6396TIP3   OH243382   6.786   1.232  17.430  0.1971  0.1867 -0.2543
 6396TIP3    H143383   6.784   1.259  17.338 -3.7360 -1.2645 -0.7915
 6396TIP3    H243384   6.835   1.150  17.430  0.7188  0.4876 -0.9316
 6397TIP3   OH243385   2.362   5.895  11.225  0.1033  0.9008 -0.1642
 6397TIP3    H143386   2.369   5.973  11.171  1.1264 -0.2094 -1.7261
 6397TIP3    H243387   2.283   5.851  11.193  1.1144 -0.1321 -1.3409
 6398TIP3   OH243388   0.654   4.940  10.959  0.1354  0.0441 -0.1542
 6398TIP3    H143389   0.705   5.010  11.000 -0.1542  0.5168 -0.5913
 6398TIP3    H243390   0.591   4.915  11.027  1.7640 -1.4658  0.8844
 6399TIP3   OH243391   0.540   2.541  10.055  0.5456 -0.4070 -0.3910
 6399TIP3    H143392   0.619   2.586  10.027  1.3971 -1.8798 -0.4403
 6399TIP3    H243393   0.495   2.605  10.111  2.3378  0.0518  0.6060
 6400TIP3   OH243394   1.976   2.380  11.720 -0.1722  0.0994  0.7958
 6400TIP3    H143395   2.052   2.423  11.682  0.8214 -1.3778  1.0451
 6400TIP3    H243396   1.997   2.370  11.813 -0.2295 -1.1686  0.6916
 6401TIP3   OH243397   6.859   4.464  10.864  0.3564 -0.6164  0.6405
 6401TIP3    H143398   6.890   4.552  10.887 -0.4101 -0.0703 -0.3570
 6401TIP3    H243399   6.850   4.420  10.949  0.7557  0.2597  1.1596
 6402TIP3   OH243400   2.483   2.851   9.664 -0.1865  0.2971 -0.2422
 6402TIP3    H143401   2.448   2.906   9.735  0.9540  0.2200  0.4127
 6402TIP3    H243402   2.532   2.911   9.609 -2.4354  0.6760 -1.9910
 6403TIP3   OH243403   4.238   3.370  10.961  0.8476  0.2946 -0.0346
 6403TIP3    H143404   4.233   3.275  10.954  0.7896  0.3228 -0.4569
 6403TIP3    H243405   4.318   3.387  11.010 -0.3234 -0.0325  2.0857
 6404TIP3   OH243406   3.631   1.264  10.434  0.5875  0.0903 -0.3754
 6404TIP3    H143407   3.719   1.228  10.436  0.4256 -0.3957 -1.4842
 6404TIP3    H243408   3.643   1.358  10.449  1.5451  0.4281 -2.7891
 6405TIP3   OH243409   2.434   1.122  11.991 -0.8844  0.4395  0.1559
 6405TIP3    H143410   2.343   1.126  11.963 -1.3879 -0.0078  1.6458
 6405TIP3    H243411   2.436   1.055  12.059  0.7646 -0.2856 -0.5614
 6406TIP3   OH243412   4.856   3.850  11.048 -0.1359 -0.0942  0.7565
 6406TIP3    H143413   4.777   3.861  11.100 -0.1064 -1.3911  1.1123
 6406TIP3    H243414   4.921   3.815  11.109  0.3719 -0.1442  0.2073
 6407TIP3   OH243415   3.061   1.773  10.440  0.6051 -0.4020  0.7955
 6407TIP3    H143416   2.966   1.770  10.432  0.3680  0.8172  2.5064
 6407TIP3    H243417   3.085   1.689  10.479  0.8193 -2.6038 -3.5173
 6408TIP3   OH243418   3.104   6.523  11.615 -0.0306  0.2499  0.2858
 6408TIP3    H143419   3.136   6.558  11.699  2.3500 -0.5548 -0.1949
 6408TIP3    H243420   3.172   6.547  11.552 -0.4714 -1.4036 -0.8838
 6409TIP3   OH243421   4.473   0.494  10.354  0.1926 -0.3951  0.1631
 6409TIP3    H143422   4.438   0.417  10.308  0.7134 -1.9350  2.1831
 6409TIP3    H243423   4.402   0.520  10.413 -0.4380  1.5095 -1.3022
 6410TIP3   OH243424   6.415   5.134   9.815  0.2506 -0.6503 -0.1667
 6410TIP3    H143425   6.457   5.215   9.844  1.7119 -1.4082 -0.1283
 6410TIP3    H243426   6.469   5.103   9.743 -1.4390 -0.5710 -1.5595
 6411TIP3   OH243427   2.482   0.598  11.790 -1.0105  0.3006 -0.4763
 6411TIP3    H143428   2.502   0.691  11.796 -2.8373  0.6591  0.6348
 6411TIP3    H243429   2.491   0.577  11.697 -2.3013  2.0270 -1.0298
 6412TIP3   OH243430   1.013   5.955  10.352  0.0425 -0.0259 -0.1805
 6412TIP3    H143431   0.972   6.041  10.361 -0.6044 -0.0716 -2.1012
 6412TIP3    H243432   1.048   5.955  10.262  1.4077 -1.2003  0.3142
 6413TIP3   OH243433   2.657   3.091  11.409 -0.0999 -0.0575 -0.1793
 6413TIP3    H143434   2.698   3.118  11.492 -0.5540 -1.0883  0.3961
 6413TIP3    H243435   2.715   3.024  11.374 -1.1321 -1.3917  0.5466
 6414TIP3   OH243436   2.513   5.782  11.491  0.2871  0.6720  0.0473
 6414TIP3    H143437   2.418   5.776  11.483 -0.3402  3.6357  3.0483
 6414TIP3    H243438   2.534   5.870  11.459  2.0481  0.1295 -0.4344
 6415TIP3   OH243439   0.505   3.698  11.941 -0.0545  0.1389 -0.3434
 6415TIP3    H143440   0.577   3.758  11.958 -1.5889  1.8758  0.3414
 6415TIP3    H243441   0.507   3.636  12.014  2.4181 -1.6607 -1.7923
 6416TIP3   OH243442   3.061   7.434  11.712 -0.2729 -0.0168  0.2000
 6416TIP3    H143443   3.133   7.457  11.771 -0.1169  1.0659 -0.3881
 6416TIP3    H243444   3.006   7.512  11.709  1.1574  1.0296 -3.1983
 6417TIP3   OH243445   4.928   4.543  11.100  0.6175 -0.1363  0.3845
 6417TIP3    H143446   4.955   4.472  11.042  2.2308  1.6526 -1.1998
 6417TIP3    H243447   4.862   4.591  11.050  0.9665  0.5961  0.6058
 6418TIP3   OH243448   7.325   2.047  12.256 -0.0393  0.3814 -0.3126
 6418TIP3    H143449   7.364   2.102  12.325  0.8124 -2.2526  1.4768
 6418TIP3    H243450   7.394   1.984  12.235 -1.9734 -2.0140  0.1475
 6419TIP3   OH243451   1.247   4.023  11.577 -0.6897 -0.1226  0.4540
 6419TIP3    H143452   1.280   4.113  11.574 -0.5423 -0.0460  2.4868
 6419TIP3    H243453   1.221   4.003  11.487  1.1268  1.2368 -0.4311
 6420TIP3   OH243454   3.590   5.151  10.298 -0.2702  0.0732 -0.2037
 6420TIP3    H143455   3.558   5.089  10.364 -1.3508  1.3991  0.5673
 6420TIP3    H243456   3.683   5.131  10.291 -0.7811 -2.4566 -0.9098
 6421TIP3   OH243457   5.574   4.911  10.932  0.3704 -0.9774  0.1212
 6421TIP3    H143458   5.599   4.837  10.988 -0.6704 -1.1451  0.3931
 6421TIP3    H243459   5.510   4.874  10.871 -0.9801 -0.0942  0.9593
 6422TIP3   OH243460   5.637   4.804  11.187 -0.0171 -0.0278 -0.3268
 6422TIP3    H143461   5.630   4.899  11.196 -0.3570 -0.2849  3.9575
 6422TIP3    H243462   5.731   4.787  11.186  0.0595  0.2950 -1.7488
 6423TIP3   OH243463   2.776   0.526  10.891  0.1561 -0.2708  0.4854
 6423TIP3    H143464   2.691   0.546  10.931  0.5298  0.9950  0.6945
 6423TIP3    H243465   2.784   0.590  10.820  2.2802  1.8424  2.4204
 6424TIP3   OH243466   4.045   0.771  10.176 -0.0505 -0.2466  0.1197
 6424TIP3    H143467   4.132   0.760  10.214  0.5558 -1.4968 -1.5223
 6424TIP3    H243468   3.994   0.698  10.211 -0.1251 -0.1337  0.2453
 6425TIP3   OH243469   0.269   0.961  11.550  0.1712 -0.3701  0.1303
 6425TIP3    H143470   0.228   0.897  11.493  1.0755 -2.1340  1.3625
 6425TIP3    H243471   0.198   0.991  11.607 -0.5516  0.7919 -1.3249
 6426TIP3   OH243472   4.189   3.972  10.070 -0.1024  0.8273 -0.0500
 6426TIP3    H143473   4.166   3.893  10.021  0.0081  0.6912  0.1163
 6426TIP3    H243474   4.262   4.010  10.021  1.2512 -0.3023  1.0019
 6427TIP3   OH243475   6.975   7.492  12.408 -0.7813  0.0281  0.1752
 6427TIP3    H143476   6.954   7.399  12.418 -0.6925  0.1136  1.3188
 6427TIP3    H243477   7.070   7.494  12.397 -0.7861 -0.0236  0.1259
 6428TIP3   OH243478   1.138   0.990  10.082 -0.1609  0.5345 -0.4583
 6428TIP3    H143479   1.205   0.940  10.036 -0.7605 -0.5051 -0.2615
 6428TIP3    H243480   1.164   1.081  10.074  1.0433  0.1743 -0.7325
 6429TIP3   OH243481   4.843   5.382   9.954 -0.3176  0.2387  0.6837
 6429TIP3    H143482   4.786   5.459   9.948 -1.2673 -0.5448 -1.0588
 6429TIP3    H243483   4.806   5.332  10.027 -0.7604  0.6076  0.7237
 6430TIP3   OH243484   2.646   6.122  11.028 -0.0313  0.1249  0.0851
 6430TIP3    H143485   2.621   6.034  11.001  0.5271  0.1868 -0.6948
 6430TIP3    H243486   2.571   6.155  11.078  0.0499 -1.0575  1.0292
 6431TIP3   OH243487   2.213   3.745  11.471  0.0409 -0.2307 -0.2871
 6431TIP3    H143488   2.262   3.711  11.397 -1.2528 -0.1614 -1.2168
 6431TIP3    H243489   2.123   3.755  11.438 -0.9502 -1.6806  1.7209
 6432TIP3   OH243490   5.705   0.140   9.990 -0.5882  0.7202  0.2303
 6432TIP3    H143491   5.722   0.092  10.071 -0.0418  0.8929  0.2237
 6432TIP3    H243492   5.740   0.227  10.007 -4.6585  2.3230  1.5486
 6433TIP3   OH243493   5.694   5.020  11.649 -0.3776  0.2532 -0.0701
 6433TIP3    H143494   5.731   5.000  11.563  0.0541 -0.6693  0.3117
 6433TIP3    H243495   5.764   4.997  11.711 -1.1232 -0.2610  0.5964
 6434TIP3   OH243496   3.256   5.516   9.869 -0.1730  0.5020 -0.2649
 6434TIP3    H143497   3.198   5.551   9.801  1.1622 -1.5315 -2.6373
 6434TIP3    H243498   3.213   5.435   9.898  0.3597  0.1793 -0.3640
 6435TIP3   OH243499   2.165   0.539  10.865  0.3514 -0.1518  0.1075
 6435TIP3    H143500   2.196   0.555  10.775  0.8322  1.4241  0.5208
 6435TIP3    H243501   2.077   0.578  10.867  0.5679  0.3284  0.4632
 6436TIP3   OH243502   2.106   1.491  11.137 -0.4322  0.4525 -0.4140
 6436TIP3    H143503   2.082   1.418  11.080 -0.6129  0.3581 -0.2196
 6436TIP3    H243504   2.031   1.501  11.195 -0.3720  0.7396 -0.3857
 6437TIP3   OH243505   3.514   0.530  12.575 -0.3305 -0.1271  0.4018
 6437TIP3    H143506   3.583   0.467  12.555 -0.1596  0.1351  0.1694
 6437TIP3    H243507   3.436   0.476  12.588  0.2265 -0.5660  2.1833
 6438TIP3   OH243508   3.349   4.076  10.680 -0.0860  0.2717 -0.1653
 6438TIP3    H143509   3.387   4.137  10.743  0.1961 -0.6652  0.5863
 6438TIP3    H243510   3.255   4.093  10.685 -0.2968 -1.1906  2.0589
 6439TIP3   OH243511   2.062   4.655  10.316  0.1187  0.3424  0.4193
 6439TIP3    H143512   2.068   4.620  10.405 -1.4609  1.5982  1.0691
 6439TIP3    H243513   2.094   4.745  10.323 -0.7585  0.7078 -0.0986
 6440TIP3   OH243514   3.428   3.352  10.595  0.1932  0.6900 -0.3205
 6440TIP3    H143515   3.439   3.408  10.518  3.6956 -0.8799 -1.1996
 6440TIP3    H243516   3.458   3.405  10.668 -0.5806  1.3158 -0.4470
 6441TIP3   OH243517   0.410   6.844   9.792 -0.2006 -0.1483  0.5176
 6441TIP3    H143518   0.465   6.798   9.729 -1.1145  0.0113 -0.4172
 6441TIP3    H243519   0.472   6.891   9.848  0.9544 -3.9110  2.7889
 6442TIP3   OH243520   1.669   2.995  11.755  0.3047  0.0182 -0.2336
 6442TIP3    H143521   1.713   2.925  11.802 -2.5543 -1.4074  0.5231
 6442TIP3    H243522   1.698   3.075  11.798  1.9194 -0.8459  0.3503
 6443TIP3   OH243523   0.580   1.846  10.014 -0.1545 -0.2937 -0.1607
 6443TIP3    H143524   0.635   1.768  10.006  0.7189  0.3472 -0.5890
 6443TIP3    H243525   0.640   1.914  10.046 -1.0032  0.0972  0.6153
 6444TIP3   OH243526   6.115   5.985  12.147  0.9026  0.8178 -0.4172
 6444TIP3    H143527   6.131   5.913  12.209 -1.9125  0.6538  0.2530
 6444TIP3    H243528   6.098   5.942  12.064 -1.9390  0.4906  0.2265
 6445TIP3   OH243529   3.138   3.008  12.153  0.5646 -0.1438  0.4694
 6445TIP3    H143530   3.129   3.078  12.217  0.0448  0.5641 -0.3468
 6445TIP3    H243531   3.051   2.968  12.149  1.1638 -1.7113  1.8585
 6446TIP3   OH243532   3.096   1.884  11.522 -0.1994  0.2137 -0.0500
 6446TIP3    H143533   3.189   1.864  11.519 -0.3704 -0.6538  0.2381
 6446TIP3    H243534   3.087   1.965  11.472  0.8208  0.7525  0.6286
 6447TIP3   OH243535   4.729   0.920   9.455  0.3800  0.0688  0.0839
 6447TIP3    H143536   4.726   0.961   9.369  3.2358 -0.2489 -0.2660
 6447TIP3    H243537   4.677   0.977   9.511  0.3203  1.5031 -1.3702
 6448TIP3   OH243538   3.456   6.191  10.752 -0.4009  0.0130  0.4884
 6448TIP3    H143539   3.534   6.172  10.699 -0.6508  0.7057 -0.1479
 6448TIP3    H243540   3.460   6.129  10.824 -1.0335 -2.2506 -1.3063
 6449TIP3   OH243541   4.240   6.837   9.707 -0.0397 -0.0174  0.5453
 6449TIP3    H143542   4.193   6.760   9.677  0.3030 -0.0428  0.0598
 6449TIP3    H243543   4.294   6.806   9.779 -0.7861  0.0206  1.1314
 6450TIP3   OH243544   2.315   6.526  11.142 -0.0398  0.0055 -0.0663
 6450TIP3    H143545   2.368   6.577  11.203  1.3199 -2.8808  1.3630
 6450TIP3    H243546   2.247   6.486  11.196 -1.6466  0.9782 -1.3050
 6451TIP3   OH243547   0.885   6.419  10.219 -0.0455  0.2052 -0.6537
 6451TIP3    H143548   0.818   6.477  10.182  0.0078 -0.5110 -1.9179
 6451TIP3    H243549   0.920   6.372  10.144  0.5757 -0.7852  0.2322
 6452TIP3   OH243550   5.047   3.434  12.239 -0.6887  0.2809 -0.1074
 6452TIP3    H143551   4.977   3.417  12.301 -0.8914 -1.3412 -0.7119
 6452TIP3    H243552   5.009   3.412  12.154 -0.2581  1.9594 -0.7574
 6453TIP3   OH243553   4.012   2.285  11.214 -0.0662  0.4537 -0.1408
 6453TIP3    H143554   4.066   2.212  11.185 -1.9132 -0.6483 -1.0560
 6453TIP3    H243555   3.934   2.280  11.158 -0.2276  3.2120 -0.2995
 6454TIP3   OH243556   7.455   5.483  12.132  0.2591  0.5030 -0.1805
 6454TIP3    H143557   7.508   5.542  12.080  1.0340 -0.4002 -0.4541
 6454TIP3    H243558   7.389   5.450  12.071  1.1379 -0.5199 -0.6238
 6455TIP3   OH243559   4.892   4.717  10.530  0.1875 -0.2541 -0.3956
 6455TIP3    H143560   4.865   4.789  10.587 -1.0494 -0.2339 -0.9863
 6455TIP3    H243561   4.979   4.742  10.499 -0.6554  1.5351 -1.4573
 6456TIP3   OH243562   3.764   3.832  11.634 -0.5422  0.3804 -0.0784
 6456TIP3    H143563   3.713   3.878  11.701 -0.7739  0.1738 -0.1086
 6456TIP3    H243564   3.827   3.780  11.684 -0.3693  0.6241 -0.0398
 6457TIP3   OH243565   3.678   0.958  10.125 -0.0551  0.2934  0.2278
 6457TIP3    H143566   3.651   1.024  10.061  1.3131 -1.8540 -2.8620
 6457TIP3    H243567   3.755   0.996  10.168 -0.2024  1.3063 -0.3655
 6458TIP3   OH243568   1.166   3.771  11.615 -0.0054  0.0779 -0.1367
 6458TIP3    H143569   1.202   3.859  11.604  0.2646 -0.0343 -0.1601
 6458TIP3    H243570   1.133   3.769  11.704  2.6349 -0.7377  0.9126
 6459TIP3   OH243571   0.258   1.968  10.954 -0.4890 -0.1381 -0.6145
 6459TIP3    H143572   0.276   1.969  11.048 -1.2858  1.3474 -0.4470
 6459TIP3    H243573   0.187   1.905  10.944  1.1938 -2.1575 -0.5995
 6460TIP3   OH243574   0.922   2.196  12.528  0.8752 -0.2577 -0.2032
 6460TIP3    H143575   0.862   2.270  12.517  0.1266 -0.7044  0.7750
 6460TIP3    H243576   0.876   2.121  12.491  0.3424 -0.8165  1.5052
 6461TIP3   OH243577   3.955   4.413  12.067 -0.1405 -0.1516 -0.2878
 6461TIP3    H143578   3.963   4.383  12.157 -0.8457 -0.0910 -0.1942
 6461TIP3    H243579   3.875   4.371  12.035  0.3888 -0.5828 -1.0547
 6462TIP3   OH243580   2.195   4.931  10.208 -0.1462  0.4213  0.2964
 6462TIP3    H143581   2.244   5.010  10.232  0.1712  0.3422 -0.0816
 6462TIP3    H243582   2.254   4.883  10.150 -0.7317  0.4061 -0.2975
 6463TIP3   OH243583   3.315   0.614  11.714  0.3941 -0.1034 -0.0523
 6463TIP3    H143584   3.329   0.594  11.622  0.0930 -0.0166 -0.1196
 6463TIP3    H243585   3.403   0.630  11.749  0.4399  0.7515 -0.5312
 6464TIP3   OH243586   5.815   0.540  11.295 -0.4317  0.0045  0.4893
 6464TIP3    H143587   5.733   0.502  11.263  0.1469  0.0070 -1.0766
 6464TIP3    H243588   5.873   0.540  11.219 -0.2165  3.5781  0.4576
 6465TIP3   OH243589   3.568   1.779   9.935 -0.9661 -0.2838 -0.3176
 6465TIP3    H143590   3.525   1.857   9.898 -0.9737  0.6618  1.5854
 6465TIP3    H243591   3.578   1.799  10.028 -0.1204 -2.2012  0.0425
 6466TIP3   OH243592   2.880   7.053  11.810  0.1008 -0.1246  0.2832
 6466TIP3    H143593   2.964   7.057  11.764  0.1160  0.9873  0.3764
 6466TIP3    H243594   2.831   7.129  11.778 -1.8484 -2.0388 -1.5776
 6467TIP3   OH243595   6.499   6.550  11.250  0.4240 -0.1779  0.3510
 6467TIP3    H143596   6.583   6.595  11.263  1.2041 -0.9456 -1.7018
 6467TIP3    H243597   6.435   6.621  11.244  0.8616  0.4143  2.0922
 6468TIP3   OH243598   3.636   5.532  10.707 -0.5433 -0.0951 -0.2810
 6468TIP3    H143599   3.676   5.613  10.675 -1.5677  0.7033  0.3833
 6468TIP3    H243600   3.583   5.559  10.782  1.2254 -1.7971  1.7295
 6469TIP3   OH243601   7.507   2.446  10.020 -0.7911  0.9406 -0.2174
 6469TIP3    H143602   7.581   2.474  10.074  0.8957 -1.4087 -1.1350
 6469TIP3    H243603   7.542   2.448   9.930 -1.7567 -0.4640 -0.6468
 6470TIP3   OH243604   2.468   0.085  10.072 -0.1313 -0.0066  0.2880
 6470TIP3    H143605   2.557   0.118  10.071  0.6653 -2.0211 -0.9578
 6470TIP3    H243606   2.449   0.067  10.165  0.0835  2.0233  0.7579
 6471TIP3   OH243607   1.474   4.987  11.050  0.5037 -0.2483  0.6413
 6471TIP3    H143608   1.418   5.046  11.101  1.5703  0.0692  1.4929
 6471TIP3    H243609   1.510   5.043  10.980 -0.5230 -0.5472 -0.1422
 6472TIP3   OH243610   0.832   1.417  10.414  0.2056 -0.3096 -1.0197
 6472TIP3    H143611   0.852   1.501  10.455 -1.2091 -0.1802 -0.5510
 6472TIP3    H243612   0.770   1.375  10.473 -0.1011 -1.1282 -1.8936
 6473TIP3   OH243613   1.356   0.876   9.947  0.6274 -0.2414  0.6546
 6473TIP3    H143614   1.424   0.861  10.013 -0.4540 -1.2712  1.5792
 6473TIP3    H243615   1.350   0.793   9.899  1.5938  0.5737 -0.9881
 6474TIP3   OH243616   3.544   7.215  10.114  0.4593 -0.4105 -0.3277
 6474TIP3    H143617   3.527   7.276  10.043  1.6701 -0.0755 -0.3487
 6474TIP3    H243618   3.526   7.129  10.077 -0.7167 -0.1181 -0.4665
 6475TIP3   OH243619   0.854   6.531  11.733 -0.3540 -0.3347  0.1846
 6475TIP3    H143620   0.762   6.527  11.757 -0.4293 -0.2552 -0.0851
 6475TIP3    H243621   0.878   6.440  11.712 -0.2352 -0.4359  0.7420
 6476TIP3   OH243622   7.310   7.441  11.737 -0.3896  0.0486 -0.1691
 6476TIP3    H143623   7.249   7.447  11.663  1.1660 -0.7485 -1.5854
 6476TIP3    H243624   7.393   7.415  11.697 -0.2499 -3.8533  2.2144
 6477TIP3   OH243625   0.784   1.652  10.044 -0.4485 -0.4604  0.3783
 6477TIP3    H143626   0.751   1.563  10.061  1.1052 -0.7876  2.0486
 6477TIP3    H243627   0.877   1.639  10.026 -0.4302  0.7604 -0.4941
 6478TIP3   OH243628   2.156   0.035  11.077  0.1925  0.1351  0.3444
 6478TIP3    H143629   2.175   0.115  11.029 -0.2620  0.8872  1.3938
 6478TIP3    H243630   2.062   0.040  11.095  0.0735 -0.8343  0.0730
 6479TIP3   OH243631   3.814   0.335  10.913  0.0872  0.4715 -0.3271
 6479TIP3    H143632   3.809   0.265  10.979 -0.5388  1.7020  0.9855
 6479TIP3    H243633   3.893   0.315  10.863  0.0598 -1.0337  0.1573
 6480TIP3   OH243634   7.064   1.231  12.467  0.5597  0.0720 -0.2862
 6480TIP3    H143635   7.086   1.220  12.560 -0.0258  0.4341 -0.1011
 6480TIP3    H243636   7.144   1.206  12.421  0.7942 -0.3087  0.3073
 6481TIP3   OH243637   3.120   5.450  11.136 -0.5412  0.0795  0.2485
 6481TIP3    H143638   3.179   5.440  11.062 -1.6458  0.2828 -0.6890
 6481TIP3    H243639   3.142   5.535  11.173 -0.4152  0.2659 -0.2496
 6482TIP3   OH243640   7.557   5.558  11.094  0.4664 -0.0977  0.3268
 6482TIP3    H143641   7.572   5.635  11.149 -0.7152  0.8978 -0.6749
 6482TIP3    H243642   7.614   5.491  11.130  0.8756  0.9879  1.7814
 6483TIP3   OH243643   7.254   7.593  12.344 -0.3007 -1.0386 -0.3394
 6483TIP3    H143644   7.311   7.517  12.355  0.4966 -0.5207 -0.8824
 6483TIP3    H243645   7.240   7.600  12.250  1.9013  1.1132 -0.5850
 6484TIP3   OH243646   0.499   0.527  11.235  0.1020  0.3882 -0.2902
 6484TIP3    H143647   0.410   0.493  11.235  0.5674 -0.9168 -1.8101
 6484TIP3    H243648   0.512   0.559  11.325 -2.2468  1.6657 -0.3340
 6485TIP3   OH243649   6.610   5.979  10.959  0.2070  0.3266 -0.3133
 6485TIP3    H143650   6.614   5.928  10.879  0.5549 -0.3080  0.0990
 6485TIP3    H243651   6.665   6.056  10.942  0.4979  0.0579 -0.5831
 6486TIP3   OH243652   0.234   6.670   9.909  0.4901 -0.2949  0.1392
 6486TIP3    H143653   0.300   6.728   9.871  0.8985 -0.4933  0.5433
 6486TIP3    H243654   0.152   6.719   9.900  0.8013  0.2668  0.3025
 6487TIP3   OH243655   3.013   6.142  11.387 -0.0748  0.6830 -0.5259
 6487TIP3    H143656   2.932   6.170  11.344 -0.6907 -1.2166 -0.6685
 6487TIP3    H243657   3.023   6.050  11.363  1.8549  0.7338 -0.0698
 6488TIP3   OH243658   6.182   1.001  10.545  0.0390  0.4348 -0.4291
 6488TIP3    H143659   6.095   0.978  10.514  0.4656 -0.4259 -1.0198
 6488TIP3    H243660   6.235   1.008  10.465  0.1538  2.5785 -0.2180
 6489TIP3   OH243661   7.623   5.502  10.048  0.4590 -0.1065 -0.6763
 6489TIP3    H143662   7.550   5.535   9.995 -0.0147 -1.2736 -0.7999
 6489TIP3    H243663   7.581   5.469  10.128  0.5927 -2.3214 -1.4540
 6490TIP3   OH243664   3.868   4.188  10.516 -0.0950  0.1953  0.3172
 6490TIP3    H143665   3.837   4.228  10.597 -2.2257  0.5210 -0.5712
 6490TIP3    H243666   3.798   4.129  10.490  1.4788 -1.5283 -0.2156
 6491TIP3   OH243667   6.787   4.100  11.001 -0.3985  0.2670  0.3599
 6491TIP3    H143668   6.705   4.057  11.026 -0.7729  0.9518  0.3446
 6491TIP3    H243669   6.802   4.164  11.071  0.9435 -0.8934  1.1804
 6492TIP3   OH243670   3.882   6.184  12.569 -0.2938  0.6085 -0.1261
 6492TIP3    H143671   3.861   6.261  12.515  0.7910  0.7385 -0.3904
 6492TIP3    H243672   3.893   6.219  12.657 -0.1633  0.7014 -0.1789
 6493TIP3   OH243673   3.046   6.431  10.333  0.1874 -0.0969  0.3422
 6493TIP3    H143674   3.069   6.345  10.369  0.9786 -0.3146 -0.6523
 6493TIP3    H243675   2.970   6.414  10.277  0.1506 -0.0823  0.3868
 6494TIP3   OH243676   4.768   1.588  10.257  0.3921 -1.0388  1.2596
 6494TIP3    H143677   4.780   1.675  10.295 -1.6071 -0.1143 -0.0520
 6494TIP3    H243678   4.842   1.577  10.198 -0.1518  0.4858  0.2494
 6495TIP3   OH243679   3.237   5.824  10.931 -0.0178 -0.0045 -0.0895
 6495TIP3    H143680   3.185   5.823  10.851  0.3938  2.3645 -0.4443
 6495TIP3    H243681   3.311   5.765  10.912 -0.9004 -0.9317 -0.7324
 6496TIP3   OH243682   6.820   1.493  11.592  0.2168 -0.0098 -0.4950
 6496TIP3    H143683   6.804   1.554  11.520 -0.9549 -0.2347 -0.4487
 6496TIP3    H243684   6.911   1.465  11.580  0.7514  1.6765 -0.5459
 6497TIP3   OH243685   1.445   3.847  10.993  0.1240  0.5315 -0.4519
 6497TIP3    H143686   1.431   3.942  11.002  0.8271  0.5856  0.1328
 6497TIP3    H243687   1.533   3.839  10.957 -0.1421  0.1047 -1.0285
 6498TIP3   OH243688   3.778   3.901  10.412  0.0640 -0.3609  0.0923
 6498TIP3    H143689   3.683   3.906  10.422  0.0217 -1.1326  0.0873
 6498TIP3    H243690   3.792   3.851  10.332  0.4756 -1.8254  1.0411
 6499TIP3   OH243691   6.986   7.222  11.378 -0.3413 -0.5379 -0.2505
 6499TIP3    H143692   6.984   7.211  11.473  1.7809 -1.1716 -0.2307
 6499TIP3    H243693   6.980   7.317  11.364 -0.7659 -0.4523  0.4962
 6500TIP3   OH243694   7.235   6.284  11.755  0.7228  0.5654  0.0172
 6500TIP3    H143695   7.143   6.285  11.727  1.1356 -0.5899 -1.4522
 6500TIP3    H243696   7.230   6.259  11.848 -0.4412  0.5114 -0.0334
 6501TIP3   OH243697   4.391   1.346  11.687 -0.3699 -0.2071 -0.0264
 6501TIP3    H143698   4.454   1.287  11.727  0.3659  0.9214  0.5358
 6501TIP3    H243699   4.352   1.394  11.761  0.8908  1.8000 -0.5799
 6502TIP3   OH243700   0.253   3.376  11.180 -0.2459 -0.0187  0.1542
 6502TIP3    H143701   0.248   3.336  11.267  1.3389  0.6465  0.5960
 6502TIP3    H243702   0.190   3.448  11.182  0.9368  1.0310  1.3674
 6503TIP3   OH243703   0.144   5.349   9.983 -0.5475 -0.0957  0.3580
 6503TIP3    H143704   0.173   5.366   9.893  0.0645  2.4927  0.9773
 6503TIP3    H243705   0.069   5.407   9.996  0.7263  1.2614  2.1669
 6504TIP3   OH243706   3.050   3.686  10.632 -0.2294 -0.1981 -0.3609
 6504TIP3    H143707   3.084   3.709  10.718  2.7111 -0.5938 -1.3172
 6504TIP3    H243708   3.056   3.767  10.582 -0.3244 -0.3734 -0.6556
 6505TIP3   OH243709   2.277   2.482  10.511  0.4416  0.3258 -0.2208
 6505TIP3    H143710   2.232   2.444  10.436  2.0243 -0.0394 -1.0229
 6505TIP3    H243711   2.346   2.537  10.474  0.6402  0.9170  0.9574
 6506TIP3   OH243712   6.098   4.522  10.925 -0.2731 -0.2256 -0.0587
 6506TIP3    H143713   6.069   4.613  10.933  0.2223 -0.0311 -0.4039
 6506TIP3    H243714   6.017   4.471  10.921 -0.6433  0.4207 -2.4748
 6507TIP3   OH243715   6.038   4.797  11.686 -0.2207 -0.4101 -0.2650
 6507TIP3    H143716   6.038   4.732  11.757 -2.1259 -0.0085  0.1577
 6507TIP3    H243717   5.970   4.860  11.711 -0.0760  0.4272 -1.8540
 6508TIP3   OH243718   2.480   1.419  10.496  0.0965  0.1668  0.1193
 6508TIP3    H143719   2.557   1.362  10.497  0.7327  1.0150  0.9174
 6508TIP3    H243720   2.488   1.471  10.576  0.7484  2.9470 -1.6320
 6509TIP3   OH243721   4.191   0.220  10.323  0.1853 -0.9196  0.6429
 6509TIP3    H143722   4.211   0.162  10.249  1.5356 -0.9677  1.0230
 6509TIP3    H243723   4.171   0.304  10.283 -0.1328 -1.2167  0.1691
 6510TIP3   OH243724   3.943   3.523  12.145  0.2107 -0.2012 -0.0737
 6510TIP3    H143725   4.034   3.495  12.155 -0.3422 -2.1506 -0.2193
 6510TIP3    H243726   3.914   3.481  12.064 -0.9744  0.0086  0.2353
 6511TIP3   OH243727   1.758   4.447  10.511 -0.4227 -0.3516  0.7428
 6511TIP3    H143728   1.849   4.442  10.539 -0.0695  1.2142 -0.0316
 6511TIP3    H243729   1.754   4.525  10.456 -2.1435 -0.6348  0.4172
 6512TIP3   OH243730   0.141   5.039  10.797 -0.4456 -0.4962  0.0812
 6512TIP3    H143731   0.223   5.088  10.788  0.6071 -1.5086  3.0099
 6512TIP3    H243732   0.152   4.964  10.738 -0.9793  1.2662 -2.4387
 6513TIP3   OH243733   2.973   7.512  10.714 -0.1160  0.2196 -0.0755
 6513TIP3    H143734   3.045   7.449  10.716 -0.0508  0.2429 -1.1517
 6513TIP3    H243735   2.977   7.550  10.626 -0.7151  1.0744  0.2548
 6514TIP3   OH243736   2.533   6.999  12.032  0.0752 -0.5070 -0.7005
 6514TIP3    H143737   2.477   7.007  11.954 -0.1565  0.9586 -0.4085
 6514TIP3    H243738   2.552   7.089  12.057  0.2471 -0.9571  0.8820
 6515TIP3   OH243739   7.477   7.149  10.420 -0.9547  1.3014  0.2238
 6515TIP3    H143740   7.567   7.116  10.420 -0.2864  2.9915 -0.5737
 6515TIP3    H243741   7.466   7.189  10.506 -1.9616 -1.3316  1.4157
 6516TIP3   OH243742   6.054   6.019  10.261  0.4900  0.2946  0.5564
 6516TIP3    H143743   5.997   5.958  10.308 -0.1703  0.8889  0.5446
 6516TIP3    H243744   5.994   6.082  10.221  1.2225  1.7320  1.6540
 6517TIP3   OH243745   5.307   7.050  11.812 -0.2755  0.0316  0.0252
 6517TIP3    H143746   5.347   6.962  11.817  1.1976  0.6554 -0.1543
 6517TIP3    H243747   5.281   7.058  11.720 -0.5430 -0.2701  0.0720
 6518TIP3   OH243748   4.808   5.779  12.250  0.1279  0.0961 -0.3137
 6518TIP3    H143749   4.756   5.853  12.280  0.1152 -0.8089  2.1553
 6518TIP3    H243750   4.804   5.783  12.154 -1.2575  2.2664 -0.2160
 6519TIP3   OH243751   5.554   3.820   9.887 -0.6516 -0.1579  0.4422
 6519TIP3    H143752   5.531   3.873   9.811 -0.5144 -1.9719 -0.9432
 6519TIP3    H243753   5.518   3.867   9.962  1.3962  3.0451 -0.3899
 6520TIP3   OH243754   1.435   5.814  12.256 -0.5377  0.4409 -0.3304
 6520TIP3    H143755   1.370   5.810  12.186 -0.8306  1.5905 -0.1466
 6520TIP3    H243756   1.414   5.895  12.304 -0.6201 -0.5472  1.3648
 6521TIP3   OH243757   0.327   3.260  10.415 -0.8158  0.1867 -0.1266
 6521TIP3    H143758   0.402   3.290  10.466 -0.4630 -1.4267  0.3584
 6521TIP3    H243759   0.349   3.285  10.325  0.7685 -1.0744 -0.1293
 6522TIP3   OH243760   1.589   6.030  12.583  0.1719 -0.5750  0.5576
 6522TIP3    H143761   1.518   6.068  12.530 -0.1668  0.1105  1.4708
 6522TIP3    H243762   1.669   6.060  12.541 -0.0935  0.0071  0.4568
 6523TIP3   OH243763   0.172   4.050  11.258  0.1692  0.7594  0.9727
 6523TIP3    H143764   0.132   3.964  11.245  1.4195 -0.0711  2.3858
 6523TIP3    H243765   0.124   4.087  11.332 -0.3174  1.2669  0.4129
 6524TIP3   OH243766   2.370   0.812  12.012 -0.0879  0.5613  0.5388
 6524TIP3    H143767   2.417   0.830  11.930  0.1573  1.2710  0.8339
 6524TIP3    H243768   2.414   0.734  12.047 -1.2221 -0.7356 -0.7847
 6525TIP3   OH243769   1.026   5.964   9.766 -0.1656  0.2742  0.3441
 6525TIP3    H143770   1.085   6.001   9.699 -0.6190  1.5014  0.5877
 6525TIP3    H243771   1.077   5.894   9.806  1.1214  1.2392  0.4819
 6526TIP3   OH243772   0.449   5.605  11.169  0.0433 -0.4711  0.6372
 6526TIP3    H143773   0.400   5.523  11.172  0.0522 -0.4560  2.0979
 6526TIP3    H243774   0.532   5.584  11.213 -0.9589  0.9065  3.4332
 6527TIP3   OH243775   3.303   7.193   9.957  0.3118  0.2891  0.0987
 6527TIP3    H143776   3.223   7.223   9.913  0.5244  2.1587  0.8714
 6527TIP3    H243777   3.305   7.244  10.038  0.5359 -2.2160  1.7485
 6528TIP3   OH243778   7.500   3.003  10.043  0.4002  0.0014  0.7176
 6528TIP3    H143779   7.507   2.989   9.949 -1.2955  0.9698  0.4171
 6528TIP3    H243780   7.591   3.005  10.073  1.0043  0.6292 -1.0365
 6529TIP3   OH243781   6.129   6.820  11.873 -0.0334 -0.0020 -0.3673
 6529TIP3    H143782   6.145   6.747  11.813  0.7817 -0.3190  0.2219
 6529TIP3    H243783   6.212   6.832  11.919  0.3767  2.3445 -1.5705
 6530TIP3   OH243784   4.551   1.226  10.286  0.0411  0.0523  0.0709
 6530TIP3    H143785   4.522   1.272  10.207  2.1733  1.2877 -0.0475
 6530TIP3    H243786   4.588   1.294  10.342  1.1969 -1.2025  0.8917
 6531TIP3   OH243787   1.703   2.367  11.727  0.1676  0.1163  0.2180
 6531TIP3    H143788   1.681   2.287  11.775  1.3756 -1.9377 -2.3829
 6531TIP3    H243789   1.798   2.375  11.738  0.3181  0.1423 -0.9740
 6532TIP3   OH243790   3.850   7.328  10.968  0.2637  0.1754  0.2682
 6532TIP3    H143791   3.775   7.304  11.023  0.8617 -0.8205  0.6822
 6532TIP3    H243792   3.854   7.259  10.902  0.5664  0.4443  0.0043
 6533TIP3   OH243793   5.637   7.492  10.966  0.0095  0.0701 -0.7265
 6533TIP3    H143794   5.590   7.528  10.891 -0.6306 -1.2099 -0.9590
 6533TIP3    H243795   5.709   7.443  10.927  1.0796  1.3133 -0.4007
 6534TIP3   OH243796   1.264   7.023  11.222 -0.3726 -0.1289 -0.6851
 6534TIP3    H143797   1.198   7.008  11.289  0.1019  0.3344 -0.1015
 6534TIP3    H243798   1.319   7.094  11.257  0.0520 -0.0739 -1.4330
 6535TIP3   OH243799   6.740   0.542  11.534  0.0437 -0.0347  0.6249
 6535TIP3    H143800   6.678   0.571  11.467 -0.1036  0.4603  0.9703
 6535TIP3    H243801   6.819   0.518  11.485  1.3566  3.9181  0.4850
 6536TIP3   OH243802   7.517   6.717  11.363 -0.4523  0.1148  0.3641
 6536TIP3    H143803   7.598   6.691  11.321 -1.9339 -1.6041 -1.6640
 6536TIP3    H243804   7.538   6.723  11.456  1.3310 -3.1474  0.2811
 6537TIP3   OH243805   2.253   2.874  11.541 -0.2571 -0.0878 -0.5106
 6537TIP3    H143806   2.199   2.929  11.485  0.2604  0.7703 -0.1894
 6537TIP3    H243807   2.302   2.936  11.595 -0.1932 -0.8870  0.3629
 6538TIP3   OH243808   5.046   3.346  11.152  0.2874 -0.4699 -0.6341
 6538TIP3    H143809   5.030   3.417  11.090  0.4232  1.6504  1.6066
 6538TIP3    H243810   4.986   3.363  11.225  0.9549 -2.1593  0.3805
 6539TIP3   OH243811   3.680   5.220  10.719 -0.4309  0.0945 -0.7633
 6539TIP3    H143812   3.684   5.132  10.681 -0.0339 -0.1889 -0.0928
 6539TIP3    H243813   3.758   5.264  10.686  0.0121 -0.2130 -0.1425
 6540TIP3   OH243814   7.233   1.856  10.461 -0.1350 -0.1684 -0.2850
 6540TIP3    H143815   7.240   1.895  10.374  0.7272 -1.0926 -0.6553
 6540TIP3    H243816   7.141   1.866  10.485 -0.8576 -1.6669 -2.1624
 6541TIP3   OH243817   3.552   1.000  10.495 -0.7284  0.3241  0.3796
 6541TIP3    H143818   3.590   1.084  10.467  1.3822 -0.5494  0.4380
 6541TIP3    H243819   3.492   1.023  10.566 -1.1379  1.8902 -0.4271
 6542TIP3   OH243820   3.748   6.807   9.718  0.3684 -0.6435 -0.4195
 6542TIP3    H143821   3.732   6.858   9.638 -2.5176  2.2453  1.7004
 6542TIP3    H243822   3.808   6.861   9.769 -0.4301 -0.7685  0.6832
 6543TIP3   OH243823   7.130   4.222  11.971  0.0829  0.2471  0.3127
 6543TIP3    H143824   7.076   4.261  12.041  1.1144 -0.2986  1.4371
 6543TIP3    H243825   7.199   4.286  11.956 -0.4128  0.5870 -0.5752
 6544TIP3   OH243826   6.036   0.862  12.682  0.2644 -0.1098  0.2160
 6544TIP3    H143827   5.985   0.835  12.606 -0.3062  1.1058  0.1427
 6544TIP3    H243828   5.974   0.853  12.756  0.3388  0.1552  0.3118
 6545TIP3   OH243829   2.388   3.112  11.653 -0.0270  0.1855  0.2170
 6545TIP3    H143830   2.356   3.143  11.569 -0.0966  1.3119  0.6369
 6545TIP3    H243831   2.397   3.191  11.706 -2.2063 -0.6791  2.0434
 6546TIP3   OH243832   4.155   0.960  11.772  0.2430  0.2587  0.0875
 6546TIP3    H143833   4.220   0.999  11.830 -1.4600 -0.0986  2.3767
 6546TIP3    H243834   4.154   1.018  11.695  0.8235  2.2677  1.4928
 6547TIP3   OH243835   3.187   1.552  11.913 -0.1364 -0.3672 -0.6955
 6547TIP3    H143836   3.273   1.593  11.923 -0.0578 -0.7475  0.3393
 6547TIP3    H243837   3.179   1.495  11.990 -0.2694 -2.2425 -2.0322
 6548TIP3   OH243838   5.598   7.331  10.467 -0.0595  0.2858  0.3077
 6548TIP3    H143839   5.503   7.318  10.461  0.1800 -1.4588 -0.2251
 6548TIP3    H243840   5.624   7.358  10.379 -0.0620  0.8501  0.4761
 6549TIP3   OH243841   1.320   2.184  11.203 -0.3979 -0.1532  0.3096
 6549TIP3    H143842   1.338   2.217  11.292 -1.4293  0.5931  0.2565
 6549TIP3    H243843   1.320   2.089  11.213 -0.0112 -0.0923  1.0111
 6550TIP3   OH243844   5.264   2.659  10.682  0.2534 -0.1040  1.1145
 6550TIP3    H143845   5.352   2.624  10.672  0.8918  1.8183 -0.8307
 6550TIP3    H243846   5.262   2.697  10.769  2.3767  2.2534  0.2451
 6551TIP3   OH243847   7.353   6.393  13.060  0.5426 -0.3906  0.2403
 6551TIP3    H143848   7.373   6.305  13.030 -0.8918 -1.0519  1.0987
 6551TIP3    H243849   7.268   6.414  13.020  1.2041  0.9318 -0.5642
 6552TIP3   OH243850   5.191   5.307  10.861  0.0331  0.3296  0.8459
 6552TIP3    H143851   5.135   5.383  10.847  1.3411  1.2692  0.6576
 6552TIP3    H243852   5.159   5.269  10.944 -1.0376  0.6829  0.6105
 6553TIP3   OH243853   2.074   6.492  10.879  0.3378 -0.4259 -0.0677
 6553TIP3    H143854   2.080   6.417  10.820 -1.4328 -2.0033  1.6306
 6553TIP3    H243855   1.988   6.530  10.860  0.7557  0.5380 -0.1172
 6554TIP3   OH243856   7.086   0.240  11.933  0.6585 -0.1054 -0.0708
 6554TIP3    H143857   7.088   0.146  11.914  1.7304  0.0309 -0.7460
 6554TIP3    H243858   7.007   0.253  11.985 -1.6663 -0.7635 -3.1636
 6555TIP3   OH243859   4.690   5.603   9.951  0.3909 -0.3934  0.0205
 6555TIP3    H143860   4.716   5.694   9.937 -2.0338  0.6269  1.5626
 6555TIP3    H243861   4.594   5.606   9.956  0.0657 -3.3482 -1.8201
 6556TIP3   OH243862   0.873   0.503  10.904 -0.1536 -0.0229 -0.6728
 6556TIP3    H143863   0.943   0.567  10.898 -0.6020  0.4062 -1.4400
 6556TIP3    H243864   0.900   0.444  10.975 -0.0533  1.4006  0.5173
 6557TIP3   OH243865   0.725   3.901  11.257  0.0501  0.0441  0.2231
 6557TIP3    H143866   0.789   3.838  11.290 -0.2872 -0.0062  0.7948
 6557TIP3    H243867   0.758   3.986  11.285 -0.7891 -0.0727  1.6817
 6558TIP3   OH243868   4.254   5.021   9.686 -0.1562 -0.6892 -0.5859
 6558TIP3    H143869   4.321   5.028   9.617  1.4900 -0.1562  0.9770
 6558TIP3    H243870   4.242   5.111   9.715  0.1649 -1.0465  0.6969
 6559TIP3   OH243871   6.549   6.913  10.198  0.3464 -0.2789 -0.1599
 6559TIP3    H143872   6.556   6.873  10.285 -1.0979 -2.1373 -0.8306
 6559TIP3    H243873   6.637   6.944  10.178  0.5005  1.2731  2.4093
 6560TIP3   OH243874   2.510   1.792  11.948  0.1865 -0.3753  0.5606
 6560TIP3    H143875   2.530   1.759  11.860 -0.6191  0.6868 -0.0334
 6560TIP3    H243876   2.438   1.737  11.978  1.3689 -1.6723  1.1595
 6561TIP3   OH243877   5.152   5.836  11.315  0.4802  0.6859  0.3442
 6561TIP3    H143878   5.063   5.800  11.316  0.8339 -0.2052  1.0860
 6561TIP3    H243879   5.142   5.922  11.274 -0.4871 -0.0209 -1.0130
 6562TIP3   OH243880   4.770   7.538   9.860 -0.3381 -0.5027  0.1718
 6562TIP3    H143881   4.709   7.500   9.923 -0.9597  0.9833  0.5061
 6562TIP3    H243882   4.747   7.496   9.777 -3.3754  1.5034 -0.1926
 6563TIP3   OH243883   6.284   6.159  10.385 -0.2166 -0.3093  0.3580
 6563TIP3    H143884   6.225   6.154  10.460  0.1908 -2.1611  0.6019
 6563TIP3    H243885   6.235   6.117  10.314  0.8411 -2.0976  0.6274
 6564TIP3   OH243886   6.098   4.043  10.787 -0.1572  0.2534 -0.1001
 6564TIP3    H143887   6.152   3.968  10.762 -0.4778 -0.1119  0.3054
 6564TIP3    H243888   6.009   4.008  10.793 -0.2497  0.5844  0.4670
 6565TIP3   OH243889   5.835   6.820  10.098 -0.0659  0.2660  0.4324
 6565TIP3    H143890   5.833   6.735  10.054 -0.9472  0.3545  0.2728
 6565TIP3    H243891   5.794   6.880  10.035 -0.9239  0.4857  1.1780
 6566TIP3   OH243892   1.311   5.993   9.853  0.3753 -0.1857 -0.3857
 6566TIP3    H143893   1.245   5.932   9.888 -0.2449  0.2905 -0.7121
 6566TIP3    H243894   1.377   5.998   9.922 -0.9479  0.9264  0.8697
 6567TIP3   OH243895   3.566   2.837   9.956  0.8231 -0.0676 -0.6005
 6567TIP3    H143896   3.486   2.858  10.005  1.2508  0.2596 -0.0266
 6567TIP3    H243897   3.553   2.876   9.870 -0.0463 -0.8636 -0.8524
 6568TIP3   OH243898   2.818   1.313  10.977  0.3301  0.3338  0.3057
 6568TIP3    H143899   2.744   1.369  10.996  0.3814  0.1431  1.1034
 6568TIP3    H243900   2.892   1.354  11.021  1.3414  2.0382 -2.7056
 6569TIP3   OH243901   6.425   2.631  10.697 -0.0173  0.1048  1.3372
 6569TIP3    H143902   6.396   2.575  10.626  0.5161 -0.7443  1.7737
 6569TIP3    H243903   6.421   2.576  10.775  1.0187  0.4987  1.6983
 6570TIP3   OH243904   4.553   3.310  10.650  0.0966  0.3333  0.0396
 6570TIP3    H143905   4.605   3.382  10.614 -0.1646  0.5584  0.1039
 6570TIP3    H243906   4.467   3.348  10.665 -0.1744 -0.1140 -0.3451
 6571TIP3   OH243907   3.665   6.944  10.411  0.8338 -0.1873  0.4877
 6571TIP3    H143908   3.647   6.902  10.495 -1.1216  0.8617  0.6657
 6571TIP3    H243909   3.606   6.901  10.350  0.3230  0.8375  0.2363
 6572TIP3   OH243910   6.631   1.416  12.082  0.0491  0.7583 -0.0196
 6572TIP3    H143911   6.602   1.501  12.116  0.3488  0.5745  0.7070
 6572TIP3    H243912   6.609   1.354  12.151 -1.4349  0.0147 -1.0856
 6573TIP3   OH243913   1.107   5.885  11.300 -0.1332  0.0162  0.0105
 6573TIP3    H143914   1.184   5.934  11.331  0.3022 -1.2119  0.9385
 6573TIP3    H243915   1.034   5.946  11.313  0.5530  0.8556  0.0164
 6574TIP3   OH243916   4.496   1.422  10.700 -0.0829 -0.0378 -0.1997
 6574TIP3    H143917   4.492   1.329  10.723  1.0977  0.1358  0.8073
 6574TIP3    H243918   4.507   1.422  10.605 -2.3733 -0.8416 -0.5436
 6575TIP3   OH243919   4.471   5.498  10.427  0.4498 -0.2740 -0.1262
 6575TIP3    H143920   4.411   5.465  10.495  0.1739 -0.8762 -0.6575
 6575TIP3    H243921   4.552   5.516  10.474  0.3918 -1.0832  0.2977
 6576TIP3   OH243922   2.850   2.447  11.558 -0.1731  0.6650  0.0772
 6576TIP3    H143923   2.815   2.367  11.597  0.0027  1.2917  1.6138
 6576TIP3    H243924   2.778   2.510  11.563  0.0523  0.9346 -0.0329
 6577TIP3   OH243925   6.069   2.611  11.095 -0.3543 -0.2260  0.2064
 6577TIP3    H143926   6.041   2.557  11.021  0.0292  0.8436 -0.7352
 6577TIP3    H243927   5.987   2.636  11.138 -0.5515 -1.3154  0.4956
 6578TIP3   OH243928   7.528   0.405  11.722  0.5544  0.1786  0.0614
 6578TIP3    H143929   7.531   0.497  11.693  0.1372  0.6165  1.3658
 6578TIP3    H243930   7.436   0.379  11.709  0.5590  0.1018  0.1899
 6579TIP3   OH243931   6.586   4.750  10.856 -0.6760  0.1876 -0.2719
 6579TIP3    H143932   6.576   4.656  10.846 -0.7763  0.1619  0.0681
 6579TIP3    H243933   6.633   4.778  10.777 -1.2533 -0.0454 -0.7036
 6580TIP3   OH243934   4.514   6.071  12.029  0.5153 -0.2124  0.4047
 6580TIP3    H143935   4.442   6.054  11.968 -0.0269 -2.2290  1.5219
 6580TIP3    H243936   4.471   6.098  12.110  1.2333  2.4274 -0.0081
 6581TIP3   OH243937   0.683   1.835  11.486 -0.0386  0.6056  0.0408
 6581TIP3    H143938   0.677   1.875  11.573  0.4491  0.2583  0.2400
 6581TIP3    H243939   0.652   1.745  11.499 -0.0332  0.5758 -0.1606
 6582TIP3   OH243940   2.494   6.741  11.567  0.3991  0.3791  0.6255
 6582TIP3    H143941   2.512   6.657  11.609  0.7612 -0.5710 -1.2895
 6582TIP3    H243942   2.571   6.758  11.512 -0.6128  0.8125 -0.7251
 6583TIP3   OH243943   4.304   5.959  11.213 -0.1523  0.0714 -0.4546
 6583TIP3    H143944   4.376   5.989  11.268 -0.4281  0.1249 -0.1248
 6583TIP3    H243945   4.283   6.036  11.158 -0.8420  0.4974  0.3760
 6584TIP3   OH243946   3.596   1.084  10.938  0.1438 -0.3470 -0.0517
 6584TIP3    H143947   3.632   1.163  10.979  0.1130 -0.5242  0.3238
 6584TIP3    H243948   3.507   1.079  10.972  0.0945 -0.4593 -0.1983
 6585TIP3   OH243949   0.355   0.615  10.592  0.2077 -0.4118  0.0021
 6585TIP3    H143950   0.307   0.692  10.562  2.4744  0.7993 -0.8122
 6585TIP3    H243951   0.348   0.552  10.521 -2.0198 -1.2242  0.8465
 6586TIP3   OH243952   7.446   6.537  11.754  0.1405 -0.2520 -0.6861
 6586TIP3    H143953   7.510   6.478  11.794 -0.4937  0.0000  0.7517
 6586TIP3    H243954   7.362   6.493  11.767 -0.3824  1.0652  0.6779
 6587TIP3   OH243955   5.676   0.416  12.282  0.1981 -0.0430  0.5974
 6587TIP3    H143956   5.630   0.413  12.366  0.8996 -0.5677  0.9712
 6587TIP3    H243957   5.648   0.499  12.242 -0.0257  0.2852  1.4153
 6588TIP3   OH243958   3.400   1.028  10.184 -0.5268  0.2472  0.1809
 6588TIP3    H143959   3.490   1.002  10.205 -0.3216 -1.4106 -2.4104
 6588TIP3    H243960   3.374   1.083  10.258  2.5543  0.6802  1.0949
 6589TIP3   OH243961   3.789   6.409  11.230  0.3079 -0.4678  0.0828
 6589TIP3    H143962   3.863   6.349  11.239  1.5613  1.2408  2.2616
 6589TIP3    H243963   3.741   6.401  11.313 -0.7040  0.0282 -0.4309
 6590TIP3   OH243964   4.852   0.633  11.301  0.3229  0.0097  0.1072
 6590TIP3    H143965   4.895   0.591  11.375  0.0793  0.1503  0.3269
 6590TIP3    H243966   4.787   0.568  11.271  0.6020 -0.1552 -0.1518
 6591TIP3   OH243967   6.517   5.746  10.802  0.0606  0.4164 -0.6697
 6591TIP3    H143968   6.541   5.661  10.838 -0.3092  0.5963  0.0419
 6591TIP3    H243969   6.424   5.756  10.825  0.1113  1.0243 -0.7023
 6592TIP3   OH243970   5.747   0.721  11.668 -0.6974 -0.2072 -0.2370
 6592TIP3    H143971   5.782   0.650  11.722  0.4040 -0.5476 -1.3348
 6592TIP3    H243972   5.801   0.797  11.689  0.5410 -0.6419 -1.6755
 6593TIP3   OH243973   7.670   1.669  10.735  0.2231  0.2956 -0.3971
 6593TIP3    H143974   7.757   1.646  10.766  0.0604  0.1090 -0.0784
 6593TIP3    H243975   7.679   1.758  10.702  0.3063  0.6378  0.5407
 6594TIP3   OH243976   1.530   5.592  11.616 -0.1432  0.5001 -0.0484
 6594TIP3    H143977   1.503   5.648  11.543 -1.9701  0.9611  0.9107
 6594TIP3    H243978   1.619   5.622  11.637 -0.5346  2.0905 -0.4832
 6595TIP3   OH243979   0.603   1.615  10.765 -0.4765  0.4032 -0.4763
 6595TIP3    H143980   0.517   1.657  10.773 -0.0226  1.0665  1.6098
 6595TIP3    H243981   0.592   1.530  10.807  0.0162  0.7238  0.3193
 6596TIP3   OH243982   4.146   1.108   9.990  0.2123  0.5849  0.2105
 6596TIP3    H143983   4.209   1.168   9.951  0.6727 -0.2992 -0.4533
 6596TIP3    H243984   4.184   1.086  10.076 -0.5758  2.1781  0.9970
 6597TIP3   OH243985   4.449   6.339  12.193 -0.6219 -0.3422 -0.4451
 6597TIP3    H143986   4.487   6.284  12.262 -0.4366  2.6797  2.0786
 6597TIP3    H243987   4.357   6.346  12.216 -0.4468  1.1562 -0.0764
 6598TIP3   OH243988   2.197   2.325  11.950  0.1283 -0.2870 -0.2769
 6598TIP3    H143989   2.117   2.293  11.990  0.5183  0.2717  0.9881
 6598TIP3    H243990   2.253   2.248  11.943  0.5011 -0.1902  1.3761
 6599TIP3   OH243991   6.939   5.165  12.298  0.5648 -0.3093 -0.1101
 6599TIP3    H143992   6.962   5.099  12.363 -0.4151  1.7866  2.5655
 6599TIP3    H243993   7.016   5.223  12.296 -0.4180  1.1251  1.3075
 6600TIP3   OH243994   5.274   3.575  11.705 -0.2380  0.5533  0.2827
 6600TIP3    H143995   5.247   3.491  11.743 -0.1387  0.5910  0.4402
 6600TIP3    H243996   5.348   3.602  11.759  0.0499  0.5005 -0.0858
 6601TIP3   OH243997   2.484   7.421  10.919  0.1339 -0.2228  0.2737
 6601TIP3    H143998   2.577   7.433  10.902 -0.0247  0.8219  0.0552
 6601TIP3    H243999   2.475   7.328  10.942  1.4322 -0.0273  1.7248
 6602TIP3   OH244000   4.366   1.651  12.219 -0.5388  0.2294  0.0313
 6602TIP3    H144001   4.427   1.724  12.214  0.8924 -0.9487 -0.2787
 6602TIP3    H244002   4.280   1.691  12.207  0.2616  1.7680 -0.8356
 6603TIP3   OH244003   4.021   1.311  11.870  0.0389  0.1561 -0.2598
 6603TIP3    H144004   3.959   1.301  11.943  0.5535 -0.8355  0.0654
 6603TIP3    H244005   4.107   1.303  11.911  0.4069  1.8561 -0.6556
 6604TIP3   OH244006   6.079   3.635  10.425  0.3552 -0.1511  0.0422
 6604TIP3    H144007   6.102   3.542  10.427  0.9288 -0.0721 -1.6575
 6604TIP3    H244008   6.056   3.652  10.334  0.6948  1.4906  0.2367
 6605TIP3   OH244009   5.987   7.430  10.206 -0.2387  0.2716 -0.0540
 6605TIP3    H144010   5.906   7.379  10.197 -0.8434  0.9487  1.2716
 6605TIP3    H244011   6.040   7.379  10.268 -0.0465  0.3264 -0.1720
 6606TIP3   OH244012   6.540   2.846  10.567  0.3856 -0.1138 -0.2558
 6606TIP3    H144013   6.481   2.777  10.598 -1.3368  0.0402 -2.9404
 6606TIP3    H244014   6.492   2.927  10.582  0.9780  0.2373 -0.2371
 6607TIP3   OH244015   0.196   7.046  11.873  0.9348  0.8495 -0.2267
 6607TIP3    H144016   0.150   7.115  11.826 -0.5336  1.0128  1.3282
 6607TIP3    H244017   0.284   7.080  11.886  1.7546  0.3555 -3.6594
 6608TIP3   OH244018   5.215   2.617  10.374  0.6899 -0.1729 -0.2302
 6608TIP3    H144019   5.172   2.536  10.347 -0.2647  0.3550 -0.3349
 6608TIP3    H244020   5.190   2.629  10.465  0.7840  0.0317 -0.2296
 6609TIP3   OH244021   2.588   4.950  11.217 -0.3962 -0.0499  0.1165
 6609TIP3    H144022   2.633   4.966  11.300  0.5231  0.4504 -0.4619
 6609TIP3    H244023   2.639   4.881  11.176 -2.1989 -1.9893  0.9633
 6610TIP3   OH244024   6.426   6.277  15.914 -0.0733 -0.5217  0.0744
 6610TIP3    H144025   6.361   6.329  15.867  0.0337  0.3898  0.9157
 6610TIP3    H244026   6.375   6.229  15.979 -0.0449 -0.7334 -0.0560
 6611TIP3   OH244027   6.946   2.906  10.609  0.6514  0.5921 -0.6150
 6611TIP3    H144028   6.880   2.839  10.625  0.7617  0.1933 -1.7591
 6611TIP3    H244029   6.958   2.948  10.694 -0.4422  0.1005 -0.1953
 6612TIP3   OH244030   0.553   3.823  12.486  0.0637 -0.3192 -0.1522
 6612TIP3    H144031   0.488   3.878  12.531 -0.6062 -1.3893  0.2157
 6612TIP3    H244032   0.542   3.736  12.524  3.2083 -0.1362  1.4908
 6613TIP3   OH244033   2.318   3.855   9.832  0.2737  0.0778  0.3286
 6613TIP3    H144034   2.235   3.813   9.856 -0.3226  0.3836 -1.0847
 6613TIP3    H244035   2.380   3.783   9.825 -0.8246 -0.7559 -2.4617
 6614TIP3   OH244036   2.854   3.521  11.521 -0.1209  0.3154  0.0661
 6614TIP3    H144037   2.763   3.529  11.493 -0.0572 -0.0435 -0.2513
 6614TIP3    H244038   2.867   3.594  11.582 -0.3658  0.8955 -0.5620
 6615TIP3   OH244039   6.876   4.977  10.865  0.7293  0.3957  0.7527
 6615TIP3    H144040   6.801   5.032  10.888  1.7832  1.5321  1.5558
 6615TIP3    H244041   6.885   4.916  10.939  1.3804  1.1254  1.2928
 6616TIP3   OH244042   6.410   6.438  10.420  0.2010  0.2371  0.5755
 6616TIP3    H144043   6.427   6.438  10.514 -1.1822  0.8152  0.8543
 6616TIP3    H244044   6.395   6.346  10.398  2.3039 -0.1515  0.5290
 6617TIP3   OH244045   4.777   0.503  10.650 -0.0029 -0.5437  0.8930
 6617TIP3    H144046   4.841   0.566  10.616  0.0069 -0.6909  0.6313
 6617TIP3    H244047   4.755   0.449  10.574 -0.1809 -0.7115  1.0637
 6618TIP3   OH244048   3.884   4.851  10.541 -0.2229 -0.4358  0.3776
 6618TIP3    H144049   3.836   4.777  10.503 -2.4469  1.1732 -0.1483
 6618TIP3    H244050   3.830   4.878  10.616  1.8220 -0.7921  2.0722
 6619TIP3   OH244051   5.344   2.881  11.481  0.1095  0.1256  0.2043
 6619TIP3    H144052   5.363   2.793  11.515  2.2815 -0.3179 -1.8745
 6619TIP3    H244053   5.418   2.934  11.511 -0.4512  0.9031  0.2265
 6620TIP3   OH244054   0.925   6.749  11.560  0.0302 -0.5947  0.5648
 6620TIP3    H144055   0.843   6.798  11.559  0.4122  0.1740  2.1359
 6620TIP3    H244056   0.899   6.657  11.567 -0.7167 -0.3204  1.6726
 6621TIP3   OH244057   3.328   2.389  11.281  0.1558 -0.2688  0.1399
 6621TIP3    H144058   3.265   2.402  11.352 -2.0278 -3.0760 -1.0619
 6621TIP3    H244059   3.309   2.460  11.219 -2.4076 -1.4109 -0.4954
 6622TIP3   OH244060   4.630   3.565  11.623 -0.5708  0.1364  0.0660
 6622TIP3    H144061   4.679   3.530  11.697 -0.0483  0.2620 -0.2125
 6622TIP3    H244062   4.626   3.492  11.561 -1.3780 -0.1032  0.3882
 6623TIP3   OH244063   0.217   2.262  11.494 -0.5960  0.1636 -0.3189
 6623TIP3    H144064   0.291   2.219  11.537 -1.2851 -0.7094  0.0276
 6623TIP3    H244065   0.257   2.316  11.426  0.6031  1.9801  1.6731
 6624TIP3   OH244066   6.724   0.982  11.374 -0.0576 -0.5600 -0.3934
 6624TIP3    H144067   6.806   1.013  11.335  0.5260 -0.0152  1.1840
 6624TIP3    H244068   6.659   0.993  11.305  0.9997 -0.0344 -1.3395
 6625TIP3   OH244069   5.024   3.667  10.001  0.3211  0.0917 -0.3309
 6625TIP3    H144070   4.941   3.650  10.046  0.5422  0.0070  0.0422
 6625TIP3    H244071   5.063   3.580   9.991  0.6220  0.1899 -0.0136
 6626TIP3   OH244072   7.137   6.431  12.617  0.1207 -0.1983  0.4469
 6626TIP3    H144073   7.158   6.445  12.709 -1.7535  1.3334  0.7204
 6626TIP3    H244074   7.055   6.382  12.618 -1.0222  1.5630 -0.2993
 6627TIP3   OH244075   0.841   1.951  10.647 -0.2578  0.1937 -0.2895
 6627TIP3    H144076   0.906   1.936  10.578  2.0955  2.3930  1.2176
 6627TIP3    H244077   0.776   2.009  10.607  0.5489  0.6607 -0.9618
 6628TIP3   OH244078   5.280   7.641  12.446 -0.2525  0.5413  0.3078
 6628TIP3    H144079   5.317   7.597  12.370 -1.0401  1.7726 -0.8387
 6628TIP3    H244080   5.354   7.658  12.504  0.2659 -0.9522  0.1168
 6629TIP3   OH244081   6.326   2.050  11.414  0.5521 -0.0808 -0.3850
 6629TIP3    H144082   6.241   2.038  11.456  0.2116  0.5461 -0.8677
 6629TIP3    H244083   6.305   2.083  11.327  1.3040  0.7378 -0.2709
 6630TIP3   OH244084   3.208   5.015   9.918 -0.0479 -0.4746  0.0288
 6630TIP3    H144085   3.174   4.968   9.842 -2.0236 -1.3675  1.3770
 6630TIP3    H244086   3.190   4.957   9.992 -1.7232  1.9134  1.6556
 6631TIP3   OH244087   4.851   4.491  12.078 -0.6393  0.1508  0.5267
 6631TIP3    H144088   4.780   4.477  12.142 -2.0351 -0.1707 -1.0245
 6631TIP3    H244089   4.849   4.413  12.023 -0.9489  1.3480 -1.2434
 6632TIP3   OH244090   6.332   4.653  11.736  0.5049  0.3501 -0.2741
 6632TIP3    H144091   6.313   4.742  11.708  1.9573  0.5788 -0.6181
 6632TIP3    H244092   6.324   4.600  11.656 -0.1883  0.1845 -0.1032
 6633TIP3   OH244093   0.849   6.253  10.692  0.2862 -0.4858 -0.1617
 6633TIP3    H144094   0.907   6.275  10.619 -0.3891  0.3517 -0.4568
 6633TIP3    H244095   0.853   6.157  10.697  2.3874 -0.3998  0.4139
 6634TIP3   OH244096   2.108   7.361  10.673 -0.2958  0.2841  0.2589
 6634TIP3    H144097   2.025   7.391  10.635 -0.6667  0.4364  1.1677
 6634TIP3    H244098   2.137   7.434  10.727  1.2904  0.8964 -1.3099
 6635TIP3   OH244099   3.104   5.789  12.794  0.1558  0.3006  0.6075
 6635TIP3    H144100   3.010   5.782  12.813 -0.2068 -1.8130 -1.6046
 6635TIP3    H244101   3.146   5.760  12.875 -1.1904 -1.8689  0.6184
 6636TIP3   OH244102   0.409   4.404  11.118  0.0423 -0.1380 -0.2779
 6636TIP3    H144103   0.394   4.498  11.110 -1.8333 -0.2367  1.2546
 6636TIP3    H244104   0.330   4.364  11.081 -0.2227 -1.0176  1.1686
 6637TIP3   OH244105   3.392   7.099  10.857 -0.2623 -1.0570 -0.2218
 6637TIP3    H144106   3.459   7.059  10.912  0.1325 -1.5984 -1.0671
 6637TIP3    H244107   3.356   7.026  10.807 -1.3676 -0.7389  0.0906
 6638TIP3   OH244108   7.454   4.989   9.730 -0.3006 -0.2425  0.3397
 6638TIP3    H144109   7.359   4.982   9.716 -0.0977 -0.3732 -1.0987
 6638TIP3    H244110   7.462   5.035   9.813 -1.6368  0.9657 -0.1629
 6639TIP3   OH244111   2.543   0.612  12.104 -0.1149  0.3951  0.2311
 6639TIP3    H144112   2.603   0.572  12.040  0.1811  0.3384  0.5396
 6639TIP3    H244113   2.537   0.547  12.174 -0.5610  0.3908  0.1902
 6640TIP3   OH244114   4.170   0.508  11.641 -0.2264  0.1716 -0.0742
 6640TIP3    H144115   4.083   0.543  11.658  0.0994  1.0404 -0.1359
 6640TIP3    H244116   4.206   0.490  11.728 -0.2503  0.3794 -0.0199
 6641TIP3   OH244117   2.397   7.678  10.333 -0.2058  0.0260 -0.3494
 6641TIP3    H144118   2.406   7.590  10.368 -0.9408 -0.0883 -0.4202
 6641TIP3    H244119   2.330   7.719  10.387  1.6358  1.2942  1.0710
 6642TIP3   OH244120   3.949   6.698  11.315 -0.4449 -0.3820  0.4114
 6642TIP3    H144121   4.000   6.640  11.372  0.1207 -0.5216 -0.2164
 6642TIP3    H244122   3.983   6.679  11.227 -0.5157  0.6388  0.1603
 6643TIP3   OH244123   7.041   6.553  11.711  0.5407  0.3603 -0.1086
 6643TIP3    H144124   7.061   6.585  11.799 -0.9906  0.9760  0.0440
 6643TIP3    H244125   7.063   6.626  11.654 -0.3992  0.7263 -0.0204
 6644TIP3   OH244126   0.985   2.959  11.766  0.2346 -0.2725  0.4318
 6644TIP3    H144127   0.905   2.960  11.714  1.8080  0.8681 -2.1575
 6644TIP3    H244128   1.041   2.895  11.723  0.7940 -1.0100  2.1587
 6645TIP3   OH244129   0.923   1.797  12.038  0.0661 -0.2472  0.0286
 6645TIP3    H144130   0.832   1.798  12.068  0.3715 -1.3382  1.0813
 6645TIP3    H244131   0.974   1.803  12.119  0.9398  0.1149 -0.5390
 6646TIP3   OH244132   3.674   4.324   9.688  0.0171  0.2491  0.2931
 6646TIP3    H144133   3.706   4.413   9.670  1.9289 -0.3159  0.6594
 6646TIP3    H244134   3.748   4.267   9.668 -1.2574 -1.3252 -0.2232
 6647TIP3   OH244135   3.057   6.029  12.609 -0.4533  0.8879  0.3473
 6647TIP3    H144136   3.074   5.976  12.687 -2.2879 -0.6627 -0.2447
 6647TIP3    H244137   3.117   6.103  12.618  1.9887 -1.0627  1.3767
 6648TIP3   OH244138   1.418   4.956  11.534  0.8608  0.2147 -0.3155
 6648TIP3    H144139   1.422   4.982  11.626  0.3141 -0.0653 -0.2054
 6648TIP3    H244140   1.390   5.035  11.488  2.6079  0.7913 -0.4595
 6649TIP3   OH244141   4.328   5.083  10.904  0.0472 -0.5224  0.2260
 6649TIP3    H144142   4.260   5.146  10.876  1.2274  0.4173 -0.6348
 6649TIP3    H244143   4.393   5.137  10.948 -0.8905 -1.7399  3.3533
 6650TIP3   OH244144   7.661   6.958  12.062 -0.0322  0.3292 -0.0653
 6650TIP3    H144145   7.684   6.994  11.977 -1.5593  2.9275  0.5162
 6650TIP3    H244146   7.722   6.999  12.123 -0.7798  0.7550  0.4170
 6651TIP3   OH244147   3.423   7.295  10.669 -0.5494  0.0337  0.0944
 6651TIP3    H144148   3.392   7.218  10.717 -1.1464 -1.1162 -1.9651
 6651TIP3    H244149   3.476   7.258  10.598  1.8121  1.7298  0.8752
 6652TIP3   OH244150   0.619   4.803   9.517 -0.1654  0.2995  0.6216
 6652TIP3    H144151   0.543   4.800   9.458  1.3039 -0.3229 -1.3713
 6652TIP3    H244152   0.636   4.896   9.530 -0.0975  0.4676 -0.5621
 6653TIP3   OH244153   4.063   1.338  11.053 -0.4317 -0.4521 -0.5048
 6653TIP3    H144154   3.992   1.337  10.990  0.0996 -2.6845 -1.1479
 6653TIP3    H244155   4.139   1.368  11.004 -0.6447  0.8453 -0.0927
 6654TIP3   OH244156   3.190   5.106  11.696  0.7449  0.9618  0.0028
 6654TIP3    H144157   3.146   5.066  11.621  1.2243  1.9070 -0.8071
 6654TIP3    H244158   3.148   5.191  11.707 -1.6491 -0.4329  2.9756
 6655TIP3   OH244159   7.134   6.324  10.392  0.1257  0.5806 -0.5457
 6655TIP3    H144160   7.159   6.363  10.308 -0.3402  2.4340  0.1249
 6655TIP3    H244161   7.194   6.364  10.456 -1.4725  1.5460  0.4121
 6656TIP3   OH244162   0.760   0.165  10.566 -0.0366 -0.3380 -0.3846
 6656TIP3    H144163   0.789   0.076  10.587 -1.0064 -0.7093 -0.5256
 6656TIP3    H244164   0.726   0.199  10.649  0.7394  0.0681 -0.2314
 6657TIP3   OH244165   3.106   6.227  11.927  0.5679  0.1988  0.3270
 6657TIP3    H144166   3.179   6.176  11.962  0.7521  0.0517 -0.2607
 6657TIP3    H244167   3.085   6.290  11.996 -0.2461 -1.2241  1.4241
 6658TIP3   OH244168   3.625   0.755  10.315  0.2944 -0.0036  0.1387
 6658TIP3    H144169   3.586   0.809  10.384 -0.3858  0.5088 -0.6320
 6658TIP3    H244170   3.662   0.818  10.253  0.1910 -0.4403 -0.3755
 6659TIP3   OH244171   1.939   7.447  12.006 -0.1857  0.1673 -0.1002
 6659TIP3    H144172   1.991   7.367  12.010  0.0609  0.3221 -0.1651
 6659TIP3    H244173   1.910   7.461  12.097 -0.1181  0.0769 -0.0647
 6660TIP3   OH244174   7.442   5.909  10.949  0.5167  0.6922  0.1728
 6660TIP3    H144175   7.496   5.900  10.871  0.8098 -0.3022  0.4762
 6660TIP3    H244176   7.501   5.891  11.022 -0.3397 -1.1029  0.4699
 6661TIP3   OH244177   3.375   4.638  10.346  0.4695 -0.2497  0.0756
 6661TIP3    H144178   3.368   4.650  10.441 -0.2804 -0.1014  0.0143
 6661TIP3    H244179   3.455   4.685  10.321  0.2970  0.3113  0.5472
 6662TIP3   OH244180   0.149   7.110  10.769 -0.2392 -0.1466  0.5741
 6662TIP3    H144181   0.227   7.086  10.719 -0.5559 -1.5880  0.7289
 6662TIP3    H244182   0.134   7.202  10.747  1.0818 -0.0429 -0.0075
 6663TIP3   OH244183   3.152   6.484  10.696 -0.1579  0.5802 -0.2381
 6663TIP3    H144184   3.071   6.518  10.734  1.7439  2.9860  2.0321
 6663TIP3    H244185   3.155   6.520  10.608 -1.0395  1.3821  0.0541
 6664TIP3   OH244186   3.323   2.277  10.716 -0.5412 -0.1866  0.5184
 6664TIP3    H144187   3.352   2.288  10.807  0.6701 -1.0103  0.2684
 6664TIP3    H244188   3.368   2.346  10.668 -1.6560  0.6249  0.6274
 6665TIP3   OH244189   5.040   6.723   9.647  0.2284  0.4963  0.0354
 6665TIP3    H144190   4.967   6.710   9.587  1.8238 -0.7035 -1.7276
 6665TIP3    H244191   5.089   6.796   9.610  1.4107 -0.4663 -0.3196
 6666TIP3   OH244192   0.587   3.116  10.803 -0.1593  0.6667  0.0329
 6666TIP3    H144193   0.509   3.116  10.748 -0.6594 -1.0090  0.6641
 6666TIP3    H244194   0.560   3.165  10.881 -0.7324 -0.2038  0.4026
 6667TIP3   OH244195   6.988   4.585  11.455 -0.5655  0.1701  0.4712
 6667TIP3    H144196   6.899   4.586  11.421 -0.6264 -0.5201  0.5903
 6667TIP3    H244197   6.979   4.558  11.547 -0.1097 -1.7213  0.0086
 6668TIP3   OH244198   6.991   3.735  11.113  0.1934  0.5108 -0.0181
 6668TIP3    H144199   6.896   3.728  11.117  0.2330  0.4311  2.2132
 6668TIP3    H244200   7.007   3.811  11.057 -1.1320  0.1607 -0.9327
 6669TIP3   OH244201   5.195   6.762  12.511  0.1413  0.2578  0.1820
 6669TIP3    H144202   5.160   6.673  12.509  1.3179 -0.2507  1.0393
 6669TIP3    H244203   5.119   6.817  12.529 -0.3558 -0.7428  1.2696
 6670TIP3   OH244204   4.973   2.692  11.485  0.0241  0.1190  0.1461
 6670TIP3    H144205   5.020   2.771  11.456 -0.6103  0.0359 -1.1676
 6670TIP3    H244206   4.913   2.723  11.553  0.0684  0.6885 -0.0744
 6671TIP3   OH244207   1.211   2.502  12.339  0.6096  0.0188  0.0985
 6671TIP3    H144208   1.182   2.411  12.344  0.0325  0.0349 -2.0316
 6671TIP3    H244209   1.306   2.498  12.343  0.6363 -0.7942 -0.8970
 6672TIP3   OH244210   2.562   4.868  11.634  0.2964  0.6259  0.3651
 6672TIP3    H144211   2.533   4.886  11.724 -1.4669 -1.7475  0.3749
 6672TIP3    H244212   2.620   4.941  11.613  0.3046  1.5844  3.2033
 6673TIP3   OH244213   2.384   2.154  12.282 -0.2416 -0.0829  0.5685
 6673TIP3    H144214   2.385   2.245  12.312  0.0051  0.1335 -0.0826
 6673TIP3    H244215   2.476   2.126  12.289 -0.0317  0.2196 -0.7047
 6674TIP3   OH244216   3.485   0.670  10.678 -0.4850  0.0407  0.2448
 6674TIP3    H144217   3.555   0.712  10.629 -0.8856 -0.1924 -0.5412
 6674TIP3    H244218   3.522   0.585  10.704 -0.1880  0.2649  0.5772
 6675TIP3   OH244219   5.664   3.209  10.072  0.2319  0.7521 -0.0332
 6675TIP3    H144220   5.640   3.204  10.165 -0.1928  0.2073 -0.1676
 6675TIP3    H244221   5.716   3.289  10.065  1.0316  0.3321  0.8481
 6676TIP3   OH244222   5.780   4.060  10.061 -0.6657  0.0923  1.0332
 6676TIP3    H144223   5.744   4.110   9.987  0.4059  0.0665  0.4819
 6676TIP3    H244224   5.805   4.127  10.124 -1.7828  0.1060  1.4907
 6677TIP3   OH244225   2.724   2.131  11.291  0.1851 -0.0509  0.2289
 6677TIP3    H144226   2.727   2.120  11.386 -0.8723 -0.1124  0.2625
 6677TIP3    H244227   2.804   2.089  11.260  1.6692  1.8451  1.2493
 6678TIP3   OH244228   3.539   7.487  12.164 -0.0674  0.5408 -0.0570
 6678TIP3    H144229   3.626   7.481  12.202  0.8455  1.0277 -1.9410
 6678TIP3    H244230   3.482   7.511  12.238  1.3384  0.0304  1.2447
 6679TIP3   OH244231   7.503   4.799  11.108 -0.1905  0.3178  0.3383
 6679TIP3    H144232   7.594   4.797  11.136 -0.5206  1.7648  1.6635
 6679TIP3    H244233   7.503   4.851  11.028 -0.3348  4.7759  2.9324
 6680TIP3   OH244234   7.056   1.453  10.336  0.3999  0.7493  0.0288
 6680TIP3    H144235   7.005   1.521  10.380 -1.4799  0.4886 -1.6090
 6680TIP3    H244236   7.125   1.500  10.290 -1.4512  1.7561 -1.8876
 6681TIP3   OH244237   0.181   2.626  11.252  0.1778 -0.2246 -0.6347
 6681TIP3    H144238   0.221   2.684  11.187 -0.7098  0.3007 -0.7402
 6681TIP3    H244239   0.255   2.583  11.295  1.1740  3.2957  1.6394
 6682TIP3   OH244240   0.997   5.800  11.675  0.4678 -0.0990 -0.1955
 6682TIP3    H144241   0.929   5.852  11.631  0.3470 -0.1926 -0.1175
 6682TIP3    H244242   0.964   5.710  11.673  0.5589 -0.1343 -0.0973
 6683TIP3   OH244243   5.751   0.417  11.735 -0.3003 -0.2716 -0.2290
 6683TIP3    H144244   5.721   0.403  11.645  2.0910 -2.8486 -0.7788
 6683TIP3    H244245   5.683   0.375  11.789  0.1942 -2.4729 -1.1755
 6684TIP3   OH244246   4.802   6.663   9.507 -0.0669  0.3311  0.2488
 6684TIP3    H144247   4.725   6.710   9.537 -0.1775 -1.3054  2.7679
 6684TIP3    H244248   4.771   6.574   9.488  1.2891 -0.6377  2.2372
 6685TIP3   OH244249   4.837   2.712  10.440  0.4439 -0.0411  0.0378
 6685TIP3    H144250   4.800   2.646  10.382  2.1843 -0.3794 -0.7234
 6685TIP3    H244251   4.851   2.789  10.384 -1.0284  0.8450  0.7930
 6686TIP3   OH244252   0.585   6.903  10.008 -0.5191  0.2081 -0.2136
 6686TIP3    H144253   0.670   6.865   9.987 -1.2147 -1.3763 -0.2693
 6686TIP3    H244254   0.579   6.897  10.103  1.0912  4.0720  0.3214
 6687TIP3   OH244255   5.432   2.942  10.436  0.8173 -0.0364  0.2334
 6687TIP3    H144256   5.455   2.914  10.524  2.5718 -1.5533 -0.6480
 6687TIP3    H244257   5.451   2.867  10.380 -0.3387  0.8369 -1.4539
 6688TIP3   OH244258   1.775   5.338  10.641 -0.3920 -0.0013 -0.2553
 6688TIP3    H144259   1.807   5.254  10.608  0.3822  0.1573  0.0710
 6688TIP3    H244260   1.851   5.378  10.683 -0.9605  0.4934  0.3308
 6689TIP3   OH244261   5.386   1.269   9.939 -0.3644 -0.2283  0.4409
 6689TIP3    H144262   5.290   1.269   9.942 -0.3657 -1.2187  0.7386
 6689TIP3    H244263   5.412   1.322  10.015 -0.6708 -0.5069  0.7448
 6690TIP3   OH244264   2.029   0.042  11.893 -0.3538 -0.2666  0.4050
 6690TIP3    H144265   2.048   0.136  11.890  0.5408 -0.4097  0.9972
 6690TIP3    H244266   1.934   0.037  11.905 -0.4932  0.5464 -0.2841
 6691TIP3   OH244267   0.930   5.330  11.902 -0.6727  0.5023  0.0388
 6691TIP3    H144268   0.887   5.360  11.982 -0.2502 -0.8382  0.7977
 6691TIP3    H244269   0.881   5.251  11.877  1.2264 -0.9974  0.8560
 6692TIP3   OH244270   5.849   3.819   9.933 -0.8711  0.0769 -0.5850
 6692TIP3    H144271   5.757   3.828   9.908 -0.8742  1.0606 -0.2357
 6692TIP3    H244272   5.874   3.905   9.966 -0.2931 -0.6265  0.9056
 6693TIP3   OH244273   3.043   2.960  11.199  0.3664  0.2241 -0.3626
 6693TIP3    H144274   3.069   2.965  11.107  0.3764  0.2604 -0.3573
 6693TIP3    H244275   3.032   3.051  11.226 -0.6406  0.1837 -0.6098
 6694TIP3   OH244276   7.420   0.612  10.663  0.3666 -0.2967 -0.0319
 6694TIP3    H144277   7.347   0.659  10.703  2.0210  2.5098 -0.1045
 6694TIP3    H244278   7.497   0.637  10.714  1.6590 -1.2402 -1.4177
 6695TIP3   OH244279   6.593   3.716  11.469  0.8590  0.1040 -0.3352
 6695TIP3    H144280   6.671   3.662  11.480 -0.2824 -1.5558  0.0760
 6695TIP3    H244281   6.604   3.756  11.383  1.5288 -1.2244 -0.8991
 6696TIP3   OH244282   1.417   3.560  11.674  0.8723 -0.2626 -0.1803
 6696TIP3    H144283   1.396   3.559  11.581 -0.1922 -0.1817  0.0400
 6696TIP3    H244284   1.372   3.638  11.708  1.9768  0.2092  0.2488
 6697TIP3   OH244285   1.465   5.303  12.046  0.0128 -0.2956 -0.3078
 6697TIP3    H144286   1.508   5.297  11.961  1.0139 -0.8764  0.2197
 6697TIP3    H244287   1.456   5.397  12.063  0.0369 -0.1781 -0.9387
 6698TIP3   OH244288   7.189   0.727  11.567  0.4037  0.1799 -0.1831
 6698TIP3    H144289   7.111   0.717  11.620  0.0782 -1.8759 -0.9257
 6698TIP3    H244290   7.261   0.728  11.630 -0.1311  0.9119  0.4376
 6699TIP3   OH244291   6.903   1.983  11.810 -0.2335  0.7915 -0.0371
 6699TIP3    H144292   6.914   1.902  11.860 -1.9393 -1.4693 -2.9576
 6699TIP3    H244293   6.816   2.014  11.836 -0.3147  0.6952 -0.1938
 6700TIP3   OH244294   4.509   1.637   9.796  0.0168  0.7615 -0.2816
 6700TIP3    H144295   4.524   1.687   9.876 -2.1984  0.8636  0.1180
 6700TIP3    H244296   4.416   1.614   9.798  0.4897 -1.5867 -1.4932
 6701TIP3   OH244297   2.171   3.449  11.785  0.2106  0.5579 -0.3126
 6701TIP3    H144298   2.124   3.427  11.866  1.6080  0.8955  0.6197
 6701TIP3    H244299   2.136   3.387  11.721 -0.5595 -0.0669  0.6668
 6702TIP3   OH244300   5.867   5.324  11.102  0.4028 -0.1925  0.0003
 6702TIP3    H144301   5.889   5.324  11.195  2.0162 -0.1751 -0.3419
 6702TIP3    H244302   5.899   5.408  11.069 -0.2546 -0.1492 -0.5475
 6703TIP3   OH244303   3.045   2.723  11.306  0.1560  0.0904  0.0864
 6703TIP3    H144304   2.983   2.751  11.374 -0.2441  1.3650 -0.7702
 6703TIP3    H244305   3.065   2.803  11.258  0.6354 -0.7454 -1.1362
 6704TIP3   OH244306   3.141   5.914  10.317 -0.3697 -0.2183 -0.2062
 6704TIP3    H144307   3.071   5.906  10.252  0.3860 -0.4006 -1.0196
 6704TIP3    H244308   3.119   5.851  10.385 -1.1904 -0.0043 -0.2599
 6705TIP3   OH244309   6.001   7.488  12.647  0.0266 -0.7414  0.1694
 6705TIP3    H144310   5.917   7.534  12.644 -0.1555 -1.1136 -1.1415
 6705TIP3    H244311   6.067   7.558  12.651 -0.3241 -0.4413  0.8705
 6706TIP3   OH244312   5.300   7.216  10.075 -0.2248 -0.3078 -0.4050
 6706TIP3    H144313   5.292   7.299  10.029 -3.2565 -0.6496 -0.7013
 6706TIP3    H244314   5.261   7.152  10.016  1.1433 -1.8065  0.2446
 6707TIP3   OH244315   7.613   3.283  11.088  0.1431 -1.0508  0.4888
 6707TIP3    H144316   7.553   3.352  11.116 -0.6888 -1.3859 -0.4127
 6707TIP3    H244317   7.693   3.329  11.063 -0.6671 -0.3190 -0.8591
 6708TIP3   OH244318   1.779   4.149  11.056  0.2534 -0.0204 -1.0570
 6708TIP3    H144319   1.805   4.186  11.140  0.4478 -0.4094 -0.9454
 6708TIP3    H244320   1.858   4.152  11.002 -0.1071  1.1159 -1.5515
 6709TIP3   OH244321   2.081   3.219  10.294  0.1412  0.5042 -0.0442
 6709TIP3    H144322   2.046   3.213  10.383 -1.2748  0.6452 -0.5621
 6709TIP3    H244323   2.124   3.135  10.279 -0.6725  0.0039  0.3574
 6710TIP3   OH244324   1.618   0.288  11.324 -0.4090  0.3424  0.3969
 6710TIP3    H144325   1.652   0.366  11.367 -0.5291  0.7048 -0.1652
 6710TIP3    H244326   1.682   0.220  11.344 -0.1892  0.6324  0.6951
 6711TIP3   OH244327   6.933   7.206  12.349 -0.2146  0.1037 -0.0267
 6711TIP3    H144328   6.985   7.198  12.429 -0.8257  0.0710  0.3749
 6711TIP3    H244329   6.921   7.116  12.319  1.9692  0.2057 -1.4681
 6712TIP3   OH244330   6.695   6.899  10.886 -0.2458  0.1157 -0.3568
 6712TIP3    H144331   6.765   6.874  10.826  0.0997 -0.4751  0.2899
 6712TIP3    H244332   6.644   6.964  10.837 -0.3011 -0.7554 -1.5054
 6713TIP3   OH244333   1.974   1.361  12.382 -0.2252 -0.2028  0.0853
 6713TIP3    H144334   1.940   1.315  12.305  2.3277 -1.7313 -0.2375
 6713TIP3    H244335   1.993   1.291  12.445  0.0052  0.8048  1.1687
 6714TIP3   OH244336   0.136   1.338  11.947  0.3326 -0.1937  0.9444
 6714TIP3    H144337   0.157   1.368  11.858 -0.1041  1.3541  1.3304
 6714TIP3    H244338   0.221   1.335  11.992  0.3446  0.9507  1.0215
 6715TIP3   OH244339   3.398   3.921   9.948 -0.0575  0.3769 -0.0309
 6715TIP3    H144340   3.354   3.840   9.923  0.3012  0.7620 -2.1575
 6715TIP3    H244341   3.327   3.981   9.970 -0.4657  0.1050 -0.5670
 6716TIP3   OH244342   6.672   2.749  10.345  0.3177 -0.6256  0.1488
 6716TIP3    H144343   6.680   2.789  10.431  1.5558  0.7717 -0.5701
 6716TIP3    H244344   6.644   2.821  10.288 -0.4310 -1.5150 -0.6342
 6717TIP3   OH244345   6.790   6.905  11.812  0.1274 -0.1932  0.2837
 6717TIP3    H144346   6.802   6.991  11.772 -0.4744  0.7047  1.9223
 6717TIP3    H244347   6.801   6.921  11.906 -0.0523 -1.8992  0.6265
 6718TIP3   OH244348   3.790   1.597  10.304  0.1826  0.4011 -0.2794
 6718TIP3    H144349   3.792   1.601  10.208 -0.8160  1.4148 -0.2943
 6718TIP3    H244350   3.877   1.569  10.329  0.1083 -1.0631 -1.5262
 6719TIP3   OH244351   1.475   4.061  11.866  0.1783  0.1291 -0.1250
 6719TIP3    H144352   1.517   4.102  11.943  0.0067  2.7925 -1.3341
 6719TIP3    H244353   1.442   3.978  11.899  1.3367  0.5350  2.3426
 6720TIP3   OH244354   2.679   7.490   9.895  0.5082 -0.0883 -0.2944
 6720TIP3    H144355   2.601   7.534   9.860  1.0741  0.0209 -1.4571
 6720TIP3    H244356   2.670   7.497   9.990 -1.7374 -1.5137 -0.3213
 6721TIP3   OH244357   2.611   2.653  11.856 -0.4022  0.1889 -0.0037
 6721TIP3    H144358   2.640   2.732  11.810  1.9045 -1.6349 -1.8744
 6721TIP3    H244359   2.661   2.652  11.938  1.4136 -0.5216 -1.0829
 6722TIP3   OH244360   6.353   1.377  10.603  0.3317  0.3808  0.1740
 6722TIP3    H144361   6.409   1.300  10.610 -0.4011 -0.4519 -2.1347
 6722TIP3    H244362   6.288   1.366  10.672 -1.4995 -2.6980 -1.8012
 6723TIP3   OH244363   2.178   1.964  12.200 -0.0623  0.1746 -0.3343
 6723TIP3    H144364   2.263   2.003  12.219 -0.8516  0.9741  2.0031
 6723TIP3    H244365   2.115   2.029  12.233 -1.4887 -1.5855  0.5532
 6724TIP3   OH244366   5.393   2.104   9.921  0.0224 -0.1337  1.2144
 6724TIP3    H144367   5.467   2.073   9.868 -1.0759 -0.4475 -0.1894
 6724TIP3    H244368   5.426   2.103  10.011  1.4348 -1.1334  0.7247
 6725TIP3   OH244369   7.258   1.251  10.580 -0.2432 -0.2396  0.4665
 6725TIP3    H144370   7.245   1.328  10.526 -1.4173 -1.5482 -1.2379
 6725TIP3    H244371   7.244   1.177  10.520 -1.3838 -1.7744  2.4962
 6726TIP3   OH244372   6.650   5.072  11.546 -0.1847 -0.4081  0.1557
 6726TIP3    H144373   6.576   5.058  11.487 -0.2461  2.3744 -0.5784
 6726TIP3    H244374   6.612   5.116  11.622  0.5912  0.7805 -0.1031
 6727TIP3   OH244375   2.937   4.540  11.145 -0.2093  0.7553  0.2139
 6727TIP3    H144376   2.880   4.464  11.160  1.1895 -0.5421 -0.7829
 6727TIP3    H244377   3.016   4.521  11.194  0.8846  0.6711 -1.4946
 6728TIP3   OH244378   4.783   3.110  11.862  0.0336  0.6705 -0.4874
 6728TIP3    H144379   4.775   3.179  11.796  0.1408  2.3630  1.1809
 6728TIP3    H244380   4.701   3.061  11.855  0.0472  0.8144 -1.8739
 6729TIP3   OH244381   4.592   0.309  10.969  0.0888 -0.1397  0.4230
 6729TIP3    H144382   4.579   0.237  10.907  2.4704 -1.9241  1.8195
 6729TIP3    H244383   4.522   0.371  10.949 -0.5775 -1.6588 -2.5183
 6730TIP3   OH244384   3.017   1.261  11.648  0.4074  0.2851 -0.6519
 6730TIP3    H144385   3.074   1.188  11.671  0.7690  0.7080 -0.2008
 6730TIP3    H244386   3.072   1.339  11.658 -1.0245  1.0440  2.9391
 6731TIP3   OH244387   5.789   7.611  11.159  0.7291  0.1228 -0.9924
 6731TIP3    H144388   5.829   7.547  11.218 -0.8903 -0.0519 -0.0491
 6731TIP3    H244389   5.725   7.561  11.109 -0.2224  0.8981 -0.5758
 6732TIP3   OH244390   4.990   5.056  12.040 -0.4461 -0.7671 -0.1381
 6732TIP3    H144391   4.965   5.076  12.130 -0.8144  0.1132 -0.4203
 6732TIP3    H244392   5.056   5.121  12.018 -1.1846 -0.2385 -0.8660
 6733TIP3   OH244393   1.459   4.358  12.065 -0.6959 -0.3635 -0.1695
 6733TIP3    H144394   1.506   4.283  12.100 -0.9850  0.3875  1.9788
 6733TIP3    H244395   1.369   4.347  12.096 -1.5494 -0.7425 -2.5407
 6734TIP3   OH244396   2.907   3.781   9.816 -0.1695 -0.1815  0.0624
 6734TIP3    H144397   2.887   3.689   9.801 -0.0132 -0.2091  0.0223
 6734TIP3    H244398   2.885   3.796   9.908  0.0799 -0.3304  0.1458
 6735TIP3   OH244399   1.346   7.207  12.927 -0.1767  0.5876  0.2954
 6735TIP3    H144400   1.420   7.225  12.986 -0.5704  0.2425  0.9129
 6735TIP3    H244401   1.383   7.155  12.857  0.0054 -0.3432  1.0608
 6736TIP3   OH244402   5.724   1.788  10.005  0.2653 -0.7848 -0.2314
 6736TIP3    H144403   5.633   1.792  10.035  0.3042 -0.2671 -0.1778
 6736TIP3    H244404   5.738   1.871   9.960  0.0749 -1.6961 -2.0933
 6737TIP3   OH244405   4.798   0.137  11.023 -0.1880  0.1339  0.0911
 6737TIP3    H144406   4.732   0.077  11.058 -0.7298  0.0931 -0.9445
 6737TIP3    H244407   4.747   0.209  10.985  0.4260  0.8742  0.6308
 6738TIP3   OH244408   2.409   6.388   9.766 -0.3334  0.4333 -0.2071
 6738TIP3    H144409   2.457   6.428   9.693  0.7431  1.5420  1.0667
 6738TIP3    H244410   2.458   6.309   9.786 -1.0178 -0.2373 -1.0909
 6739TIP3   OH244411   0.952   3.233  11.194  0.1385  0.2668 -0.0896
 6739TIP3    H144412   1.045   3.211  11.189 -0.2818 -1.9374  0.5261
 6739TIP3    H244413   0.929   3.216  11.285 -0.8545  0.8856 -0.2155
 6740TIP3   OH244414   7.470   0.419  10.081 -0.5883  0.0851  0.2044
 6740TIP3    H144415   7.403   0.355  10.102 -0.1020 -0.5984 -0.3022
 6740TIP3    H244416   7.454   0.443   9.990 -1.9622  2.1657  0.9074
 6741TIP3   OH244417   3.601   4.919  10.141  0.1017 -0.0929  0.1194
 6741TIP3    H144418   3.578   4.999  10.189 -1.1607 -1.2730  1.5966
 6741TIP3    H244419   3.617   4.854  10.210  1.1816 -1.1017 -1.0540
 6742TIP3   OH244420   6.513   4.363  12.059  0.1852 -0.3065 -0.0371
 6742TIP3    H144421   6.524   4.276  12.022  0.0871 -0.8290  1.1169
 6742TIP3    H244422   6.571   4.419  12.007 -0.4812 -0.8655 -1.4068
 6743TIP3   OH244423   1.526   6.177  10.749 -0.2245  0.3704 -0.2360
 6743TIP3    H144424   1.545   6.086  10.768 -1.2951  0.2220  0.2077
 6743TIP3    H244425   1.508   6.180  10.655 -2.4844 -0.3411  0.1125
 6744TIP3   OH244426   2.474   0.425  10.735  0.0146 -0.6034 -0.0850
 6744TIP3    H144427   2.464   0.515  10.764 -1.5604 -0.5596 -0.6553
 6744TIP3    H244428   2.556   0.424  10.685 -0.4529  0.7585 -0.9335
 6745TIP3   OH244429   6.234   1.535  11.966  0.1624 -0.0184  0.1431
 6745TIP3    H144430   6.266   1.625  11.957 -0.6559  0.4148  1.3430
 6745TIP3    H244431   6.231   1.520  12.061 -1.8463 -0.5103  0.0325
 6746TIP3   OH244432   0.402   5.893  10.796  0.0030  0.7562  0.2008
 6746TIP3    H144433   0.446   5.809  10.785  1.0522  1.3954 -0.7822
 6746TIP3    H244434   0.471   5.952  10.829 -0.7756  1.1814  1.1342
 6747TIP3   OH244435   5.629   2.928  11.350  0.5067  0.2728 -0.0278
 6747TIP3    H144436   5.575   2.867  11.301  0.6707  0.8174 -0.9095
 6747TIP3    H244437   5.713   2.928  11.304  0.4311  1.3299 -0.1917
 6748TIP3   OH244438   5.506   3.509  11.190  0.0610 -0.8641  0.2553
 6748TIP3    H144439   5.424   3.532  11.145 -1.0774 -2.3442  1.4627
 6748TIP3    H244440   5.486   3.523  11.282  2.1149  1.4114  0.4669
 6749TIP3   OH244441   2.692   1.136  10.806 -0.0178  0.9071 -0.1991
 6749TIP3    H144442   2.686   1.047  10.841  2.5569 -0.2402 -2.2886
 6749TIP3    H244443   2.747   1.183  10.869 -0.1185  0.5590  0.1492
 6750TIP3   OH244444   2.019   2.501  10.675  0.0640 -0.0742  0.0899
 6750TIP3    H144445   2.101   2.549  10.661 -0.4010  0.6677 -0.0919
 6750TIP3    H244446   2.045   2.424  10.726  0.7004  0.7012  0.9498
 6751TIP3   OH244447   4.093   0.090  11.143  0.0225  0.2124 -0.7194
 6751TIP3    H144448   4.147   0.168  11.158 -0.3983  0.3196  0.2367
 6751TIP3    H244449   4.005   0.123  11.129 -0.2346 -0.1082  0.0828
 6752TIP3   OH244450   3.595   4.997  12.492 -0.7048 -0.4065 -0.4735
 6752TIP3    H144451   3.532   4.926  12.501 -0.3912 -0.6868 -0.5003
 6752TIP3    H244452   3.547   5.075  12.519 -0.9326 -0.6841 -0.0726
 6753TIP3   OH244453   4.780   7.239  10.469  0.6976  0.8712  0.0108
 6753TIP3    H144454   4.824   7.214  10.550  0.6898  0.6371 -0.0555
 6753TIP3    H244455   4.761   7.333  10.480 -1.0137  0.4488  1.0812
 6754TIP3   OH244456   1.601   3.314  10.833 -0.3118  0.1539 -0.0045
 6754TIP3    H144457   1.532   3.265  10.878 -0.3942 -0.3336 -0.6470
 6754TIP3    H244458   1.567   3.404  10.828 -0.0230  0.3634  1.4648
 6755TIP3   OH244459   1.444   6.613  11.397 -0.4281 -0.2860 -0.1373
 6755TIP3    H144460   1.367   6.568  11.432 -0.3240  0.6127  1.3269
 6755TIP3    H244461   1.410   6.693  11.357 -0.1563  0.9108  1.9182
 6756TIP3   OH244462   4.599   6.267  11.122  0.2125  0.2889 -0.4540
 6756TIP3    H144463   4.663   6.301  11.059  0.0707  0.2723 -0.6086
 6756TIP3    H244464   4.607   6.324  11.198  1.6556 -0.7764  0.2306
 6757TIP3   OH244465   0.827   2.339  11.230  0.0785  0.2313  0.7616
 6757TIP3    H144466   0.745   2.364  11.188  1.0641  0.4580 -1.1432
 6757TIP3    H244467   0.875   2.292  11.162  1.0834 -0.9057  2.1904
 6758TIP3   OH244468   0.239   4.571  10.724  0.0690 -0.2095  0.5376
 6758TIP3    H144469   0.157   4.617  10.741 -0.7826 -0.7836 -1.6096
 6758TIP3    H244470   0.259   4.591  10.633  3.0297  0.9152  1.3334
 6759TIP3   OH244471   5.223   5.481  10.432  0.2352 -0.1922  0.4390
 6759TIP3    H144472   5.292   5.511  10.373  0.6273  0.8048  1.3620
 6759TIP3    H244473   5.147   5.467  10.375  0.9864 -0.6086 -0.4862
 6760TIP3   OH244474   4.966   4.897  12.363 -0.2783 -0.3536  0.2967
 6760TIP3    H144475   4.892   4.948  12.333  2.0008  3.0976  0.0099
 6760TIP3    H244476   4.984   4.929  12.451  1.5361 -0.2450 -0.0763
 6761TIP3   OH244477   2.323   4.525  11.057  0.8999 -0.4985 -0.1129
 6761TIP3    H144478   2.378   4.566  11.123  2.1437 -1.6291 -0.3963
 6761TIP3    H244479   2.385   4.484  10.997 -0.2482 -1.0432 -0.9620
 6762TIP3   OH244480   5.850   1.727  10.229 -0.6173 -0.1010  0.1050
 6762TIP3    H144481   5.798   1.743  10.149 -3.6588 -0.9484  1.7312
 6762TIP3    H244482   5.795   1.668  10.280  2.1288 -1.1584  2.0079
 6763TIP3   OH244483   0.891   5.080  10.982 -0.4566 -0.3497  0.1319
 6763TIP3    H144484   0.957   5.024  11.023 -0.1678 -0.7079 -0.8003
 6763TIP3    H244485   0.927   5.169  10.989  0.9375 -0.7138 -1.8407
 6764TIP3   OH244486   5.333   1.891  10.947  0.2319 -0.1499  0.4608
 6764TIP3    H144487   5.245   1.886  10.910  0.3157  1.9534 -0.1736
 6764TIP3    H244488   5.323   1.950  11.022  1.1711  0.5261  0.0697
 6765TIP3   OH244489   5.063   7.410  11.832 -0.1252 -0.2352 -0.1888
 6765TIP3    H144490   5.041   7.471  11.762  0.7927  0.1360 -0.1767
 6765TIP3    H244491   5.129   7.456  11.884 -0.2539 -0.7944  0.4871
 6766TIP3   OH244492   0.720   2.163  11.925  0.0259  0.3575  0.5088
 6766TIP3    H144493   0.627   2.156  11.946 -0.2656 -1.5543 -1.0828
 6766TIP3    H244494   0.765   2.158  12.010 -1.2922  1.2641  1.2936
 6767TIP3   OH244495   0.197   6.417  11.401 -0.0680 -0.2966 -0.2057
 6767TIP3    H144496   0.119   6.408  11.345 -0.3468 -0.1064  0.1428
 6767TIP3    H244497   0.196   6.509  11.428 -1.3030 -0.8984  2.0439
 6768TIP3   OH244498   6.573   3.620  10.849  0.8121  0.0581 -0.6541
 6768TIP3    H144499   6.632   3.641  10.776 -0.5315 -2.2943 -2.5729
 6768TIP3    H244500   6.561   3.526  10.843 -1.3011  0.1488  1.1251
 6769TIP3   OH244501   7.447   2.410  11.412 -0.0326 -0.2778  0.3467
 6769TIP3    H144502   7.379   2.346  11.434 -0.7679  0.1223 -0.6599
 6769TIP3    H244503   7.514   2.398  11.478 -0.8264 -1.0924  1.0271
 6770TIP3   OH244504   3.941   0.578  10.336  0.5791 -0.2659 -0.6575
 6770TIP3    H144505   3.875   0.620  10.391  1.5459  0.2285  0.1725
 6770TIP3    H244506   3.894   0.550  10.258 -0.3978  1.0393 -0.5635
 6771TIP3   OH244507   3.154   1.069  11.770 -0.3687  0.0051  0.2738
 6771TIP3    H144508   3.159   1.140  11.833  0.6885 -0.0248  0.2387
 6771TIP3    H244509   3.195   0.994  11.814 -0.6144 -0.3195 -0.0399
 6772TIP3   OH244510   5.077   7.253  10.349  0.2715  0.0602  0.5556
 6772TIP3    H144511   4.986   7.255  10.378  0.0754  1.6390 -0.0418
 6772TIP3    H244512   5.081   7.316  10.277  1.5087 -1.1652 -0.5061
 6773TIP3   OH244513   5.998   3.300  10.960  0.2268  0.4777 -0.5868
 6773TIP3    H144514   5.940   3.300  10.884  3.2342  0.0020 -3.0927
 6773TIP3    H244515   5.967   3.372  11.014 -2.6429  0.2113 -1.7051
 6774TIP3   OH244516   6.256   0.282  11.537 -0.0659  0.4734 -0.2493
 6774TIP3    H144517   6.206   0.246  11.610 -0.0031  1.7723  0.4691
 6774TIP3    H244518   6.326   0.332  11.579 -1.1314  2.8246 -1.1136
 6775TIP3   OH244519   2.117   5.570  11.363 -0.1845 -0.0237  0.1348
 6775TIP3    H144520   2.118   5.637  11.295  0.5910 -0.3440 -0.1706
 6775TIP3    H244521   2.076   5.494  11.321  0.3337 -0.2355  0.0132
 6776TIP3   OH244522   2.780   6.253  12.773 -0.9396 -0.3210 -0.1119
 6776TIP3    H144523   2.709   6.195  12.745 -0.2156 -1.6845  0.7614
 6776TIP3    H244524   2.852   6.193  12.795  0.2876  0.9948 -0.4216
 6777TIP3   OH244525   2.787   7.346  11.996  0.5562  0.6785 -0.4453
 6777TIP3    H144526   2.703   7.313  12.028  1.1121 -0.7504 -0.3862
 6777TIP3    H244527   2.769   7.373  11.906 -0.1762  1.2901 -0.1275
 6778TIP3   OH244528   3.020   4.451  10.187  0.6634 -0.3657  0.3688
 6778TIP3    H144529   3.052   4.524  10.240  0.4641  1.3510 -1.7182
 6778TIP3    H244530   3.092   4.432  10.127 -0.9325  1.5224 -2.3631
 6779TIP3   OH244531   1.873   7.010  12.136  0.7117  0.3970 -0.5319
 6779TIP3    H144532   1.925   7.078  12.094 -1.1969  2.0996 -0.3060
 6779TIP3    H244533   1.803   6.991  12.073  1.1213 -1.3068 -0.5298
 6780TIP3   OH244534   5.662   4.935   9.736 -0.3141  0.0579  0.3859
 6780TIP3    H144535   5.671   5.007   9.798 -0.1217 -0.7805  1.3575
 6780TIP3    H244536   5.743   4.886   9.743 -0.8193 -0.7990  0.4527
 6781TIP3   OH244537   4.949   6.773  10.509 -0.3263  0.1048  0.1627
 6781TIP3    H144538   4.879   6.824  10.550 -1.2868  0.0194 -1.3008
 6781TIP3    H244539   4.917   6.683  10.512 -0.0279 -0.0083 -0.0261
 6782TIP3   OH244540   5.906   0.943  11.661 -0.8101  1.2334  0.0459
 6782TIP3    H144541   5.906   1.001  11.585  0.2150  1.4879  0.2169
 6782TIP3    H244542   5.994   0.905  11.661 -1.7530 -1.1022 -0.6441
 6783TIP3   OH244543   0.215   7.216  11.564  0.3863  0.1304 -0.1658
 6783TIP3    H144544   0.141   7.197  11.506  0.8201  0.8804 -0.9933
 6783TIP3    H244545   0.183   7.285  11.623  0.6889  1.1248 -1.1287
 6784TIP3   OH244546   3.327   5.532  12.133  0.0638 -0.3248 -0.0881
 6784TIP3    H144547   3.418   5.558  12.121  0.5521 -2.3008 -0.9191
 6784TIP3    H244548   3.282   5.613  12.158  2.3769  0.3330  2.2962
 6785TIP3   OH244549   0.928   4.845  10.548 -0.2882 -0.0104  0.6173
 6785TIP3    H144550   0.910   4.920  10.605 -0.1098 -0.6335  1.5117
 6785TIP3    H244551   1.023   4.841  10.543 -0.3054  0.3085 -0.1011
 6786TIP3   OH244552   1.224   6.478  11.874  0.1906 -0.3217  0.0455
 6786TIP3    H144553   1.130   6.461  11.880 -0.5318  2.4078 -1.6804
 6786TIP3    H244554   1.231   6.574  11.872  2.9331 -0.4554 -1.0054
 6787TIP3   OH244555   2.966   2.370  12.494 -0.2486 -0.4758 -0.6161
 6787TIP3    H144556   3.053   2.359  12.455 -0.0825 -1.7148  0.0391
 6787TIP3    H244557   2.932   2.281  12.501 -0.5253 -0.2548  1.4375
 6788TIP3   OH244558   4.846   4.366  11.313 -0.5474  0.1149 -0.3921
 6788TIP3    H144559   4.917   4.407  11.364  0.2967 -2.2734  0.5160
 6788TIP3    H244560   4.834   4.424  11.238  1.8299  1.0237 -0.1616
 6789TIP3   OH244561   5.623   3.595  10.345 -0.6356  0.0109  0.4531
 6789TIP3    H144562   5.585   3.599  10.258 -3.7412  0.5888  1.6695
 6789TIP3    H244563   5.560   3.545  10.397  1.8250 -1.6419  2.1051
 6790TIP3   OH244564   7.404   0.843  12.289  0.1122 -0.3325 -0.3193
 6790TIP3    H144565   7.437   0.933  12.286  1.3345 -0.7532  0.0596
 6790TIP3    H244566   7.444   0.805  12.368 -1.9492 -0.6320  0.6741
 6791TIP3   OH244567   2.085   2.288  11.382 -0.0433 -0.1742 -0.0362
 6791TIP3    H144568   2.160   2.264  11.327 -1.1318 -1.1192 -1.1579
 6791TIP3    H244569   2.078   2.383  11.372  0.9746 -0.0723  0.0581
 6792TIP3   OH244570   3.542   1.733  11.431  0.2354 -0.2964 -0.3369
 6792TIP3    H144571   3.565   1.670  11.500 -0.7405 -0.6198 -0.2875
 6792TIP3    H244572   3.543   1.682  11.350  0.4830 -0.1285 -0.4406
 6793TIP3   OH244573   2.587   6.160  10.290  0.2122  0.2149 -0.0437
 6793TIP3    H144574   2.500   6.120  10.289 -0.0657  0.4730  3.2996
 6793TIP3    H244575   2.571   6.252  10.268 -0.2417  0.0888 -0.2514
 6794TIP3   OH244576   3.654   2.035  10.178  0.0896 -0.2126 -0.1200
 6794TIP3    H144577   3.676   2.093  10.251 -1.6623  0.5764 -0.1756
 6794TIP3    H244578   3.615   1.958  10.220 -0.9948  0.2773 -0.2114
 6795TIP3   OH244579   6.068   5.329  11.305 -0.5478 -0.4791  0.1704
 6795TIP3    H144580   6.114   5.271  11.365 -0.9342 -0.3401  0.6120
 6795TIP3    H244581   6.134   5.394  11.279 -0.8363  0.5465  1.8932
 6796TIP3   OH244582   1.314   4.616  11.338 -0.2271 -1.2302  0.5484
 6796TIP3    H144583   1.407   4.626  11.360 -0.1728 -1.6980  0.5397
 6796TIP3    H244584   1.273   4.584  11.418 -0.2259 -1.8466  0.3139
 6797TIP3   OH244585   3.160   3.292  10.580  0.7944 -0.4726  0.1037
 6797TIP3    H144586   3.173   3.363  10.516  0.6042 -0.2223  0.3387
 6797TIP3    H244587   3.169   3.335  10.665 -2.6462  0.0101  0.3855
 6798TIP3   OH244588   4.146   1.921  10.635  0.1711 -0.2753  0.2034
 6798TIP3    H144589   4.121   1.943  10.725 -1.1273  2.4313 -0.7310
 6798TIP3    H244590   4.226   1.971  10.619 -0.3074  0.2582 -0.5508
 6799TIP3   OH244591   4.798   6.889  10.892  0.4226  0.5334  0.0356
 6799TIP3    H144592   4.797   6.801  10.928  1.5255  0.4463 -0.1021
 6799TIP3    H244593   4.711   6.924  10.910  0.7099  0.2570  2.1550
 6800TIP3   OH244594   2.074   3.109  11.894 -0.0706 -0.0959  0.1365
 6800TIP3    H144595   2.138   3.172  11.928 -0.0608  0.7934 -1.4607
 6800TIP3    H244596   2.063   3.046  11.966  1.4435  0.5767  1.0150
 6801TIP3   OH244597   3.352   4.818  12.151  0.2904 -0.1762 -0.0056
 6801TIP3    H144598   3.272   4.773  12.179 -0.9233  1.9364  0.1047
 6801TIP3    H244599   3.349   4.902  12.196  1.2912  0.9499 -1.9251
 6802TIP3   OH244600   4.238   3.644  11.170 -0.2848 -0.6281  0.8278
 6802TIP3    H144601   4.150   3.636  11.133 -0.2001  0.0679  0.4590
 6802TIP3    H244602   4.261   3.736  11.158 -0.0858 -0.4675  2.2675
 6803TIP3   OH244603   2.464   4.054   9.685 -0.1083 -0.0515  0.1900
 6803TIP3    H144604   2.400   4.002   9.733 -0.8022  0.8778  0.3099
 6803TIP3    H244605   2.510   3.991   9.629  0.8195 -1.1828  2.1498
 6804TIP3   OH244606   2.727   4.807  12.167  0.5043 -0.1242 -0.3158
 6804TIP3    H144607   2.775   4.889  12.177  1.4316 -0.7391  0.4537
 6804TIP3    H244608   2.781   4.742  12.211 -0.4393 -1.0727 -0.5146
 6805TIP3   OH244609   0.993   3.235  10.652 -0.5270 -0.0519  0.1149
 6805TIP3    H144610   1.023   3.290  10.724 -1.0795  0.7013 -0.2224
 6805TIP3    H244611   1.063   3.170  10.640  1.6583  2.3987 -1.5110
 6806TIP3   OH244612   5.333   6.285  11.337 -0.0078  0.1205  0.6349
 6806TIP3    H144613   5.416   6.249  11.305 -1.0638 -0.8075 -1.1784
 6806TIP3    H244614   5.340   6.281  11.432  2.6847  1.6117  0.6156
 6807TIP3   OH244615   6.106   0.480  12.035 -0.0491 -0.0696 -0.3565
 6807TIP3    H144616   6.061   0.462  11.953  0.8390  1.6432 -1.2676
 6807TIP3    H244617   6.167   0.407  12.045 -0.2484 -0.3588 -1.1455
 6808TIP3   OH244618   4.203   2.783  10.082  0.5237 -0.2916 -0.5793
 6808TIP3    H144619   4.210   2.695  10.120 -2.0813  0.3554  1.6722
 6808TIP3    H244620   4.212   2.842  10.157  0.9370  1.3447 -1.8703
 6809TIP3   OH244621   3.944   3.801  11.903 -0.0303  0.5768 -0.3296
 6809TIP3    H144622   3.988   3.876  11.863  0.7977  0.4234  0.2434
 6809TIP3    H244623   4.009   3.767  11.965  0.2459 -1.5843 -1.7132
 6810TIP3   OH244624   1.920   2.610   9.994 -0.2966  0.1227  0.3816
 6810TIP3    H144625   1.831   2.617   9.961 -0.8957 -1.7719  1.4541
 6810TIP3    H244626   1.975   2.607   9.916 -1.3347 -0.3488 -0.3468
 6811TIP3   OH244627   3.558   0.614  11.822  0.1652  0.4042  0.0749
 6811TIP3    H144628   3.618   0.670  11.773 -0.7535  1.1652 -0.1965
 6811TIP3    H244629   3.594   0.612  11.911  0.3730  1.1867  0.0112
 6812TIP3   OH244630   5.102   4.459  10.295 -0.0628 -0.4798  0.7436
 6812TIP3    H144631   5.136   4.486  10.380  0.4987 -1.7877  0.9660
 6812TIP3    H244632   5.057   4.376  10.313  0.7482 -1.1839 -0.3558
 6813TIP3   OH244633   1.299   0.110  10.646 -0.2739 -0.4893  0.2787
 6813TIP3    H144634   1.387   0.090  10.678 -0.0273  1.6768  1.0884
 6813TIP3    H244635   1.307   0.105  10.551  1.0026  0.6244  0.2904
 6814TIP3   OH244636   2.767   3.485  10.274 -0.3449 -0.5497 -0.2613
 6814TIP3    H144637   2.698   3.550  10.268 -0.1844 -0.3665 -0.1128
 6814TIP3    H244638   2.763   3.438  10.190  0.7104  0.8191 -1.1155
 6815TIP3   OH244639   7.524   4.350  11.138  0.0033 -0.5883  0.4072
 6815TIP3    H144640   7.499   4.286  11.204 -0.5848 -0.5197  0.2623
 6815TIP3    H244641   7.597   4.397  11.176 -0.4580 -0.4154  1.0938
 6816TIP3   OH244642   2.897   4.092  12.188  0.8337  0.4139 -0.1056
 6816TIP3    H144643   2.943   4.173  12.166 -0.1325  0.6423 -1.3806
 6816TIP3    H244644   2.805   4.111  12.171  0.6223 -1.0377 -0.7284
 6817TIP3   OH244645   1.801   6.419  11.076 -0.5956  0.3212  0.2229
 6817TIP3    H144646   1.802   6.368  10.995  0.2255 -0.2412  0.5608
 6817TIP3    H244647   1.709   6.425  11.100 -0.8215  0.2683 -0.6125
 6818TIP3   OH244648   2.287   6.891  11.053 -0.3071 -0.3141  1.1192
 6818TIP3    H144649   2.265   6.838  10.977  3.0818 -1.4991  0.8039
 6818TIP3    H244650   2.225   6.864  11.120 -1.2965 -1.6269 -0.2576
 6819TIP3   OH244651   6.060   7.491  12.247 -0.4147 -0.3686 -0.2881
 6819TIP3    H144652   6.010   7.568  12.220 -1.0269 -0.7107 -0.1457
 6819TIP3    H244653   6.121   7.524  12.313  0.2992  0.2562 -1.2353
 6820TIP3   OH244654   5.868   6.788  10.991  0.1497  0.1768  0.0837
 6820TIP3    H144655   5.815   6.834  10.926 -2.3006  0.5915  2.2272
 6820TIP3    H244656   5.816   6.710  11.014  1.3646 -0.4261  0.9183
 6821TIP3   OH244657   0.407   6.645  11.764  0.2415  0.2381 -0.1761
 6821TIP3    H144658   0.332   6.589  11.782  1.5204 -0.8333  2.3650
 6821TIP3    H244659   0.424   6.634  11.671 -1.4928 -1.0664 -0.3770
 6822TIP3   OH244660   6.352   1.819  10.862 -1.0759  0.3035  0.1538
 6822TIP3    H144661   6.293   1.807  10.787  0.3155 -0.6670 -0.8462
 6822TIP3    H244662   6.417   1.750  10.852  1.2865  2.3675  0.1767
 6823TIP3   OH244663   7.428   3.778  10.015  0.4013 -0.1302 -0.5097
 6823TIP3    H144664   7.423   3.685   9.995  1.5195 -0.2349 -0.3905
 6823TIP3    H244665   7.421   3.783  10.110 -2.5720  0.1797 -0.6484
 6824TIP3   OH244666   3.161   0.750  17.451  0.2602  0.0523 -0.0128
 6824TIP3    H144667   3.203   0.765  17.366 -0.4061  4.1701  0.1986
 6824TIP3    H244668   3.231   0.762  17.515 -0.1166  1.8394  0.1249
 6825TIP3   OH244669   5.914   6.565  11.697 -0.0094 -0.1762  0.2175
 6825TIP3    H144670   5.853   6.548  11.625 -0.2001 -0.6942  0.4950
 6825TIP3    H244671   5.858   6.589  11.771  0.1501 -0.2642  0.3672
 6826TIP3   OH244672   1.695   3.541  10.584 -0.4544  0.7826  0.1484
 6826TIP3    H144673   1.791   3.548  10.579 -0.4171 -0.3155 -1.2955
 6826TIP3    H244674   1.663   3.607  10.523 -0.6449  1.4752  0.9848
 6827TIP3   OH244675   5.472   5.693   9.917  0.1453  0.5437  0.6202
 6827TIP3    H144676   5.447   5.725  10.004 -1.3329 -0.0533  0.4418
 6827TIP3    H244677   5.558   5.654   9.930  0.9869  2.5072  1.3113
 6828TIP3   OH244678   2.631   3.700  11.439 -0.0829 -0.1084  0.5700
 6828TIP3    H144679   2.611   3.616  11.400 -1.2087  0.6042 -0.4535
 6828TIP3    H244680   2.714   3.726  11.399 -1.3365  0.7347 -1.6662
 6829TIP3   OH244681   2.647   3.852   9.595 -0.1616  0.4008  0.4772
 6829TIP3    H144682   2.729   3.893   9.567 -0.7412  0.8967 -0.5640
 6829TIP3    H244683   2.669   3.760   9.609  0.5885  0.5480  0.2832
 6830TIP3   OH244684   7.065   2.438  11.550  0.4692 -0.1981  0.1843
 6830TIP3    H144685   6.993   2.374  11.547 -0.4029  0.7797 -0.8756
 6830TIP3    H244686   7.085   2.447  11.643 -2.6593  1.4806  0.8309
 6831TIP3   OH244687   4.108   7.307  12.534 -0.2217  0.2125  0.0322
 6831TIP3    H144688   4.180   7.305  12.597  1.0660 -0.1861 -1.4001
 6831TIP3    H244689   4.044   7.245  12.568  0.8878 -0.7159  0.4663
 6832TIP3   OH244690   3.490   6.054  11.323  0.2464 -0.0894  0.1993
 6832TIP3    H144691   3.518   6.121  11.261  0.3628  1.0612  1.4526
 6832TIP3    H244692   3.568   6.001  11.337  0.1712 -0.4745 -0.7563
 6833TIP3   OH244693   5.110   2.679  10.112 -0.0497  0.4295  0.1589
 6833TIP3    H144694   5.088   2.603  10.166 -0.9160  0.2144 -0.4721
 6833TIP3    H244695   5.186   2.717  10.155  0.8322 -1.1861  0.1111
 6834TIP3   OH244696   5.318   3.435  12.148  0.3636 -0.2791 -0.2390
 6834TIP3    H144697   5.225   3.426  12.168  0.7799 -0.6072  1.6598
 6834TIP3    H244698   5.356   3.351  12.172  0.9979 -0.6036 -2.1866
 6835TIP3   OH244699   6.150   5.219  10.943 -0.5071 -0.4185  0.0432
 6835TIP3    H144700   6.136   5.166  11.021 -0.4019  0.4387  0.6646
 6835TIP3    H244701   6.086   5.186  10.880 -0.5789 -1.1376  0.4791
 6836TIP3   OH244702   5.871   6.494  11.189  0.7533 -0.4328 -0.2318
 6836TIP3    H144703   5.832   6.410  11.166  1.3327 -0.0594 -2.8510
 6836TIP3    H244704   5.811   6.559  11.152  1.4309  0.2511 -0.1384
 6837TIP3   OH244705   3.624   5.112  10.978  0.1199 -0.0272  0.2152
 6837TIP3    H144706   3.663   5.123  10.891 -1.3440  0.5357 -0.3961
 6837TIP3    H244707   3.621   5.201  11.014  0.2800 -0.1962  0.6514
 6838TIP3   OH244708   4.920   1.673  11.079  0.0438 -0.1943  0.4151
 6838TIP3    H144709   4.867   1.615  11.024 -0.2546  0.9355 -0.5382
 6838TIP3    H244710   5.003   1.626  11.091 -0.4034 -1.0743  0.1864
 6839TIP3   OH244711   5.472   5.428  11.018 -0.1872 -0.0463  0.1171
 6839TIP3    H144712   5.475   5.345  10.970 -2.1853  0.3375 -0.7983
 6839TIP3    H244713   5.473   5.403  11.110 -2.6637 -1.3054 -0.1044
 6840TIP3   OH244714   1.596   0.889  12.254  0.5037  0.2831  0.1740
 6840TIP3    H144715   1.526   0.907  12.317  1.3022 -0.9265  1.4456
 6840TIP3    H244716   1.569   0.936  12.175 -0.7452  1.4766  1.2579
 6841TIP3   OH244717   1.863   6.930   9.751  0.1202  0.3390  0.0540
 6841TIP3    H144718   1.854   7.017   9.791  0.9720 -0.2663  1.6378
 6841TIP3    H244719   1.776   6.891   9.760 -0.2262  0.9460 -0.5280
 6842TIP3   OH244720   6.782   7.053  12.060 -0.1067  0.0261  0.7827
 6842TIP3    H144721   6.732   7.118  12.108 -0.1119 -0.6308  1.6799
 6842TIP3    H244722   6.829   7.004  12.127  0.0163 -0.8003  0.1078
 6843TIP3   OH244723   5.344   5.105  10.392  0.0667  1.3467 -0.1105
 6843TIP3    H144724   5.272   5.082  10.334  0.9935 -2.0345 -0.0955
 6843TIP3    H244725   5.304   5.112  10.479 -0.4729  0.8737 -0.3165
 6844TIP3   OH244726   7.656   7.258  12.322 -0.0634 -0.5243 -0.6399
 6844TIP3    H144727   7.692   7.174  12.292 -0.3607 -0.5130 -1.0427
 6844TIP3    H244728   7.721   7.323  12.296  0.5581 -0.7090  0.3986
 6845TIP3   OH244729   5.739   2.983   9.919 -0.8181 -0.6124 -0.6118
 6845TIP3    H144730   5.715   3.044   9.988 -1.7701  0.2762 -1.6779
 6845TIP3    H244731   5.813   3.026   9.874 -0.1198 -1.2437 -0.0864
 6846TIP3   OH244732   0.723   4.814  10.124  0.6559  0.6052  0.2313
 6846TIP3    H144733   0.664   4.871  10.075 -0.3990 -0.5239  0.1091
 6846TIP3    H244734   0.736   4.858  10.207 -1.7067  0.1806  0.9097
 6847TIP3   OH244735   6.902   5.517  10.613 -0.2690 -0.4827 -0.7980
 6847TIP3    H144736   6.934   5.580  10.547  0.8701  0.3435  0.4843
 6847TIP3    H244737   6.808   5.532  10.617 -0.2595 -0.0910 -1.7734
 6848TIP3   OH244738   1.467   2.341  10.062 -0.2877  0.3709 -0.0698
 6848TIP3    H144739   1.445   2.340   9.969  0.3374 -0.2317 -0.2187
 6848TIP3    H244740   1.418   2.267  10.098  0.1363  0.0763 -0.0871
 6849TIP3   OH244741   6.146   6.491  12.239 -0.3316  0.3700  0.3244
 6849TIP3    H144742   6.090   6.539  12.177 -1.5887 -1.5613 -0.1206
 6849TIP3    H244743   6.105   6.507  12.324 -1.6548 -1.0687 -0.0056
 6850TIP3   OH244744   2.953   5.776  11.359 -0.3904 -0.1675 -0.6165
 6850TIP3    H144745   3.027   5.765  11.300 -1.7605 -0.4322 -2.3501
 6850TIP3    H244746   2.891   5.830  11.310 -2.6680 -2.5039 -0.4693
 6851TIP3   OH244747   0.936   4.810  11.110 -0.0167 -0.1822 -0.0065
 6851TIP3    H144748   0.998   4.796  11.181  0.5707 -1.9637 -0.8071
 6851TIP3    H244749   0.850   4.792  11.148  0.1849 -0.0651  0.5090
 6852TIP3   OH244750   7.562   0.264  12.736  0.6376  0.4640 -0.2953
 6852TIP3    H144751   7.475   0.249  12.773  0.7198  0.3096 -0.1634
 6852TIP3    H244752   7.558   0.353  12.701  1.4538  1.7482  2.5929
 6853TIP3   OH244753   4.097   0.726  11.230 -0.0364  0.0587  0.2018
 6853TIP3    H144754   4.055   0.777  11.161 -0.0944 -0.8345 -0.4408
 6853TIP3    H244755   4.050   0.750  11.310 -0.4959  0.4988 -0.1945
 6854TIP3   OH244756   0.467   2.660  11.196 -0.1285 -0.7203  0.0479
 6854TIP3    H144757   0.427   2.609  11.125 -2.2856  0.8619  0.0256
 6854TIP3    H244758   0.508   2.734  11.151 -0.4935 -0.3361  0.3407
 6855TIP3   OH244759   5.612   0.659  12.133  0.6110  0.5436 -0.3785
 6855TIP3    H144760   5.516   0.659  12.132  0.5234  0.3923  1.8267
 6855TIP3    H244761   5.635   0.713  12.209  2.2298 -0.4815 -0.0898
 6856TIP3   OH244762   3.217   0.736  10.215 -0.0272 -0.1842  0.0666
 6856TIP3    H144763   3.261   0.813  10.252 -1.1376  0.5780 -0.1660
 6856TIP3    H244764   3.284   0.667  10.217  0.7742  0.5946  0.9090
 6857TIP3   OH244765   4.681   1.899   9.824  0.6854 -0.2377  0.0068
 6857TIP3    H144766   4.626   1.863   9.894 -0.0923  1.9978  0.6266
 6857TIP3    H244767   4.655   1.849   9.746 -2.7005  1.0090  0.1606
 6858TIP3   OH244768   4.037   0.138  12.151 -0.4432 -0.4980  0.2000
 6858TIP3    H144769   4.086   0.075  12.203  0.0776 -0.7024 -0.5227
 6858TIP3    H244770   4.039   0.219  12.201  2.5779  0.1663 -0.7974
 6859TIP3   OH244771   0.416   6.184   9.783 -0.1018 -0.3015  0.4613
 6859TIP3    H144772   0.354   6.112   9.789 -1.4403  0.8209  0.7560
 6859TIP3    H244773   0.370   6.259   9.822  0.0509  1.4616 -2.4508
 6860TIP3   OH244774   4.162   7.006  10.120  0.3586  0.0498  0.4387
 6860TIP3    H144775   4.118   7.082  10.157  0.0674  0.1380 -0.0811
 6860TIP3    H244776   4.102   6.933  10.134  0.5014 -0.0266  0.6579
 6861TIP3   OH244777   1.973   2.915  11.426  0.5154  0.2556  0.2282
 6861TIP3    H144778   1.908   2.983  11.440 -1.0098 -1.0754 -0.0738
 6861TIP3    H244779   1.931   2.854  11.365  1.3422 -1.5796  1.4174
 6862TIP3   OH244780   3.951   1.840  10.381 -0.3536 -0.1137  0.1120
 6862TIP3    H144781   3.963   1.879  10.295 -1.5608  0.1845  0.0683
 6862TIP3    H244782   4.040   1.818  10.410  0.0610 -0.1974 -1.1856
 6863TIP3   OH244783   5.394   5.999  10.559 -0.2785  0.5237  0.4843
 6863TIP3    H144784   5.440   5.915  10.562 -0.0355  0.6633  0.5929
 6863TIP3    H244785   5.459   6.064  10.583 -0.1841  0.8667 -0.6407
 6864TIP3   OH244786   5.860   3.875  11.024 -0.0323  0.0858 -0.1379
 6864TIP3    H144787   5.843   3.887  10.931  1.3933  1.2787 -0.2917
 6864TIP3    H244788   5.820   3.951  11.066  1.9235  1.2257 -0.1748
 6865TIP3   OH244789   3.847   7.298  10.614 -0.4309  0.5979 -0.1260
 6865TIP3    H144790   3.779   7.294  10.547  0.8833 -1.0243 -1.4417
 6865TIP3    H244791   3.833   7.220  10.668 -0.2976  0.8633  0.3053
 6866TIP3   OH244792   3.728   3.708  11.369 -0.4010 -0.1564 -0.1842
 6866TIP3    H144793   3.688   3.790  11.400  0.1864  0.0137  0.1383
 6866TIP3    H244794   3.804   3.695  11.426 -1.7616 -2.1525  1.2955
 6867TIP3   OH244795   2.157   4.105  11.754 -0.2996 -0.2464  0.7519
 6867TIP3    H144796   2.143   4.192  11.793 -0.7236  1.2808 -2.4878
 6867TIP3    H244797   2.248   4.084  11.775  0.6260  2.1996 -0.4759
 6868TIP3   OH244798   6.922   1.657  12.220  0.5083 -0.1653 -0.1765
 6868TIP3    H144799   6.960   1.645  12.307  0.1315  0.4495  0.0806
 6868TIP3    H244800   6.896   1.569  12.193  2.2330 -0.6234 -0.4309
 6869TIP3   OH244801   1.463   2.420  12.105  0.4367  0.3908 -0.4915
 6869TIP3    H144802   1.398   2.372  12.055 -0.8551  0.8948  0.6468
 6869TIP3    H244803   1.444   2.512  12.089  2.5901  0.6212 -2.2638
 6870TIP3   OH244804   1.788   5.444  11.125  0.2497 -0.1107 -0.2285
 6870TIP3    H144805   1.883   5.433  11.111  0.2612  1.6038 -1.9303
 6870TIP3    H244806   1.779   5.531  11.164 -0.6364 -0.2636 -0.0696
 6871TIP3   OH244807   5.077   5.156  11.712  0.5250 -0.4170  0.6075
 6871TIP3    H144808   5.061   5.213  11.637 -0.7929  0.6805  1.6557
 6871TIP3    H244809   5.039   5.072  11.688 -2.0058  0.5770  0.8783
 6872TIP3   OH244810   5.092   2.420  10.206 -0.4088  0.5881  0.2070
 6872TIP3    H144811   5.097   2.355  10.137 -1.6978 -0.6254  1.1815
 6872TIP3    H244812   4.998   2.439  10.214 -0.4156 -0.0368  2.2223
 6873TIP3   OH244813   4.490   5.338  10.071 -0.7212  0.0536  0.0631
 6873TIP3    H144814   4.425   5.278  10.107 -0.9867 -0.3034 -0.9665
 6873TIP3    H244815   4.571   5.287  10.067  0.0995  0.9604  2.8194
 6874TIP3   OH244816   2.193   0.007  10.541  0.5306  0.1283 -0.1384
 6874TIP3    H144817   2.228  -0.052  10.608 -0.5407  1.1065  1.3434
 6874TIP3    H244818   2.180   0.090  10.587 -0.8824  0.6387 -1.3923
 6875TIP3   OH244819   3.775   2.927  12.403  0.4445 -0.4450  0.0967
 6875TIP3    H144820   3.838   2.912  12.474 -0.8773  3.0415  2.2423
 6875TIP3    H244821   3.829   2.958  12.330  1.5489 -1.0176  0.6380
 6876TIP3   OH244822   6.697   4.101  11.507  0.1432 -0.0514 -0.0621
 6876TIP3    H144823   6.699   4.185  11.553  2.8603 -0.0668 -0.0230
 6876TIP3    H244824   6.634   4.114  11.435  0.4457  1.9741 -0.0022
 6877TIP3   OH244825   0.760   5.016  10.731  0.5223 -0.1914  0.2721
 6877TIP3    H144826   0.816   5.057  10.797  0.1528  1.3622 -0.3498
 6877TIP3    H244827   0.688   4.977  10.781  1.2440 -0.7187  0.9294
 6878TIP3   OH244828   3.272   3.898  10.315  0.1621  0.3172  0.3562
 6878TIP3    H144829   3.252   3.835  10.246  0.0999 -0.7104  1.2767
 6878TIP3    H244830   3.284   3.981  10.269  0.4184 -0.3919 -0.9098
 6879TIP3   OH244831   4.772   6.788  11.543 -0.0406 -0.0800 -0.2087
 6879TIP3    H144832   4.780   6.696  11.567 -1.1224  0.1823  1.3074
 6879TIP3    H244833   4.857   6.826  11.565  0.7782 -0.8908 -1.8292
 6880TIP3   OH244834   3.357   4.422  11.083  0.5378 -0.3758  0.3524
 6880TIP3    H144835   3.440   4.466  11.060 -0.4633  2.5488  1.8626
 6880TIP3    H244836   3.293   4.460  11.022  0.1723 -2.4346 -0.6376
 6881TIP3   OH244837   3.495   4.955  10.494  0.3009 -0.0305 -0.3555
 6881TIP3    H144838   3.409   4.995  10.481  0.3061  0.6866  1.4667
 6881TIP3    H244839   3.477   4.880  10.552  0.8916  0.1079  0.0089
 6882TIP3   OH244840   6.309   4.066  11.236 -0.3135 -0.0694  0.1075
 6882TIP3    H144841   6.265   3.989  11.201  0.3117 -0.0337 -0.7860
 6882TIP3    H244842   6.264   4.140  11.194  0.1712 -0.0116 -0.3186
 6883TIP3   OH244843   4.046   0.349  10.078 -0.3355 -0.0086  0.5018
 6883TIP3    H144844   4.070   0.365   9.987 -1.1910 -0.9725  0.0858
 6883TIP3    H244845   3.965   0.398  10.090 -0.8317 -0.7807  0.3921
 6884TIP3   OH244846   1.244   3.865  10.817  0.0406 -0.1494 -0.2366
 6884TIP3    H144847   1.269   3.932  10.754  0.0320 -0.3539 -0.4586
 6884TIP3    H244848   1.325   3.847  10.866 -0.3735  1.3171  1.0528
 6885TIP3   OH244849   4.915   2.802  12.162 -0.2778 -0.4797 -0.0364
 6885TIP3    H144850   4.905   2.714  12.198  1.2021 -0.1464  1.3710
 6885TIP3    H244851   4.860   2.857  12.218 -1.1215 -0.4699 -0.8500
 6886TIP3   OH244852   1.323   6.870  10.225  0.2131  0.1129 -0.3915
 6886TIP3    H144853   1.287   6.857  10.313  0.7779  2.0465  0.1910
 6886TIP3    H244854   1.406   6.822  10.226  0.9372  1.2977  0.7003
 6887TIP3   OH244855   0.156   7.246   9.930  0.0870  0.0291 -0.5292
 6887TIP3    H144856   0.134   7.181   9.863 -1.1775  0.2068 -0.3147
 6887TIP3    H244857   0.083   7.243   9.992  0.1460  1.4153 -0.3417
 6888TIP3   OH244858   4.421   6.654   9.390  0.0605  0.2680  0.1571
 6888TIP3    H144859   4.430   6.743   9.426 -1.3333  0.4819  0.0452
 6888TIP3    H244860   4.328   6.648   9.366 -0.1050 -1.5747  1.1244
 6889TIP3   OH244861   0.976   4.559   9.882  0.5928 -0.1055 -0.3571
 6889TIP3    H144862   0.928   4.494   9.934  1.6441 -1.1914 -0.7104
 6889TIP3    H244863   0.908   4.605   9.833 -0.2921 -0.0353  0.8762
 6890TIP3   OH244864   3.617   4.505  12.199 -0.1322 -0.4226 -0.1177
 6890TIP3    H144865   3.653   4.423  12.166 -1.1546 -1.2289  0.6862
 6890TIP3    H244866   3.543   4.478  12.254 -1.3680  1.1049 -0.9535
 6891TIP3   OH244867   1.396   0.479  10.082  0.3485  0.9570  0.7509
 6891TIP3    H144868   1.369   0.465   9.991  1.0011  1.4901  0.4646
 6891TIP3    H244869   1.340   0.550  10.113  2.0234  2.7645 -0.1625
 6892TIP3   OH244870   6.174   0.886  11.649 -0.3496  0.1540  0.0559
 6892TIP3    H144871   6.156   0.803  11.693 -0.3687 -0.1505 -0.5127
 6892TIP3    H244872   6.258   0.872  11.605 -1.6741 -0.6062 -2.4490
 6893TIP3   OH244873   1.249   5.187   9.684  0.6317 -0.3584  0.0606
 6893TIP3    H144874   1.176   5.248   9.693  1.8666  1.0185  1.4809
 6893TIP3    H244875   1.216   5.104   9.719 -0.8976 -0.3914 -1.3562
 6894TIP3   OH244876   0.057   6.757  12.512 -0.4705 -0.6731 -0.3094
 6894TIP3    H144877  -0.013   6.796  12.460 -0.1513  0.0273 -0.2355
 6894TIP3    H244878   0.021   6.676  12.545 -0.9585 -0.7252 -0.9551
 6895TIP3   OH244879   4.392   2.986  12.487  0.2904 -0.0157  0.5939
 6895TIP3    H144880   4.363   3.078  12.490 -0.0090 -0.0795 -0.2057
 6895TIP3    H244881   4.484   2.991  12.461 -0.0314  0.0156 -0.5966
 6896TIP3   OH244882   6.822   4.216  10.694  0.3840  1.0490 -0.0131
 6896TIP3    H144883   6.799   4.153  10.762 -0.4576  0.5789 -0.7090
 6896TIP3    H244884   6.797   4.301  10.730  0.4626  0.8640  0.4793
 6897TIP3   OH244885   2.334   2.059  11.928 -0.0673 -0.1644  0.7681
 6897TIP3    H144886   2.368   2.053  11.839 -1.8647 -0.1903  0.0441
 6897TIP3    H244887   2.408   2.035  11.984  1.6218  1.6338 -0.5974
 6898TIP3   OH244888   1.435   2.146  10.851  0.4091  0.4773  0.1872
 6898TIP3    H144889   1.484   2.159  10.769 -0.0937  0.4836 -0.1184
 6898TIP3    H244890   1.502   2.121  10.915  1.0032  1.7179  0.0897
 6899TIP3   OH244891   0.067   7.306  12.021 -0.3731  0.6101 -0.3298
 6899TIP3    H144892   0.147   7.259  12.044 -0.7054  0.4943  0.6520
 6899TIP3    H244893   0.058   7.372  12.090 -0.5084  1.3790 -1.0749
 6900TIP3   OH244894   2.797   3.522   9.819 -0.0250  0.4243 -0.2054
 6900TIP3    H144895   2.868   3.458   9.819  1.1711  1.7008 -0.6357
 6900TIP3    H244896   2.769   3.527   9.910  1.5673  1.0872  0.2787
 6901TIP3   OH244897   4.558   1.419  10.069  0.3460 -0.1828  0.0122
 6901TIP3    H144898   4.630   1.457  10.121 -0.5323  1.8484 -0.1494
 6901TIP3    H244899   4.484   1.478  10.084 -0.3304 -0.2896 -2.4575
 6902TIP3   OH244900   2.839   7.650  11.030  0.1124 -0.0775  0.5088
 6902TIP3    H144901   2.816   7.562  10.998  0.4735  0.4383 -1.2595
 6902TIP3    H244902   2.846   7.639  11.125 -2.7285 -1.3186  0.6919
 6903TIP3   OH244903   4.575   7.187  12.437  0.5384 -0.6410 -0.6306
 6903TIP3    H144904   4.637   7.244  12.482 -0.9855 -0.9506  2.1090
 6903TIP3    H244905   4.602   7.190  12.345  1.9022  2.6414 -0.2722
 6904TIP3   OH244906   1.517   1.457  11.250 -0.4573  0.0401  0.2474
 6904TIP3    H144907   1.494   1.379  11.301  1.2384 -0.9134 -0.3606
 6904TIP3    H244908   1.472   1.446  11.167 -0.7319  0.0389  0.3937
 6905TIP3   OH244909   3.953   5.594   9.633 -0.4046  0.2247  0.6324
 6905TIP3    H144910   3.862   5.619   9.650 -0.2154  1.3111  0.1225
 6905TIP3    H244911   3.996   5.675   9.606  0.9496 -0.0964  1.7213
 6906TIP3   OH244912   1.361   0.687  11.294  0.0304  0.6662 -0.0971
 6906TIP3    H144913   1.449   0.694  11.256  0.5726  0.2098  1.0123
 6906TIP3    H244914   1.309   0.642  11.227  1.0327 -0.4044 -0.1903
 6907TIP3   OH244915   4.240   6.085  12.160  0.1997  0.0513  0.0703
 6907TIP3    H144916   4.168   6.070  12.098  1.0056 -0.6383 -0.7238
 6907TIP3    H244917   4.238   6.179  12.177 -2.1336 -0.1858  1.6137
 6908TIP3   OH244918   6.923   7.214  10.715 -0.1943 -0.5826  0.2837
 6908TIP3    H144919   6.833   7.224  10.745 -0.1115  1.0610  0.0789
 6908TIP3    H244920   6.916   7.207  10.620 -0.2917 -3.6228  0.4081
 6909TIP3   OH244921   5.005   6.915  10.269  0.7071  0.0310 -0.2899
 6909TIP3    H144922   5.037   6.911  10.359 -1.9698 -0.0935  0.7483
 6909TIP3    H244923   4.912   6.936  10.278  0.3463 -0.0823 -3.0389
 6910TIP3   OH244924   2.491   3.025  10.133  0.2312 -0.4912 -0.1764
 6910TIP3    H144925   2.480   2.930  10.134  0.1198 -0.4854 -0.7354
 6910TIP3    H244926   2.546   3.043  10.209 -0.3104 -0.9325  0.3235
 6911TIP3   OH244927   1.996   1.899  10.061  0.5049 -0.4883 -0.0547
 6911TIP3    H144928   2.041   1.915  10.143 -0.9104  0.3732  0.5763
 6911TIP3    H244929   1.934   1.970  10.053 -0.3485 -1.3242 -1.1899
 6912TIP3   OH244930   4.699   1.752  10.809  0.2516 -0.1955 -0.6857
 6912TIP3    H144931   4.623   1.811  10.808  0.5974  0.2526 -0.9736
 6912TIP3    H244932   4.773   1.808  10.787  0.4671 -0.9039 -1.8425
 6913TIP3   OH244933   3.277   7.443  11.860 -0.7018  0.4594 -0.4066
 6913TIP3    H144934   3.255   7.438  11.953 -1.4765  1.2225 -0.5354
 6913TIP3    H244935   3.372   7.433  11.858 -0.4399  2.3052  0.6522
 6914TIP3   OH244936   0.258   2.797  12.232 -0.2787 -0.7636 -0.1897
 6914TIP3    H144937   0.251   2.791  12.136  0.4992 -1.1744 -0.2314
 6914TIP3    H244938   0.272   2.707  12.260 -0.1627 -0.5975  0.2862
 6915TIP3   OH244939   0.874   6.876  12.140  0.0375  0.4796  0.4569
 6915TIP3    H144940   0.908   6.843  12.057 -0.1240  0.3942  0.4249
 6915TIP3    H244941   0.937   6.942  12.167  0.6250 -0.2048  0.7730
 6916TIP3   OH244942   3.704   4.263  12.065 -0.5419  0.4751  0.2701
 6916TIP3    H144943   3.717   4.168  12.072 -0.5458  0.4826  0.3742
 6916TIP3    H244944   3.623   4.272  12.014  0.0630  0.4330 -0.7350
 6917TIP3   OH244945   0.651   2.117  10.513  0.0387 -0.3905 -0.1993
 6917TIP3    H144946   0.625   2.061  10.441  1.2478 -0.5499 -0.5302
 6917TIP3    H244947   0.591   2.191  10.509 -0.5850 -0.9177 -0.7049
 6918TIP3   OH244948   7.611   6.200  11.390 -0.1161  0.0962 -0.3357
 6918TIP3    H144949   7.620   6.127  11.451  0.3892  0.0773 -0.4286
 6918TIP3    H244950   7.525   6.238  11.410 -0.7234 -0.9862 -0.7978
 6919TIP3   OH244951   6.349   2.600  11.943  0.4633  0.2520  0.1869
 6919TIP3    H144952   6.314   2.688  11.930 -1.0612 -0.1557  1.2633
 6919TIP3    H244953   6.290   2.560  12.007  2.4657 -0.7600  1.5059
 6920TIP3   OH244954   5.473   1.215  11.620 -0.3874  0.0520 -0.3336
 6920TIP3    H144955   5.413   1.216  11.545  0.0704 -1.8942 -0.7757
 6920TIP3    H244956   5.557   1.241  11.582 -0.3918  0.1901 -0.2492
 6921TIP3   OH244957   2.845   0.888  11.220  0.0937 -0.4003  0.1915
 6921TIP3    H144958   2.839   0.928  11.307 -2.0031  1.6907 -0.8068
 6921TIP3    H244959   2.902   0.947  11.170  1.8858 -1.9749  0.2549
 6922TIP3   OH244960   6.173   3.086  10.901 -0.1017  0.1311  0.3951
 6922TIP3    H144961   6.108   3.157  10.900  1.0422  1.1991 -0.1843
 6922TIP3    H244962   6.144   3.026  10.833 -0.8667  0.2374  0.6139
 6923TIP3   OH244963   3.370   4.071   9.689 -0.2198 -0.3124  0.4561
 6923TIP3    H144964   3.412   4.061   9.774 -1.0072  2.4861  1.2730
 6923TIP3    H244965   3.303   4.003   9.687  1.6118 -2.2104  0.8405
 6924TIP3   OH244966   4.096   7.299  11.143 -0.0770  0.2894 -0.0541
 6924TIP3    H144967   4.164   7.320  11.080 -0.8931  0.6408 -0.8468
 6924TIP3    H244968   4.020   7.275  11.089  0.0424 -2.2965  0.7670
 6925TIP3   OH244969   5.657   2.017   9.831 -0.0310  0.4503 -0.1496
 6925TIP3    H144970   5.643   1.943   9.772 -0.6782 -0.3708  0.9878
 6925TIP3    H244971   5.708   2.079   9.780 -0.2820 -0.3757 -1.4478
 6926TIP3   OH244972   4.174   0.912  11.461 -0.0071  0.1179  0.0842
 6926TIP3    H144973   4.217   0.925  11.376  1.0277  1.0702  0.7265
 6926TIP3    H244974   4.194   0.991  11.510 -0.4107 -0.5155  1.3084
 6927TIP3   OH244975   5.869   4.630  11.195  0.2454  0.2430  0.0747
 6927TIP3    H144976   5.878   4.649  11.288 -0.8263  1.9423 -0.1283
 6927TIP3    H244977   5.949   4.662  11.155  0.8889 -0.8677  0.4460
 6928TIP3   OH244978   2.676   0.648  11.293  0.6848  0.0644  0.6313
 6928TIP3    H144979   2.745   0.714  11.289  0.0419  0.6958 -1.2773
 6928TIP3    H244980   2.598   0.697  11.320  0.1650  0.1768 -0.9679
 6929TIP3   OH244981   4.142   5.956  11.925 -0.1632 -0.2945 -0.0095
 6929TIP3    H144982   4.123   5.875  11.876 -0.9002 -1.5489  2.1801
 6929TIP3    H244983   4.082   6.021  11.888 -0.6334 -1.1543 -0.8145
 6930TIP3   OH244984   6.226   2.201  10.221 -0.0142  0.1804 -0.5651
 6930TIP3    H144985   6.165   2.185  10.293 -0.5834  0.8747 -0.8760
 6930TIP3    H244986   6.169   2.221  10.146  0.5976  0.9177 -0.8470
 6931TIP3   OH244987   6.276   5.661  12.582 -0.5440  0.2983 -0.2566
 6931TIP3    H144988   6.323   5.622  12.509  0.7028  0.8918  0.1919
 6931TIP3    H244989   6.183   5.643  12.564 -0.0823 -2.7765 -0.0843
 6932TIP3   OH244990   3.678   2.707  10.854 -0.1992  0.5853 -0.0156
 6932TIP3    H144991   3.671   2.620  10.894  1.3768  1.1348  1.5605
 6932TIP3    H244992   3.588   2.741  10.857 -0.2666  0.3886  2.6756
 6933TIP3   OH244993   4.870   2.342  10.562 -0.0741 -0.4243  0.0104
 6933TIP3    H144994   4.961   2.346  10.592  0.4113 -0.8648 -1.3439
 6933TIP3    H244995   4.869   2.390  10.480 -1.6114  1.7033  1.1760
 6934TIP3   OH244996   4.427   7.650  11.748 -0.0103  0.2417 -0.3117
 6934TIP3    H144997   4.377   7.598  11.812 -1.2032 -0.7693 -1.9841
 6934TIP3    H244998   4.410   7.741  11.773 -0.1991 -0.1282  0.9807
 6935TIP3   OH244999   0.798   7.476  11.512 -0.2136 -0.3649  0.1521
 6935TIP3    H145000   0.841   7.560  11.525  1.5723 -1.0114 -1.1905
 6935TIP3    H245001   0.705   7.494  11.525  0.3653  1.1698  2.7523
 6936TIP3   OH245002   3.627   0.870  11.901  0.2407  0.4360  0.4608
 6936TIP3    H145003   3.582   0.917  11.831  0.2959 -2.1786 -1.4859
 6936TIP3    H245004   3.719   0.892  11.890  0.2204  0.2195 -0.1580
 6937TIP3   OH245005   0.471   0.837  12.386  0.8109 -0.3302  0.0833
 6937TIP3    H145006   0.530   0.851  12.460  1.9363 -0.4487 -0.7645
 6937TIP3    H245007   0.390   0.882  12.412  2.3413  2.8078 -0.0714
 6938TIP3   OH245008   5.664   6.464  10.606  0.3258 -0.3522 -0.0538
 6938TIP3    H145009   5.676   6.558  10.623 -1.7924  0.3795 -2.0649
 6938TIP3    H245010   5.580   6.443  10.647 -0.0276 -0.9078 -1.0163
 6939TIP3   OH245011   4.609   3.201  10.376  0.3393  0.3023  0.4667
 6939TIP3    H145012   4.585   3.242  10.458 -0.0775  1.2309 -0.1002
 6939TIP3    H245013   4.572   3.113  10.381 -1.6908  1.1017  0.3538
 6940TIP3   OH245014   1.005   4.556  10.694  0.2093  0.2035 -0.1338
 6940TIP3    H145015   0.991   4.642  10.734  1.3891  0.3442  0.0234
 6940TIP3    H245016   1.088   4.565  10.647  0.2527 -0.7955 -0.2725
 6941TIP3   OH245017   3.425   1.515  12.126  0.4750  0.1538 -0.0109
 6941TIP3    H145018   3.497   1.548  12.072  0.1842 -0.1908 -0.6147
 6941TIP3    H245019   3.421   1.422  12.106  0.9146 -0.1547  1.2532
 6942TIP3   OH245020   5.530   4.065  10.512  0.2484 -0.1233 -0.3486
 6942TIP3    H145021   5.586   4.091  10.438  0.3348  0.0969 -0.2071
 6942TIP3    H245022   5.441   4.081  10.481  0.3398  1.7068  0.2290
 6943TIP3   OH245023   1.654   4.383  10.985  0.0561 -0.5281 -0.6076
 6943TIP3    H145024   1.586   4.428  11.035  0.4437  2.1868 -2.3145
 6943TIP3    H245025   1.661   4.297  11.026 -2.3165  0.1502  1.4725
 6944TIP3   OH245026   3.762   6.836  10.042  0.3567  0.7129 -0.2837
 6944TIP3    H145027   3.704   6.848  10.117 -0.7359  0.1616 -1.0010
 6944TIP3    H245028   3.726   6.760   9.996  0.5268  1.4866 -1.7714
 6945TIP3   OH245029   7.538   1.950  10.932  0.2903 -0.6000  0.0661
 6945TIP3    H145030   7.444   1.957  10.945  0.6243 -0.0171  2.7146
 6945TIP3    H245031   7.563   1.873  10.982  1.3691 -0.0799  0.3494
 6946TIP3   OH245032   6.210   2.039   9.784 -0.2258  0.2495  0.0957
 6946TIP3    H145033   6.190   1.956   9.742 -0.3387  0.7373 -0.8352
 6946TIP3    H245034   6.301   2.031   9.813 -0.6388 -0.6809  1.2118
 6947TIP3   OH245035   4.807   6.151   9.918 -0.2203  0.2476 -0.1256
 6947TIP3    H145036   4.882   6.122   9.971 -2.2730 -1.4626  2.0741
 6947TIP3    H245037   4.745   6.186   9.982 -0.9544  2.6689 -1.9969
 6948TIP3   OH245038   4.855   2.830  10.691  0.0503 -0.3619 -0.8903
 6948TIP3    H145039   4.829   2.921  10.676  1.3832  0.2727  0.4324
 6948TIP3    H245040   4.849   2.789  10.604 -1.0656  0.8372 -1.4133
 6949TIP3   OH245041   0.870   6.160  11.934  0.0432 -0.8910  0.0889
 6949TIP3    H145042   0.947   6.148  11.990 -0.6908 -0.3136  1.2692
 6949TIP3    H245043   0.815   6.084  11.954  0.0401 -0.9994 -0.3179
 6950TIP3   OH245044   1.719   6.129  11.452 -0.3052  0.6243 -0.6184
 6950TIP3    H145045   1.648   6.193  11.449 -0.7501  0.1551 -0.2282
 6950TIP3    H245046   1.799   6.181  11.440 -0.5766  1.3965  0.7540
 6951TIP3   OH245047   3.910   5.468  11.342 -0.5641  0.0939 -0.5568
 6951TIP3    H145048   3.953   5.404  11.286  0.1026  0.0910 -0.0484
 6951TIP3    H245049   3.834   5.497  11.291 -0.6201 -0.7607 -0.9784
 6952TIP3   OH245050   3.520   2.948  11.048  0.3074 -0.0957 -0.3616
 6952TIP3    H145051   3.613   2.936  11.029  0.3880 -1.3177  0.6760
 6952TIP3    H245052   3.511   3.041  11.068  1.7656 -0.3358  1.7514
 6953TIP3   OH245053   5.533   3.706  10.877 -0.4799 -0.1599 -0.6797
 6953TIP3    H145054   5.469   3.661  10.822 -0.8167  0.8023 -1.1000
 6953TIP3    H245055   5.541   3.794  10.838  1.2217 -0.3073 -0.7602
 6954TIP3   OH245056   3.123   2.596  10.245  0.1264  0.3157  0.1609
 6954TIP3    H145057   3.101   2.529  10.310  0.8236 -1.5193 -1.4036
 6954TIP3    H245058   3.050   2.594  10.183  0.3020  0.7775 -0.0602
 6955TIP3   OH245059   5.990   4.994  12.317 -0.0962 -0.6027 -0.2549
 6955TIP3    H145060   5.901   4.959  12.325 -0.7970  1.0406 -0.4495
 6955TIP3    H245061   6.039   4.923  12.275 -1.3471 -1.4843 -0.3019
 6956TIP3   OH245062   2.483   4.868  10.089 -0.4819  0.2152  0.2267
 6956TIP3    H145063   2.514   4.880  10.179  3.1210 -1.3833 -0.5974
 6956TIP3    H245064   2.528   4.935  10.039  0.7203 -1.3056 -0.8532
 6957TIP3   OH245065   4.308   0.237  11.665  0.2183 -0.2415 -0.6313
 6957TIP3    H145066   4.253   0.268  11.593  1.4294  3.7273 -0.0716
 6957TIP3    H245067   4.247   0.208  11.732 -1.1187  0.9509 -1.2833
 6958TIP3   OH245068   0.617   3.450  12.205  0.2973 -0.2344  0.6700
 6958TIP3    H145069   0.637   3.432  12.297 -2.2288 -1.9256  0.9747
 6958TIP3    H245070   0.669   3.529  12.185  0.6635  0.4021  3.6160
 6959TIP3   OH245071   0.805   5.930  11.490 -0.0522  0.0415  0.5258
 6959TIP3    H145072   0.867   5.993  11.454 -0.0761 -0.4364 -0.4011
 6959TIP3    H245073   0.768   5.887  11.412 -0.5534 -0.6097  1.1147
 6960TIP3   OH245074   7.035   6.730  10.857  0.3740  0.1270 -0.1005
 6960TIP3    H145075   6.965   6.775  10.810 -0.4825 -1.4099 -0.3656
 6960TIP3    H245076   7.111   6.736  10.798 -0.8576 -2.3855 -2.1472
 6961TIP3   OH245077   7.076   4.164  12.426  0.2923  0.6274 -0.0034
 6961TIP3    H145078   7.035   4.137  12.344 -1.1192 -1.0934  1.1796
 6961TIP3    H245079   7.031   4.246  12.449 -0.0990  0.5219 -0.3772
 6962TIP3   OH245080   7.114   7.514  11.548  0.3198 -0.2962  0.1919
 6962TIP3    H145081   7.160   7.489  11.468  0.5807  1.9544 -0.4320
 6962TIP3    H245082   7.098   7.608  11.538  0.9328  0.2155  3.0726
 6963TIP3   OH245083   1.541   1.299  10.707 -0.2918  0.1105 -0.2911
 6963TIP3    H145084   1.545   1.206  10.686  0.4040  0.0049  0.2760
 6963TIP3    H245085   1.567   1.343  10.626  0.7657 -0.2420 -0.1625
 6964TIP3   OH245086   4.753   5.865  10.938 -0.9522  0.2247 -0.1946
 6964TIP3    H145087   4.672   5.835  10.979 -0.3975  0.0029  0.7760
 6964TIP3    H245088   4.816   5.872  11.010  0.5107 -1.6315 -1.1743
 6965TIP3   OH245089   5.735   1.193  10.150  0.3848 -0.1655 -0.4329
 6965TIP3    H145090   5.679   1.116  10.140  0.1429  0.1005 -1.2113
 6965TIP3    H245091   5.824   1.160  10.137  0.3397 -0.4337 -0.0630
 6966TIP3   OH245092   7.195   1.625  11.193 -0.0436 -0.2222  0.0965
 6966TIP3    H145093   7.114   1.617  11.142  0.7448 -1.0168 -1.0909
 6966TIP3    H245094   7.180   1.699  11.251 -0.8828  0.9701 -1.5563
 6967TIP3   OH245095   6.665   2.801  11.156  0.2252  0.1881 -0.0299
 6967TIP3    H145096   6.635   2.866  11.220 -0.2055 -1.5345  1.6039
 6967TIP3    H245097   6.760   2.805  11.160  0.2765 -1.1900  2.2512
 6968TIP3   OH245098   3.228   4.469   9.455 -0.0217  0.4328  0.1494
 6968TIP3    H145099   3.215   4.563   9.471  0.3720  0.3687  0.8891
 6968TIP3    H245100   3.158   4.446   9.394 -1.6420  0.7062  1.8088
 6969TIP3   OH245101   5.222   2.041  11.552  0.3757  0.3895 -0.7343
 6969TIP3    H145102   5.309   2.077  11.535  0.0134  1.2618 -0.7937
 6969TIP3    H245103   5.234   1.985  11.629  0.9195  0.7946 -0.5153
 6970TIP3   OH245104   4.643   3.996  11.988  0.6288  0.4599  0.3719
 6970TIP3    H145105   4.695   3.945  12.050 -1.0837 -0.0679  1.4208
 6970TIP3    H245106   4.574   4.036  12.041 -1.1262 -0.3321 -1.2159
 6971TIP3   OH245107   0.066   6.814  11.821 -0.6225  0.5186  0.6065
 6971TIP3    H145108   0.077   6.755  11.896 -1.1321 -0.5335 -0.1081
 6971TIP3    H245109   0.114   6.893  11.845  0.7822 -0.4967  1.2745
 6972TIP3   OH245110   3.070   4.710  10.731 -0.0877 -0.6977 -0.0960
 6972TIP3    H145111   2.980   4.681  10.720  0.0632 -1.5539  0.8128
 6972TIP3    H245112   3.076   4.790  10.678 -1.5902 -0.1997  0.4249
 6973TIP3   OH245113   4.246   7.305  12.072 -0.1872 -0.3322 -0.0555
 6973TIP3    H145114   4.260   7.299  12.166  1.9577 -0.8017 -0.3461
 6973TIP3    H245115   4.294   7.230  12.036  0.7106  0.9363 -1.6448
 6974TIP3   OH245116   3.177   0.385  11.782  0.0639 -0.9369 -0.2707
 6974TIP3    H145117   3.227   0.463  11.756 -1.3369  0.4502  0.9364
 6974TIP3    H245118   3.178   0.329  11.705  1.3596  0.1525 -1.0996
 6975TIP3   OH245119   4.722   2.153  11.102 -0.1382 -0.2458  0.3360
 6975TIP3    H145120   4.695   2.188  11.187  0.8041 -1.6085  1.2472
 6975TIP3    H245121   4.771   2.073  11.124  1.2910  0.0900 -1.4064
 6976TIP3   OH245122   7.348   2.536  11.742 -0.0358 -0.5669 -0.5529
 6976TIP3    H145123   7.301   2.617  11.762 -0.2087 -0.1959 -2.3114
 6976TIP3    H245124   7.438   2.555  11.766  0.4330  1.1145 -3.2039
 6977TIP3   OH245125   2.737   5.028  11.422  0.1402  0.2643 -0.0576
 6977TIP3    H145126   2.817   5.056  11.467 -0.0610  2.2386 -0.8269
 6977TIP3    H245127   2.681   5.105  11.423 -1.0759 -0.5785 -1.0313
 6978TIP3   OH245128   0.346   2.673  11.706 -0.0833 -0.2388 -0.0041
 6978TIP3    H145129   0.373   2.720  11.627 -0.7407  0.2551  0.0535
 6978TIP3    H245130   0.363   2.581  11.687  1.9961  0.0726  0.1833
 6979TIP3   OH245131   0.009   5.648  12.070  0.3347  0.5957  0.2533
 6979TIP3    H145132   0.027   5.739  12.095  0.0239  0.5769  0.5667
 6979TIP3    H245133   0.067   5.596  12.125  1.1739  0.6383 -0.5800
 6980TIP3   OH245134   5.252   2.206  11.215  0.2014 -0.6888  0.3764
 6980TIP3    H145135   5.337   2.237  11.184 -0.2296 -0.9113 -1.1100
 6980TIP3    H245136   5.192   2.276  11.194 -0.8649 -2.4778 -3.4267
 6981TIP3   OH245137   4.158   3.510  10.105  0.4353 -0.0753  0.2925
 6981TIP3    H145138   4.217   3.474  10.040  1.4649 -0.8622  1.6083
 6981TIP3    H245139   4.144   3.439  10.167  0.3487  0.9642  1.5065
 6982TIP3   OH245140   3.188   5.344  12.004  0.1294 -0.0821  0.0691
 6982TIP3    H145141   3.246   5.409  12.044  0.6567 -0.8558  0.6043
 6982TIP3    H245142   3.246   5.291  11.949 -0.2834 -0.1178 -0.3345
 6983TIP3   OH245143   1.381   0.396  11.257 -0.2805 -0.6691  0.0737
 6983TIP3    H145144   1.314   0.386  11.325 -1.1597 -0.0884 -0.6811
 6983TIP3    H245145   1.461   0.361  11.297 -0.0437  2.1984  2.5092
 6984TIP3   OH245146   5.982   5.585  11.111 -0.6315 -0.4150  0.2876
 6984TIP3    H145147   6.059   5.567  11.165  1.0897  1.3015 -1.4416
 6984TIP3    H245148   5.992   5.677  11.085 -3.7802  0.1791  0.7412
 6985TIP3   OH245149   5.790   0.601  11.945 -0.8039  0.4718  0.3597
 6985TIP3    H145150   5.716   0.619  12.003 -1.8040  1.3629 -1.0941
 6985TIP3    H245151   5.778   0.509  11.919 -2.1070  0.9173 -0.7446
 6986TIP3   OH245152   6.257   5.912  10.809 -0.2140 -0.0941 -0.5421
 6986TIP3    H145153   6.184   5.942  10.754 -2.2341  0.7160  2.3077
 6986TIP3    H245154   6.232   5.824  10.836 -0.3589  0.2988  0.6967
 6987TIP3   OH245155   4.172   2.140   9.894  0.1182 -0.0367 -0.3176
 6987TIP3    H145156   4.175   2.118   9.987  2.7990  0.2825 -0.2451
 6987TIP3    H245157   4.157   2.235   9.893 -1.0011 -0.2051 -0.2679
 6988TIP3   OH245158   6.340   2.407  10.831 -0.2601  0.3574 -0.4378
 6988TIP3    H145159   6.282   2.362  10.770 -0.5410  0.1332 -0.0097
 6988TIP3    H245160   6.428   2.376  10.809 -0.1658  1.5365 -1.8262
 6989TIP3   OH245161   3.903   6.416  12.384  0.1610 -0.1589 -0.4244
 6989TIP3    H145162   3.820   6.396  12.340  1.2033  0.3093 -2.7481
 6989TIP3    H245163   3.889   6.503  12.422 -0.6724 -0.4446 -0.0413
 6990TIP3   OH245164   2.016   3.318  11.340 -0.4136 -0.1566  0.4771
 6990TIP3    H145165   1.980   3.284  11.258  0.1116  0.4582 -0.0143
 6990TIP3    H245166   1.943   3.366  11.380 -0.5866 -0.2057  0.2221
 6991TIP3   OH245167   3.218   3.359  10.861  0.1504  0.2797  0.4151
 6991TIP3    H145168   3.240   3.452  10.868  0.7773  0.0712  1.4644
 6991TIP3    H245169   3.298   3.313  10.889 -0.8313 -0.5378  2.0662
 6992TIP3   OH245170   4.900   3.067  11.587  0.0454  0.0404  0.6908
 6992TIP3    H145171   4.851   2.987  11.605  0.9052 -0.4863  0.7584
 6992TIP3    H245172   4.971   3.040  11.529  0.3771  0.7380  0.7561
 6993TIP3   OH245173   1.470   5.589  10.358 -0.8235  0.5149 -0.7355
 6993TIP3    H145174   1.388   5.631  10.386 -1.2329 -0.9186  0.3437
 6993TIP3    H245175   1.458   5.497  10.381  2.2800  0.7056  2.3556
 6994TIP3   OH245176   0.626   4.245  10.683 -0.2545 -0.7164  0.1134
 6994TIP3    H145177   0.719   4.260  10.695 -0.1769  0.5663 -1.6657
 6994TIP3    H245178   0.592   4.328  10.651 -1.8762 -1.3873 -0.0338
 6995TIP3   OH245179   5.891   2.701  11.710  0.3674 -0.0895 -0.5300
 6995TIP3    H145180   5.832   2.689  11.785  0.0205 -2.6522 -1.1207
 6995TIP3    H245181   5.858   2.778  11.665  1.1573  2.1280  2.4067
 6996TIP3   OH245182   5.414   0.835  10.526  0.2659  0.2030 -0.1959
 6996TIP3    H145183   5.351   0.817  10.596  0.5950  0.5341  0.1866
 6996TIP3    H245184   5.475   0.898  10.563 -0.2835  1.3817 -1.1966
 6997TIP3   OH245185   3.512   6.520  10.325 -0.7482  0.0496  0.3529
 6997TIP3    H145186   3.542   6.473  10.403  2.3182  1.7765  0.3641
 6997TIP3    H245187   3.445   6.580  10.357 -1.3979 -1.0361  1.1295
 6998TIP3   OH245188   0.462   6.422  11.218  0.1579 -0.3776  0.0631
 6998TIP3    H145189   0.440   6.329  11.224  0.3842 -0.3983  0.6406
 6998TIP3    H245190   0.439   6.457  11.304 -0.6533  0.2594 -0.4075
 6999TIP3   OH245191   5.678   4.352  11.267 -0.5650  0.2604 -0.6429
 6999TIP3    H145192   5.637   4.416  11.208 -2.4123  0.0790  0.3820
 6999TIP3    H245193   5.615   4.340  11.338  0.9926 -0.5847  0.6687
 7000TIP3   OH245194   6.589   6.514  10.911 -0.0884 -0.0664  0.7816
 7000TIP3    H145195   6.668   6.564  10.893  0.5168 -1.2364  0.0380
 7000TIP3    H245196   6.525   6.579  10.938  1.0944  0.9187  1.2996
 7001TIP3   OH245197   1.581   5.630  10.932  0.4236  0.8273  0.4122
 7001TIP3    H145198   1.508   5.675  10.974  0.0137 -0.3237  0.9981
 7001TIP3    H245199   1.659   5.679  10.958  0.0816  0.6798  1.7843
 7002TIP3   OH245200   6.503   4.442  11.234  0.3379  0.4545  0.1437
 7002TIP3    H145201   6.440   4.474  11.170 -0.5655 -1.7101 -0.1535
 7002TIP3    H245202   6.524   4.518  11.287 -0.6848  1.7843 -1.2625
 7003TIP3   OH245203   6.990   1.464  10.834  0.7131  0.3250  0.2345
 7003TIP3    H145204   7.054   1.524  10.795  0.9576 -0.3119 -0.3810
 7003TIP3    H245205   7.022   1.377  10.809  0.1263 -0.0386  0.7407
 7004TIP3   OH245206   3.342   0.987  12.047  0.1055 -0.5668  0.4847
 7004TIP3    H145207   3.383   1.050  11.987 -1.8806 -0.4407 -0.8586
 7004TIP3    H245208   3.308   0.919  11.989 -0.1481 -1.4779  1.6759
 7005TIP3   OH245209   5.174   5.199  12.484 -0.1166 -0.0778 -0.0775
 7005TIP3    H145210   5.171   5.192  12.389 -0.0439  0.7323 -0.1482
 7005TIP3    H245211   5.264   5.175  12.507 -0.3254 -0.9608 -0.1393
 7006TIP3   OH245212   2.114   0.079   9.831  1.5185  0.4151  0.2788
 7006TIP3    H145213   2.035   0.130   9.847 -0.0824 -1.3072 -1.6106
 7006TIP3    H245214   2.186   0.143   9.838 -0.1856  2.4451  0.1042
 7007TIP3   OH245215   1.797   1.887  11.669  0.2114  0.6773 -1.2765
 7007TIP3    H145216   1.774   1.959  11.727  1.9564 -0.1260  0.5159
 7007TIP3    H245217   1.880   1.913  11.630  0.2315  0.1587 -1.5900
 7008TIP3   OH245218   3.648   0.024  11.838  0.6259 -0.0952 -0.0581
 7008TIP3    H145219   3.674   0.088  11.904 -0.4599  0.4126 -0.0939
 7008TIP3    H245220   3.696   0.050  11.759  0.7107  0.2649  0.1102
 7009TIP3   OH245221   3.701   5.674  10.078 -0.0605  0.4134  0.2484
 7009TIP3    H145222   3.794   5.655  10.087  0.1744  1.0091 -0.7636
 7009TIP3    H245223   3.657   5.601  10.123  0.8713 -0.3136  0.0127
 7010TIP3   OH245224   5.508   1.887  10.701 -0.8137  0.3212 -0.1165
 7010TIP3    H145225   5.548   1.810  10.742 -2.0751  0.9343  2.4349
 7010TIP3    H245226   5.437   1.912  10.760 -0.1116  3.7794 -0.5326
 7011TIP3   OH245227   7.283   5.206  10.845  0.0430  0.2459 -0.5909
 7011TIP3    H145228   7.244   5.292  10.829 -0.6583  0.4672  1.8616
 7011TIP3    H245229   7.358   5.224  10.902 -0.2291 -0.7426  0.1144
 7012TIP3   OH245230   0.712   5.529  11.208 -0.6108 -0.0208  0.0936
 7012TIP3    H145231   0.800   5.506  11.179 -0.9033 -1.1930  0.0943
 7012TIP3    H245232   0.722   5.548  11.301 -0.3242  0.0496  0.0492
 7013TIP3   OH245233   5.922   5.262   9.954 -0.3487  1.1396  0.4393
 7013TIP3    H145234   5.901   5.300  10.039  1.6023  0.3971  1.3009
 7013TIP3    H245235   6.007   5.219   9.966 -0.5365  0.0468 -1.5869
 7014TIP3   OH245236   2.716   7.251  11.146 -0.1935  0.0720  0.0326
 7014TIP3    H145237   2.761   7.170  11.173 -0.0739 -0.7036 -2.2918
 7014TIP3    H245238   2.641   7.220  11.095 -0.1166  1.4227 -0.9331
 7015TIP3   OH245239   4.109   6.515  11.444  0.3951  0.0445  0.2959
 7015TIP3    H145240   4.048   6.467  11.500 -3.0871  1.1044 -2.2382
 7015TIP3    H245241   4.165   6.448  11.405 -0.1932 -1.1896  1.5123
 7016TIP3   OH245242   5.884   2.557  10.505 -0.0267  0.0761 -0.3431
 7016TIP3    H145243   5.941   2.513  10.442 -2.0072  0.2428 -2.4003
 7016TIP3    H245244   5.925   2.642  10.519  1.0771 -0.4222 -0.4660
 7017TIP3   OH245245   5.507   2.324  11.154 -0.1264 -0.2766 -0.7192
 7017TIP3    H145246   5.534   2.402  11.106 -0.9703 -0.0149 -0.7926
 7017TIP3    H245247   5.564   2.321  11.230  1.4389 -0.8614 -1.8656
 7018TIP3   OH245248   3.167   0.138  11.108 -0.5158 -0.1260 -0.3401
 7018TIP3    H145249   3.229   0.066  11.123 -1.8613 -1.4803 -0.9602
 7018TIP3    H245250   3.152   0.175  11.195  1.2911  0.3979 -0.2013
 7019TIP3   OH245251   1.805   0.696  12.491  0.1081  0.4424 -0.2840
 7019TIP3    H145252   1.822   0.786  12.518  2.6576 -0.1130  0.2928
 7019TIP3    H245253   1.852   0.643  12.556 -1.1707 -1.3153 -0.7207
 7020TIP3   OH245254   6.793   5.365  11.678 -0.1564 -0.2917 -0.3259
 7020TIP3    H145255   6.810   5.459  11.666  0.0198 -0.0566  1.3771
 7020TIP3    H245256   6.810   5.326  11.593  0.9178  1.0831 -0.7842
 7021TIP3   OH245257   1.668   3.199  10.374  0.5524  0.3462  0.3385
 7021TIP3    H145258   1.744   3.171  10.323 -0.0240 -1.7458  0.5385
 7021TIP3    H245259   1.623   3.118  10.397 -1.8067  1.5010  0.1425
 7022TIP3   OH245260   0.228   0.053  10.099 -0.2060  1.0038  0.4429
 7022TIP3    H145261   0.263  -0.030  10.065  0.9540  1.9575 -0.8448
 7022TIP3    H245262   0.133   0.044  10.092 -0.0841 -0.0979  0.0212
 7023TIP3   OH245263   0.126   2.793   9.951 -0.1444  0.1352 -0.4114
 7023TIP3    H145264   0.079   2.849  10.013  0.8012 -0.7475  1.1682
 7023TIP3    H245265   0.214   2.830   9.948  0.0487 -0.3349 -0.5633
 7024TIP3   OH245266   2.422   1.463   9.806  0.3094  0.0153 -0.0697
 7024TIP3    H145267   2.443   1.549   9.769  1.3805 -0.2885 -0.2161
 7024TIP3    H245268   2.390   1.412   9.732  3.5781 -0.9725 -0.9956
 7025TIP3   OH245269   0.069   4.076  11.871 -0.0168 -0.5129 -0.2276
 7025TIP3    H145270   0.013   4.132  11.817 -0.7762  1.4842  2.4651
 7025TIP3    H245271   0.157   4.112  11.861 -0.3622  0.6721  0.8031
 7026TIP3   OH245272   3.573   0.353  10.117  0.0930  0.1734  0.2550
 7026TIP3    H145273   3.507   0.401  10.167 -0.8695 -0.7487 -0.0841
 7026TIP3    H245274   3.524   0.284  10.072  0.8812  1.0228 -2.0806
 7027TIP3   OH245275   1.462   4.806  11.844  0.8481 -0.1399 -0.0845
 7027TIP3    H145276   1.374   4.844  11.832  0.9208 -0.1400 -0.6533
 7027TIP3    H245277   1.451   4.744  11.916  0.2089 -0.6748 -0.6242
 7028TIP3   OH245278   1.360   6.095  11.980  0.0763 -0.1058 -0.4497
 7028TIP3    H145279   1.314   6.152  12.042  0.3963  1.7601 -1.8254
 7028TIP3    H245280   1.325   6.121  11.895  1.3138 -0.9700 -1.2453
 7029TIP3   OH245281   4.081   0.634  12.175  0.3463 -0.0484  0.2244
 7029TIP3    H145282   4.133   0.705  12.210 -0.8169  1.8217 -1.6188
 7029TIP3    H245283   3.991   0.656  12.197 -0.0771 -0.7026 -0.7754
 7030TIP3   OH245284   5.291   5.786  11.592  0.0264  0.6171 -0.1222
 7030TIP3    H145285   5.242   5.776  11.510 -0.9364 -0.8109  0.6137
 7030TIP3    H245286   5.288   5.700  11.633  0.7668  1.2385  1.2871
 7031TIP3   OH245287   2.685   3.658  10.886  0.2537  0.4011 -0.2978
 7031TIP3    H145288   2.724   3.650  10.799 -2.6376  0.0423 -1.6754
 7031TIP3    H245289   2.656   3.569  10.908  1.8104  0.2782  1.5512
 7032TIP3   OH245290   5.981   5.199  12.008  0.3395 -0.0079 -0.4163
 7032TIP3    H145291   6.071   5.170  11.994  1.6443  2.9998  0.7942
 7032TIP3    H245292   5.983   5.293  11.990 -2.3322  0.3451  0.6444
 7033TIP3   OH245293   6.776   5.187  10.141  0.2383 -0.2191  0.2136
 7033TIP3    H145294   6.804   5.178  10.232  0.7286 -0.4240  0.0496
 7033TIP3    H245295   6.683   5.208  10.146  0.2519 -0.2696  0.7596
 7034TIP3   OH245296   6.607   3.928  11.148 -0.1187 -0.0233  0.7121
 7034TIP3    H145297   6.528   3.922  11.202 -0.0041  0.4161  0.9384
 7034TIP3    H245298   6.625   3.838  11.121 -1.5533  0.0306 -0.5706
 7035TIP3   OH245299   4.130   3.665  10.887 -0.0432 -0.4241  0.2694
 7035TIP3    H145300   4.201   3.626  10.939  0.7590 -2.2158 -1.9922
 7035TIP3    H245301   4.174   3.730  10.832 -0.3602 -0.5681 -0.1630
 7036TIP3   OH245302   4.635   4.988  10.282 -0.1878 -0.0654  0.1296
 7036TIP3    H145303   4.696   4.990  10.355  0.2774  0.5437 -0.2676
 7036TIP3    H245304   4.601   4.898  10.282  0.8611 -0.4749  0.2342
 7037TIP3   OH245305   6.929   2.677  10.918 -0.6743  0.2136  0.1768
 7037TIP3    H145306   7.000   2.738  10.897 -0.0897 -0.6554 -0.4560
 7037TIP3    H245307   6.951   2.645  11.005  0.5218 -1.1019 -0.5599
 7038TIP3   OH245308   2.973   3.512  18.370  0.5516  0.2705  0.1237
 7038TIP3    H145309   3.026   3.438  18.400  0.1884 -0.4806 -1.0448
 7038TIP3    H245310   3.019   3.545  18.293  0.8512  1.4577  0.7737
 7039TIP3   OH245311   6.355   1.284  10.938  0.0925  0.5147  0.3177
 7039TIP3    H145312   6.324   1.374  10.949  0.3465  0.3031  3.9156
 7039TIP3    H245313   6.281   1.238  10.900 -0.8348  1.7607  0.5447
 7040TIP3   OH245314   0.508   7.357  11.477 -0.5470  0.1313  0.2293
 7040TIP3    H145315   0.440   7.364  11.410 -0.1583  0.3901 -0.1408
 7040TIP3    H245316   0.519   7.263  11.490 -0.9612  0.0869  0.2783
 7041TIP3   OH245317   2.441   1.737   9.765 -0.0860  0.0138 -0.0247
 7041TIP3    H145318   2.523   1.769   9.804 -0.4231  1.8324 -0.7158
 7041TIP3    H245319   2.374   1.798   9.797 -0.7455  0.0937 -1.5054
 7042TIP3   OH245320   7.612   6.236  12.620  0.3886  0.3500 -0.8003
 7042TIP3    H145321   7.572   6.171  12.678 -0.9857 -1.0952 -3.1487
 7042TIP3    H245322   7.613   6.317  12.671 -0.1869 -0.9343  1.3919
 7043TIP3   OH245323   2.150   1.256  12.062 -0.6700 -0.8405  0.5543
 7043TIP3    H145324   2.208   1.249  12.137 -0.5582 -0.8208  0.4710
 7043TIP3    H245325   2.148   1.350  12.042 -0.9315 -0.8109  0.7129
 7044TIP3   OH245326   0.334   4.644  10.450 -0.1205  0.2355  0.0772
 7044TIP3    H145327   0.259   4.633  10.391 -0.5531  1.7928  0.2779
 7044TIP3    H245328   0.410   4.647  10.391 -0.0805 -1.9999 -0.0840
 7045TIP3   OH245329   3.750   6.026  11.200 -0.1648  0.7019  0.4205
 7045TIP3    H145330   3.808   5.959  11.163 -1.5183  0.0460 -0.6125
 7045TIP3    H245331   3.809   6.087  11.244  1.0936 -1.4806  1.9739
 7046TIP3   OH245332   1.984   6.838  10.946  0.6329 -0.0343 -0.4669
 7046TIP3    H145333   1.888   6.839  10.941  0.4904 -1.5240  1.0985
 7046TIP3    H245334   2.008   6.750  10.918  1.5560  0.3121 -0.8001
 7047TIP3   OH245335   5.445   1.415  10.517 -0.1684  0.0073 -0.3467
 7047TIP3    H145336   5.371   1.476  10.508 -0.0835  0.1129 -0.3246
 7047TIP3    H245337   5.493   1.424  10.435 -0.8337 -0.9243 -0.8534
 7048TIP3   OH245338   3.797   5.733  11.745 -0.3563 -0.0799 -0.2803
 7048TIP3    H145339   3.762   5.647  11.721  3.5242 -1.5381 -1.3902
 7048TIP3    H245340   3.753   5.794  11.686 -0.8754 -1.7571 -1.6930
 7049TIP3   OH245341   4.453   2.492  11.623  0.5614 -0.5049  0.2633
 7049TIP3    H145342   4.371   2.537  11.602  0.7687 -0.4226 -0.3801
 7049TIP3    H245343   4.449   2.479  11.718  0.4499  0.8063  0.4637
 7050TIP3   OH245344   0.925   1.923  11.171 -0.4801 -0.1634 -0.4881
 7050TIP3    H145345   0.936   1.852  11.233  1.1977  0.3424 -0.1523
 7050TIP3    H245346   0.960   1.888  11.088 -1.6817 -0.4552 -0.8914
 7051TIP3   OH245347   2.257   6.694  11.867  0.4904  0.0229  0.6299
 7051TIP3    H145348   2.237   6.611  11.824  0.4094  0.1435  0.4346
 7051TIP3    H245349   2.171   6.733  11.886  0.4846 -0.7075  2.2367
 7052TIP3   OH245350   2.436   7.128  11.466  0.0585  0.4327  0.1032
 7052TIP3    H145351   2.408   7.039  11.447  0.4207  0.8210 -2.6675
 7052TIP3    H245352   2.368   7.164  11.523 -0.2016 -1.4957  1.0761
 7053TIP3   OH245353   2.010   2.145  11.614 -0.2512 -0.1655  0.0136
 7053TIP3    H145354   2.042   2.159  11.525  1.4329 -1.8625  0.2792
 7053TIP3    H245355   1.981   2.231  11.643  2.5931  1.2390 -0.8988
 7054TIP3   OH245356   4.705   4.771  12.000  0.7843 -0.6401  0.1069
 7054TIP3    H145357   4.694   4.686  11.959 -2.8560 -0.1591 -0.1747
 7054TIP3    H245358   4.731   4.751  12.090  0.0124 -2.0304  0.0396
 7055TIP3   OH245359   0.212   6.440  11.752  0.0850  0.2942  0.2774
 7055TIP3    H145360   0.299   6.421  11.717 -0.5478 -1.1934 -0.6064
 7055TIP3    H245361   0.159   6.457  11.674 -1.0101 -1.5327  0.5583
 7056TIP3   OH245362   1.198   0.958  10.897  0.2211  0.5499  0.0849
 7056TIP3    H145363   1.217   0.978  10.989 -2.5996  1.3237  0.6023
 7056TIP3    H245364   1.219   1.039  10.850  0.2999  0.6535  0.2978
 7057TIP3   OH245365   6.420   5.825  10.529 -0.1136 -0.0349 -0.3811
 7057TIP3    H145366   6.351   5.759  10.530  1.2131 -1.5490  1.5305
 7057TIP3    H245367   6.430   5.850  10.621  1.2989  0.7555 -0.7217
 7058TIP3   OH245368   7.609   0.830  10.535 -0.4744  0.4535  0.2797
 7058TIP3    H145369   7.567   0.747  10.512  1.2703 -0.4237  0.0568
 7058TIP3    H245370   7.602   0.834  10.630 -2.7913  1.3370  0.1221
 7059TIP3   OH245371   6.443   1.914   9.939 -0.2217 -0.3008 -0.2843
 7059TIP3    H145372   6.486   1.848   9.994  2.1293  0.4451 -1.0888
 7059TIP3    H245373   6.511   1.940   9.876 -0.4766  3.9363  0.9060
 7060TIP3   OH245374   4.926   5.080  10.292  0.2173 -0.6100 -0.0076
 7060TIP3    H145375   4.982   5.152  10.263 -0.6900 -0.0401 -0.3570
 7060TIP3    H245376   4.841   5.098  10.253 -0.8567 -0.2654  2.3302
 7061TIP3   OH245377   0.988   6.671  10.876  0.3327  0.6313 -0.1891
 7061TIP3    H145378   0.946   6.710  10.953 -0.7311  1.1331 -1.0064
 7061TIP3    H245379   1.057   6.615  10.913 -1.2183 -0.4617  1.2326
 7062TIP3   OH245380   2.171   1.523  10.474  0.3839 -1.0282 -0.0886
 7062TIP3    H145381   2.140   1.483  10.555 -0.2302  0.6049  0.5305
 7062TIP3    H245382   2.257   1.483  10.459 -0.2785 -2.7111  0.3298
 7063TIP3   OH245383   2.643   5.277  11.414 -0.1455  0.5530  0.4884
 7063TIP3    H145384   2.565   5.322  11.380 -1.3368 -0.3422  1.9155
 7063TIP3    H245385   2.699   5.348  11.445 -0.6405  1.1935 -0.0509
 7064TIP3   OH245386   0.545   3.360  11.517  0.7532 -0.1364 -0.6483
 7064TIP3    H145387   0.485   3.433  11.507  0.2735 -0.5832 -1.0958
 7064TIP3    H245388   0.570   3.361  11.609 -0.9342 -0.6966 -0.1469
 7065TIP3   OH245389   5.668   3.678  11.903 -0.2057  0.8196 -0.0314
 7065TIP3    H145390   5.656   3.699  11.810 -0.2739 -0.9232 -0.4456
 7065TIP3    H245391   5.580   3.659  11.935  0.1354 -2.1315 -0.5683
 7066TIP3   OH245392   6.018   5.498  10.790  0.4599 -0.2979  0.2003
 7066TIP3    H145393   6.094   5.441  10.782 -0.1707 -1.3080  1.1039
 7066TIP3    H245394   5.943   5.439  10.789 -0.3017  0.6483 -0.2833
 7067TIP3   OH245395   0.733   7.146  10.693 -0.6954 -0.6358  0.0626
 7067TIP3    H145396   0.790   7.095  10.635  0.4454 -1.5070  1.8413
 7067TIP3    H245397   0.744   7.105  10.779 -2.9557  0.0740  0.7616
 7068TIP3   OH245398   2.131   7.217  12.026 -0.2901  0.2185 -0.0034
 7068TIP3    H145399   2.132   7.208  12.121 -1.7686 -1.1491 -0.0828
 7068TIP3    H245400   2.206   7.165  11.997  0.8318  1.5217  0.4259
 7069TIP3   OH245401   7.206   6.992  10.985  0.4236 -0.1715  0.7491
 7069TIP3    H145402   7.269   6.920  10.984  0.7742  0.1377  0.4229
 7069TIP3    H245403   7.199   7.019  10.894  1.6813  1.4065  1.0781
 7070TIP3   OH245404   2.103   7.230  12.307  0.0023  0.3978  0.4232
 7070TIP3    H145405   2.163   7.304  12.312  0.2685  0.1109  2.1505
 7070TIP3    H245406   2.135   7.169  12.373 -1.2179 -0.5011  0.2203
 7071TIP3   OH245407   1.130   6.049  10.105 -0.2094 -0.0431  0.6712
 7071TIP3    H145408   1.089   6.132  10.083 -0.0859 -0.2695 -0.4481
 7071TIP3    H245409   1.224   6.066  10.101 -0.1724  0.0589  1.6376
 7072TIP3   OH245410   2.536   4.968  10.351 -0.2602 -0.2637  0.3925
 7072TIP3    H145411   2.517   4.912  10.426  0.4684  0.7832  1.4113
 7072TIP3    H245412   2.471   5.038  10.356  0.7398  0.6740  1.0342
 7073TIP3   OH245413   2.540   6.816  10.857  0.0484  0.3443  0.2357
 7073TIP3    H145414   2.474   6.831  10.924 -2.5983  0.3818 -2.2203
 7073TIP3    H245415   2.511   6.736  10.812  1.1854  0.8271 -1.4618
 7074TIP3   OH245416   5.338   6.263  11.632 -0.8842  0.6522 -0.3234
 7074TIP3    H145417   5.340   6.264  11.728  1.3975  2.6114 -0.2954
 7074TIP3    H245418   5.293   6.182  11.610  1.0867 -1.3955  2.4158
 7075TIP3   OH245419   2.950   7.233  10.900  1.0843  1.1650 -0.0996
 7075TIP3    H145420   3.000   7.229  10.818  2.4387  1.1752  0.6856
 7075TIP3    H245421   3.015   7.256  10.966  0.0139  1.1864  0.9815
 7076TIP3   OH245422   3.954   2.984  12.192  0.3085  0.1473 -0.0485
 7076TIP3    H145423   4.044   2.964  12.166 -0.1116 -1.1659 -0.5762
 7076TIP3    H245424   3.917   3.028  12.115  0.0426 -0.7308 -0.4264
 7077TIP3   OH245425   0.057   5.747  11.230 -0.6891 -0.0949 -0.5894
 7077TIP3    H145426   0.062   5.827  11.283  1.2408 -0.1672 -0.6125
 7077TIP3    H245427   0.108   5.767  11.151  0.3765 -1.5510 -0.3043
 7078TIP3   OH245428   4.278   2.374  11.006  0.0021  0.5914 -0.1422
 7078TIP3    H145429   4.334   2.296  11.009 -0.5201  0.1959 -0.6043
 7078TIP3    H245430   4.252   2.388  11.098  1.5813  1.3285  0.2311
 7079TIP3   OH245431   1.623   7.573  11.990  0.7944 -0.0003 -0.2631
 7079TIP3    H145432   1.568   7.615  12.056 -2.3812 -1.1712 -1.9762
 7079TIP3    H245433   1.682   7.643  11.960  0.7340  1.1481  2.0934
 7080TIP3   OH245434   1.570   1.664   9.985 -0.0201  0.2497  0.8203
 7080TIP3    H145435   1.541   1.747   9.947 -1.8376 -1.5280 -2.0183
 7080TIP3    H245436   1.666   1.670   9.986 -0.0772  1.9145 -0.4329
 7081TIP3   OH245437   2.753   3.460   9.352  0.2452 -0.7652 -0.1014
 7081TIP3    H145438   2.831   3.504   9.319 -2.4258  2.9819 -2.1807
 7081TIP3    H245439   2.720   3.518   9.421 -2.2863 -0.5099 -1.4195
 7082TIP3   OH245440   0.251   5.530  11.573  0.2796  0.0478  0.4969
 7082TIP3    H145441   0.315   5.468  11.609 -0.7806 -0.3944  1.6791
 7082TIP3    H245442   0.299   5.612  11.568  1.7106 -0.8195 -1.0910
 7083TIP3   OH245443   5.655   4.850  10.387  0.3480 -0.0834 -0.9055
 7083TIP3    H145444   5.677   4.875  10.297 -1.5066  1.7640 -0.9172
 7083TIP3    H245445   5.650   4.933  10.434  2.3004 -1.0562  1.2267
 7084TIP3   OH245446   4.616   4.088  11.695  0.0230 -0.1908  0.0862
 7084TIP3    H145447   4.613   4.090  11.599  1.9911  0.9275 -0.0163
 7084TIP3    H245448   4.530   4.057  11.722 -0.9379  0.5065 -2.0156
 7085TIP3   OH245449   1.232   0.608  11.888  0.5361  0.0778 -0.0687
 7085TIP3    H145450   1.310   0.644  11.846  1.0299 -0.1849  0.5901
 7085TIP3    H245451   1.191   0.683  11.932 -0.1881  0.4257 -1.2897
 7086TIP3   OH245452   5.687   7.098  10.911  0.4676 -0.2686 -0.2555
 7086TIP3    H145453   5.690   7.186  10.873  1.0086 -1.3964 -3.0834
 7086TIP3    H245454   5.594   7.078  10.918  0.3488 -0.1592 -1.3973
 7087TIP3   OH245455   0.324   2.227  11.077  0.2147  0.4198  0.6622
 7087TIP3    H145456   0.309   2.186  11.162 -0.4286 -0.4743  0.1439
 7087TIP3    H245457   0.336   2.153  11.017 -1.6588  0.9382 -0.4354
 7088TIP3   OH245458   1.383   2.861  11.786 -0.5114 -0.1126  0.4164
 7088TIP3    H145459   1.456   2.800  11.799  1.6830  2.0687 -0.8385
 7088TIP3    H245460   1.313   2.807  11.750  0.5536 -2.2508  1.3567
 7089TIP3   OH245461   6.587   3.549  12.027  0.0530  0.2739 -0.2469
 7089TIP3    H145462   6.576   3.454  12.022 -0.4152  0.1570  1.8994
 7089TIP3    H245463   6.639   3.572  11.950  1.5812 -1.9308  0.0516
 7090TIP3   OH245464   5.547   5.300  10.105  0.4729 -0.0114 -0.0713
 7090TIP3    H145465   5.493   5.252  10.042 -3.2306  0.1248  2.6788
 7090TIP3    H245466   5.559   5.239  10.177  1.0634  1.1431  0.8373
 7091TIP3   OH245467   2.048   0.196  12.355 -0.3840 -0.2674 -0.5947
 7091TIP3    H145468   2.055   0.130  12.286 -3.8532 -1.0501 -0.3628
 7091TIP3    H245469   2.004   0.270  12.313 -1.8274 -0.4461  0.5282
 7092TIP3   OH245470   1.707   7.105  12.643 -0.3816 -0.0575 -0.2007
 7092TIP3    H145471   1.777   7.159  12.681  0.9221 -1.7904 -0.0227
 7092TIP3    H245472   1.706   7.129  12.551  0.9504 -0.4856 -0.3460
 7093TIP3   OH245473   3.964   3.115  10.452  0.5468  0.3374  0.3628
 7093TIP3    H145474   4.034   3.069  10.406  0.1721  1.3847 -1.3623
 7093TIP3    H245475   3.887   3.060  10.440  0.3401  0.8423 -0.7481
 7094TIP3   OH245476   6.058   2.205  10.446  0.2149 -0.2666 -0.0856
 7094TIP3    H145477   5.978   2.244  10.409  1.1612  0.8399 -1.0554
 7094TIP3    H245478   6.045   2.110  10.436 -0.9830 -0.1106 -0.1884
 7095TIP3   OH245479   1.222   6.785  11.987 -0.2104 -0.4290  0.2796
 7095TIP3    H145480   1.278   6.862  11.986 -1.6405  0.7047  1.6821
 7095TIP3    H245481   1.183   6.782  11.900  0.9492 -0.4405 -0.2591
 7096TIP3   OH245482   7.112   0.389  10.914 -0.0226  0.3695 -0.2066
 7096TIP3    H145483   7.047   0.333  10.872 -2.0553  2.8949 -0.6394
 7096TIP3    H245484   7.175   0.410  10.845  0.5134 -0.9243 -0.1499
 7097TIP3   OH245485   2.869   5.173  11.943 -0.4408  0.3311 -0.1769
 7097TIP3    H145486   2.890   5.262  11.970 -1.7574  0.3133  1.0317
 7097TIP3    H245487   2.907   5.117  12.011  0.6380 -0.0790 -1.0807
 7098TIP3   OH245488   2.986   4.842  11.633  0.0159  0.1817 -1.2380
 7098TIP3    H145489   2.965   4.901  11.705 -0.2374 -0.9839 -0.3181
 7098TIP3    H245490   3.033   4.896  11.570  3.9283  0.4676  1.5332
 7099TIP3   OH245491   5.663   6.224  11.585 -0.2166 -0.2861  0.1890
 7099TIP3    H145492   5.616   6.297  11.544 -0.9236 -0.3118  0.9143
 7099TIP3    H245493   5.600   6.152  11.584  0.6645 -1.0775 -1.0242
 7100TIP3   OH245494   6.994   3.916  10.679 -0.0698  0.3237 -0.2078
 7100TIP3    H145495   7.046   3.855  10.627 -0.0671  0.7739 -0.7362
 7100TIP3    H245496   6.929   3.951  10.618 -0.5649  0.2722  0.2836
 7101TIP3   OH245497   4.530   4.498  12.485  0.4169  0.3516  0.5153
 7101TIP3    H145498   4.561   4.583  12.517  1.8798  0.6592 -1.5294
 7101TIP3    H245499   4.593   4.473  12.418 -0.1039 -2.2857  0.8982
 7102TIP3   OH245500   0.227   0.755  11.381 -0.3344 -0.2157  0.1278
 7102TIP3    H145501   0.245   0.765  11.288 -0.7431  0.2347  0.0977
 7102TIP3    H245502   0.154   0.692  11.385 -0.3978 -0.1421  0.1364
 7103TIP3   OH245503   7.570   3.934  12.172 -0.6873  0.0426  0.7219
 7103TIP3    H145504   7.593   3.868  12.237 -1.5954 -0.5700  0.4411
 7103TIP3    H245505   7.653   3.979  12.153  0.0653 -1.4170  0.4631
 7104TIP3   OH245506   2.716   6.785  11.403  0.2561 -0.0035  0.1045
 7104TIP3    H145507   2.808   6.801  11.425  0.1929 -0.3121  0.6276
 7104TIP3    H245508   2.704   6.827  11.318  0.6611  0.7751  0.4192
 7105TIP3   OH245509   7.585   5.919  10.722 -0.0712 -0.1867  0.2267
 7105TIP3    H145510   7.663   5.966  10.692  1.0913 -1.0350  1.8137
 7105TIP3    H245511   7.564   5.860  10.649  2.0553 -1.4444  0.5380
 7106TIP3   OH245512   0.946   2.665  10.999 -0.4690  0.2755 -0.1134
 7106TIP3    H145513   0.940   2.658  11.094 -0.4790  2.4556  0.0952
 7106TIP3    H245514   0.856   2.664  10.969 -0.4496 -1.9304 -0.3115
 7107TIP3   OH245515   1.095   6.118  12.100  0.0173 -0.4135 -0.2297
 7107TIP3    H145516   1.081   6.077  12.186  0.6595 -0.9497 -0.3741
 7107TIP3    H245517   1.145   6.053  12.050  0.0678  0.0903 -0.8496
 7108TIP3   OH245518   1.281   1.813  11.000  0.4722 -0.5005  0.4032
 7108TIP3    H145519   1.303   1.816  10.908  0.1078 -1.8221  0.2384
 7108TIP3    H245520   1.228   1.891  11.015  4.1895  2.2512  0.6040
 7109TIP3   OH245521   5.069   6.727  11.847 -0.1255  0.1379 -0.2437
 7109TIP3    H145522   5.145   6.728  11.906  0.0326 -0.3380 -0.4396
 7109TIP3    H245523   5.042   6.635  11.844 -0.6479  0.2868 -0.2604
 7110TIP3   OH245524   0.324   6.103  10.978  0.8052 -0.3382  0.0759
 7110TIP3    H145525   0.378   6.125  10.902  1.3476  1.2691  0.8770
 7110TIP3    H245526   0.240   6.146  10.961  1.9093  2.7582  1.7055
 7111TIP3   OH245527   2.141   0.281  12.596 -0.4651 -0.3279  0.3811
 7111TIP3    H145528   2.216   0.312  12.546 -1.7579  1.5917 -0.4834
 7111TIP3    H245529   2.088   0.233  12.531  0.1132 -1.9410  1.0527
 7112TIP3   OH245530   4.316   5.355  11.447 -0.8921 -0.2368 -0.2639
 7112TIP3    H145531   4.353   5.325  11.530  0.1894  0.5998 -0.4359
 7112TIP3    H245532   4.228   5.387  11.470  0.8425  3.9990  1.4458
 7113TIP3   OH245533   7.257   6.444  11.058  0.1199 -0.3370  0.4438
 7113TIP3    H145534   7.231   6.529  11.092 -1.9630 -1.3423  1.5220
 7113TIP3    H245535   7.202   6.381  11.105 -0.6035 -2.0704 -2.5188
 7114TIP3   OH245536   0.031   6.991  11.271  0.5495  0.5176 -0.1089
 7114TIP3    H145537   0.017   7.076  11.313 -1.4806  0.7827 -1.1710
 7114TIP3    H245538   0.077   6.939  11.336 -0.8289  1.4930  1.7372
 7115TIP3   OH245539   4.162   2.186  10.836  0.2382  0.2877  0.1318
 7115TIP3    H145540   4.198   2.263  10.880 -0.2061  1.3373 -1.2259
 7115TIP3    H245541   4.095   2.222  10.778 -0.3522 -1.2013 -0.1536
 7116TIP3   OH245542   5.698   3.440  11.609  0.0112 -0.6191 -0.4642
 7116TIP3    H145543   5.715   3.395  11.692 -0.2539  1.1187  0.5920
 7116TIP3    H245544   5.653   3.376  11.555 -3.1822 -0.7814  2.0717
 7117TIP3   OH245545   1.125   5.914  11.874 -0.0806 -0.2851 -0.1300
 7117TIP3    H145546   1.155   5.990  11.825 -0.4538  1.3855  2.0957
 7117TIP3    H245547   1.059   5.874  11.817 -1.2222  2.1257 -0.6278
 7118TIP3   OH245548   2.119   4.808  11.581 -0.3948 -0.2082  0.2187
 7118TIP3    H145549   2.156   4.897  11.583  0.0957 -0.4191  1.6048
 7118TIP3    H245550   2.084   4.799  11.492 -2.0080  1.9840  0.5529
 7119TIP3   OH245551   0.760   4.698   9.750 -0.3479  0.0714  0.8608
 7119TIP3    H145552   0.724   4.689   9.661 -0.8366  0.6215  0.9943
 7119TIP3    H245553   0.686   4.679   9.807 -0.0315 -0.2813  1.1530
 7120TIP3   OH245554   2.360   2.684   9.928  0.6382  0.5071  0.0678
 7120TIP3    H145555   2.418   2.732   9.869 -0.0291  1.4194  0.1265
 7120TIP3    H245556   2.389   2.709  10.016  1.4334 -0.6102  0.1428
 7121TIP3   OH245557   0.442   3.604  11.158  0.0321  0.3801  0.2093
 7121TIP3    H145558   0.439   3.692  11.197 -2.4573  0.8001 -0.7020
 7121TIP3    H245559   0.387   3.551  11.216  1.5247 -0.6241  0.7550
 7122TIP3   OH245560   6.874   4.497  10.398 -0.0374  0.5871  0.2169
 7122TIP3    H145561   6.897   4.404  10.402  2.7343  1.1596 -0.6071
 7122TIP3    H245562   6.842   4.509  10.308  0.0780  0.5327  0.1682
 7123TIP3   OH245563   6.944   4.518  12.604 -0.5193 -0.2974 -0.1422
 7123TIP3    H145564   6.969   4.497  12.514  0.2924 -0.7325  0.1812
 7123TIP3    H245565   6.903   4.437  12.636  0.7611 -0.7353  0.4358
 7124TIP3   OH245566   4.235   1.702  11.297 -0.1865 -0.3242 -0.1066
 7124TIP3    H145567   4.289   1.710  11.376  2.5423  1.3683 -1.9385
 7124TIP3    H245568   4.161   1.760  11.313  0.2840 -0.0521  1.2515
 7125TIP3   OH245569   1.537   1.922   9.875  0.1437  0.2140 -0.8436
 7125TIP3    H145570   1.608   1.979   9.905 -1.4841  2.1268 -0.4357
 7125TIP3    H245571   1.458   1.976   9.880 -1.5903 -2.1922 -0.0894
 7126TIP3   OH245572   1.585   7.316  12.029 -0.0067  0.5280  0.0120
 7126TIP3    H145573   1.599   7.295  12.121  1.0185  1.1048  0.0055
 7126TIP3    H245574   1.613   7.407  12.021  0.4243  0.3221 -0.9759
 7127TIP3   OH245575   4.780   6.111  11.957  0.4789  0.4247 -0.0148
 7127TIP3    H145576   4.686   6.104  11.974  0.2976 -0.9084 -1.3668
 7127TIP3    H245577   4.815   6.155  12.034 -1.5548  3.1354 -0.5044
 7128TIP3   OH245578   1.842   2.162  12.513 -0.0575  0.3217 -0.9811
 7128TIP3    H145579   1.930   2.125  12.518  0.6308  1.8126 -1.5270
 7128TIP3    H245580   1.797   2.108  12.448 -0.7336 -2.6409  1.6627
 7129TIP3   OH245581   0.276   3.066  10.686 -0.2185  0.3086 -0.0487
 7129TIP3    H145582   0.203   3.058  10.748 -1.1760  0.0508 -1.1748
 7129TIP3    H245583   0.309   3.155  10.699  0.4766 -0.1666  1.7504
 7130TIP3   OH245584   1.799   6.454  11.849 -0.1760 -0.0138 -0.2271
 7130TIP3    H145585   1.764   6.451  11.760  0.4148 -1.5829 -0.4332
 7130TIP3    H245586   1.764   6.376  11.892  1.5568 -0.6501  0.1113
 7131TIP3   OH245587   5.003   4.514  11.487 -0.4930 -0.1571 -0.1263
 7131TIP3    H145588   5.028   4.516  11.579  0.8296  0.3842 -0.4834
 7131TIP3    H245589   4.949   4.592  11.475  0.9282  0.8395 -0.2263
 7132TIP3   OH245590   5.831   6.132  10.674  0.0850 -0.2291  0.0335
 7132TIP3    H145591   5.838   6.068  10.603  0.4399 -0.4932  0.2988
 7132TIP3    H245592   5.914   6.180  10.671 -0.9384  1.5890 -1.4328
 7133TIP3   OH245593   3.727   3.229  10.706  0.1456 -0.4196  0.6644
 7133TIP3    H145594   3.677   3.306  10.731  1.1261 -0.0508  1.5646
 7133TIP3    H245595   3.818   3.258  10.708  0.5066 -1.5259  0.7329
 7134TIP3   OH245596   4.185   0.793  10.720  0.5106  0.2370  0.4859
 7134TIP3    H145597   4.244   0.755  10.655 -1.4710 -0.1550 -1.1596
 7134TIP3    H245598   4.139   0.718  10.758 -0.4465  0.6671  0.1994
 7135TIP3   OH245599   7.068   5.783  11.227 -0.5235  0.1282 -0.5906
 7135TIP3    H145600   7.030   5.712  11.175  0.1268  0.1456 -1.1074
 7135TIP3    H245601   7.153   5.749  11.255  0.7007  1.3792 -2.4986
 7136TIP3   OH245602   0.034   0.731  11.703  0.2182 -0.2758  0.0325
 7136TIP3    H145603   0.119   0.774  11.717  0.1969  0.6920 -2.3511
 7136TIP3    H245604  -0.029   0.803  11.701 -0.9898 -1.0680  3.1147
 7137TIP3   OH245605   6.487   4.126  11.921 -0.2980 -0.4999  0.4833
 7137TIP3    H145606   6.531   4.047  11.954  0.0314 -0.0585  1.1353
 7137TIP3    H245607   6.461   4.104  11.831  1.3011 -0.7800  0.0557
 7138TIP3   OH245608   7.221   6.423  12.359  0.1422  0.2585 -0.3708
 7138TIP3    H145609   7.179   6.344  12.325 -0.1988  0.1624  0.2606
 7138TIP3    H245610   7.220   6.412  12.454  0.4357  0.8508 -0.2922
 7139TIP3   OH245611   7.294   0.905  10.220  0.3366  0.0890  0.0972
 7139TIP3    H145612   7.248   0.904  10.304 -0.8886  0.8668 -0.5384
 7139TIP3    H245613   7.297   0.997  10.195 -0.9251 -0.2720 -1.5584
 7140TIP3   OH245614   0.581   1.908  10.360 -0.0724  0.2414 -0.1245
 7140TIP3    H145615   0.485   1.909  10.367 -0.0469  1.0540  0.2040
 7140TIP3    H245616   0.603   1.815  10.355 -0.7987 -0.0114  0.9757
 7141TIP3   OH245617   0.599   2.768  11.894  0.4315 -0.1453 -0.4368
 7141TIP3    H145618   0.518   2.717  11.895  0.6189 -0.4567 -0.7962
 7141TIP3    H245619   0.654   2.725  11.828  0.6743  0.3977 -0.5933
 7142TIP3   OH245620   0.849   6.331  10.954  0.0436 -0.2537  0.1087
 7142TIP3    H145621   0.931   6.354  10.996  0.7382 -1.3798 -0.5632
 7142TIP3    H245622   0.873   6.308  10.864 -1.1761  0.5319 -0.4593
 7143TIP3   OH245623   7.070   3.316  11.128  0.3013  0.2707  0.0129
 7143TIP3    H145624   7.107   3.386  11.075  0.7956 -1.4582 -2.0599
 7143TIP3    H245625   6.976   3.319  11.109  0.1505  1.0510  0.8183
 7144TIP3   OH245626   2.109   1.008  12.771  0.0166 -0.1217  0.4536
 7144TIP3    H145627   2.195   0.984  12.804 -0.5194  0.5329  2.4578
 7144TIP3    H245628   2.113   1.102  12.758 -0.4288 -0.0806  0.6081
 7145TIP3   OH245629   0.227   4.293  10.827  0.0691  0.3543  0.2660
 7145TIP3    H145630   0.239   4.289  10.732  2.5321  0.1149  0.5205
 7145TIP3    H245631   0.202   4.383  10.844 -0.2370  0.4407 -0.5821
 7146TIP3   OH245632   5.910   0.120  11.005 -0.1787  0.4831 -0.4013
 7146TIP3    H145633   5.863   0.055  11.058 -0.0215 -0.1814 -1.0479
 7146TIP3    H245634   5.850   0.139  10.933 -0.1714  0.9661 -0.2801
 7147TIP3   OH245635   0.336   0.936  10.750 -0.0550  0.0267  0.0325
 7147TIP3    H145636   0.289   0.927  10.667 -1.5449 -0.5032  0.8926
 7147TIP3    H245637   0.321   0.852  10.794  0.5908  0.3581  0.8921
 7148TIP3   OH245638   2.388   4.169  11.912 -0.8663 -0.5401 -0.2366
 7148TIP3    H145639   2.411   4.201  11.999 -1.2069  0.3715 -0.4657
 7148TIP3    H245640   2.431   4.084  11.905  1.3847  0.5193 -0.1775
 7149TIP3   OH245641   4.127   2.906  10.346  0.1521 -0.0906 -0.4596
 7149TIP3    H145642   4.137   2.873  10.436  0.8197  2.7635  0.6382
 7149TIP3    H245643   4.042   2.873  10.318 -0.8624  0.2885  1.9107
 7150TIP3   OH245644   4.850   3.302  10.286  0.3965 -0.0092  0.2412
 7150TIP3    H145645   4.759   3.274  10.294 -0.0582  1.4457  0.4928
 7150TIP3    H245646   4.889   3.284  10.372  0.8379 -2.1854 -0.3713
 7151TIP3   OH245647   6.059   5.032  11.161  0.0620 -0.5275 -0.3115
 7151TIP3    H145648   5.991   5.009  11.225 -0.3209  0.3385 -0.3872
 7151TIP3    H245649   6.122   5.083  11.211  0.3839 -0.8718 -0.3635
 7152TIP3   OH245650   2.133   2.193  10.044  0.0371  0.3999 -0.5169
 7152TIP3    H145651   2.088   2.129  10.099  1.4047  0.7226  1.0530
 7152TIP3    H245652   2.090   2.276  10.064  1.4339  0.7655  1.2330
 7153TIP3   OH245653   3.869   4.832  11.990 -0.2555  0.2250  0.9474
 7153TIP3    H145654   3.793   4.794  12.033 -1.4843 -0.5060 -1.6409
 7153TIP3    H245655   3.942   4.817  12.050 -1.6334 -1.6994  2.2441
 7154TIP3   OH245656   4.506   7.577  12.092 -0.1771  0.3392  0.3138
 7154TIP3    H145657   4.501   7.628  12.173 -4.9471  0.7220  0.0217
 7154TIP3    H245658   4.468   7.492  12.115  1.0680 -0.5954 -0.9202
 7155TIP3   OH245659   5.111   4.493  12.183  0.3813  0.5754  0.0119
 7155TIP3    H145660   5.018   4.506  12.161 -0.4258 -0.8173  2.2511
 7155TIP3    H245661   5.121   4.535  12.269  1.6355  0.0048  0.1566
 7156TIP3   OH245662   1.516   6.539  11.101 -0.2944 -0.2020 -0.3748
 7156TIP3    H145663   1.517   6.587  11.184  1.4052  1.9260 -1.5618
 7156TIP3    H245664   1.465   6.593  11.042  0.8408 -0.3064 -1.4861
 7157TIP3   OH245665   1.030   1.250  12.307  0.2562  0.3226 -0.2355
 7157TIP3    H145666   0.998   1.168  12.345 -2.4036  1.2219 -0.3343
 7157TIP3    H245667   1.113   1.267  12.352  1.3029 -2.7785 -0.7741
 7158TIP3   OH245668   4.009   1.619  10.703  0.0527 -0.0346 -0.2421
 7158TIP3    H145669   4.084   1.578  10.661  0.7066 -0.1268  0.9686
 7158TIP3    H245670   3.964   1.665  10.632  1.2464  0.0283 -0.9920
 7159TIP3   OH245671   6.697   3.672  11.107 -0.1013  0.0156  0.2802
 7159TIP3    H145672   6.680   3.588  11.149 -0.6698 -0.6414 -1.1873
 7159TIP3    H245673   6.672   3.658  11.016 -0.1708  1.7784  0.0053
 7160TIP3   OH245674   2.100   7.659  12.197  0.4452 -0.1980 -0.1992
 7160TIP3    H145675   2.177   7.605  12.214 -0.8525 -2.0167  0.2172
 7160TIP3    H245676   2.080   7.645  12.105  0.6303  0.3299 -0.3246
 7161TIP3   OH245677   4.323   4.705  11.781 -0.4467  0.7727 -0.1933
 7161TIP3    H145678   4.296   4.754  11.704  1.5685  0.0794 -1.4101
 7161TIP3    H245679   4.330   4.614  11.751 -0.1747  0.3961  0.9466
 7162TIP3   OH245680   2.539   6.497  11.683 -0.2604  0.1981 -1.0628
 7162TIP3    H145681   2.489   6.417  11.696 -0.2470 -0.1219 -2.7622
 7162TIP3    H245682   2.564   6.525  11.772 -1.7692 -0.6838 -0.3334
 7163TIP3   OH245683   3.966   4.960   9.986 -0.1655  0.7722 -0.0268
 7163TIP3    H145684   4.056   4.930   9.972  0.6334  2.7093  0.5635
 7163TIP3    H245685   3.920   4.883  10.019  1.0964 -0.4390 -0.9715
 7164TIP3   OH245686   1.316   4.032  12.128  0.6987  0.4411 -0.1425
 7164TIP3    H145687   1.400   4.052  12.171  0.0962  0.5830  1.0193
 7164TIP3    H245688   1.338   3.964  12.064  1.7006  0.4373  0.1754
 7165TIP3   OH245689   5.626   3.218  11.421 -0.0826  0.8675 -0.0741
 7165TIP3    H145690   5.600   3.128  11.402 -2.0964  1.6320 -1.2966
 7165TIP3    H245691   5.604   3.266  11.341  0.5496  2.5101  0.7003
 7166TIP3   OH245692   3.220   3.765  10.853  0.5007  0.1263  0.7416
 7166TIP3    H145693   3.247   3.826  10.922  0.7627  2.3233 -1.1733
 7166TIP3    H245694   3.277   3.689  10.865  2.4654  1.5864  1.2997
 7167TIP3   OH245695   4.186   0.357  11.136  0.0575 -0.1820  0.3245
 7167TIP3    H145696   4.158   0.418  11.204  0.0203 -0.4398  0.5405
 7167TIP3    H245697   4.242   0.409  11.079 -0.7480  0.3120 -0.0383
 7168TIP3   OH245698   4.926   2.980  10.280  0.7391  0.1596  0.0340
 7168TIP3    H145699   5.015   2.987  10.314 -0.0130 -0.5913  2.3819
 7168TIP3    H245700   4.883   3.061  10.308 -0.0869 -0.7802  1.6735
 7169TIP3   OH245701   2.713   1.692  12.309 -0.1892  0.2295  0.0843
 7169TIP3    H145702   2.618   1.683  12.314 -0.2373  0.6900  0.0167
 7169TIP3    H245703   2.746   1.607  12.337 -0.6146  0.2094  0.5533
 7170TIP3   OH245704   0.608   3.941  11.592 -0.3335  0.3114  0.2708
 7170TIP3    H145705   0.581   4.032  11.596  0.0825  0.4798 -0.4944
 7170TIP3    H245706   0.704   3.944  11.595 -0.2635  0.0048 -1.1625
 7171TIP3   OH245707   3.968   0.110  10.502  0.1373  0.0950  0.1376
 7171TIP3    H145708   3.932   0.050  10.437  0.1987 -2.0586  1.9736
 7171TIP3    H245709   4.035   0.159  10.455 -0.9625 -0.1834 -1.8051
 7172TIP3   OH245710   1.856   3.505  11.733 -0.0044 -0.3186 -0.1285
 7172TIP3    H145711   1.815   3.575  11.682 -0.0518 -1.0866 -1.1733
 7172TIP3    H245712   1.903   3.452  11.668 -0.9977 -1.9838  0.4292
 7173TIP3   OH245713   2.040   7.140  10.539 -0.5916 -0.9181  0.3419
 7173TIP3    H145714   2.075   7.191  10.611 -2.8969 -0.8281  1.4986
 7173TIP3    H245715   2.021   7.054  10.576  0.1194 -1.5618 -0.7187
 7174TIP3   OH245716   6.429   2.650  11.373 -0.1645  0.5405  0.3471
 7174TIP3    H145717   6.411   2.742  11.353 -3.7473  0.0143  0.4221
 7174TIP3    H245718   6.416   2.643  11.468  0.7448  0.0597  0.4483
 7175TIP3   OH245719   2.827   0.312  10.184  0.3075 -0.5755  0.1739
 7175TIP3    H145720   2.802   0.275  10.099  0.9630 -0.2913 -0.1427
 7175TIP3    H245721   2.817   0.239  10.246  0.5929 -1.0006 -0.2778
 7176TIP3   OH245722   2.824   3.781  10.084 -1.0032 -0.0710  0.3202
 7176TIP3    H145723   2.745   3.748  10.126 -1.3627 -0.7628 -0.8375
 7176TIP3    H245724   2.888   3.790  10.155 -2.1100  0.5391  1.2791
 7177TIP3   OH245725   7.582   2.215  11.080  0.6902 -0.2768 -0.5472
 7177TIP3    H145726   7.640   2.173  11.143 -0.8443 -1.2641  0.2758
 7177TIP3    H245727   7.576   2.153  11.007 -1.1511 -1.3415  0.4314
 7178TIP3   OH245728   3.442   1.649  11.180  0.1206  0.4675  0.1148
 7178TIP3    H145729   3.420   1.742  11.171 -1.9702 -0.0057 -0.1744
 7178TIP3    H245730   3.470   1.623  11.093  1.8863  1.0574  0.4612
 7179TIP3   OH245731   4.169   4.144  11.391 -0.3674 -0.5114  0.0826
 7179TIP3    H145732   4.094   4.089  11.370  0.4358 -1.5918 -0.0430
 7179TIP3    H245733   4.225   4.090  11.446  1.1458 -0.3848 -1.2460
 7180TIP3   OH245734   2.303   3.726  10.144  0.1697 -0.0854 -0.3762
 7180TIP3    H145735   2.286   3.657  10.208 -0.2058  0.6484  0.3228
 7180TIP3    H245736   2.262   3.804  10.181 -0.3235  0.2836 -1.6591
 7181TIP3   OH245737   2.598   4.593  11.212 -0.0638  0.2568  0.3978
 7181TIP3    H145738   2.644   4.664  11.168  1.6553 -0.8762  0.2836
 7181TIP3    H245739   2.635   4.592  11.301 -0.8708  0.1955  0.7450
 7182TIP3   OH245740   3.939   1.157   9.747  0.4085 -0.0786 -0.0030
 7182TIP3    H145741   4.001   1.141   9.819 -0.4091  0.9212  0.9411
 7182TIP3    H245742   3.870   1.091   9.760  0.3965 -0.0745 -0.0445
 7183TIP3   OH245743   1.541   2.932  10.408  0.2856 -0.4098 -0.0816
 7183TIP3    H145744   1.546   2.966  10.498 -0.6934 -2.1407  0.6740
 7183TIP3    H245745   1.456   2.888  10.404  0.6482 -1.0324 -1.6290
 7184TIP3   OH245746   3.094   0.232   9.926  0.2537 -0.5131  0.2977
 7184TIP3    H145747   3.048   0.153   9.898 -1.0963  0.8641 -1.6141
 7184TIP3    H245748   3.179   0.200   9.958 -0.5966 -2.7835  0.4391
 7185TIP3   OH245749   3.375   6.319  12.117 -0.3831  0.1178  0.0614
 7185TIP3    H145750   3.338   6.359  12.196  0.0711 -1.3827  1.0709
 7185TIP3    H245751   3.353   6.226  12.125 -0.0347 -0.1120 -1.4202
 7186TIP3   OH245752   0.804   3.698  10.252  0.3629 -0.5037 -0.0503
 7186TIP3    H145753   0.817   3.766  10.186  0.6133 -0.1087  0.4066
 7186TIP3    H245754   0.731   3.646  10.218  0.9673 -0.7577 -1.0132
 7187TIP3   OH245755   7.117   6.788  11.574  0.3118 -0.2864 -0.1808
 7187TIP3    H145756   7.173   6.841  11.518  0.6162  0.7116  1.0140
 7187TIP3    H245757   7.032   6.832  11.572  0.1674 -0.5655 -0.2894
 7188TIP3   OH245758   1.914   0.991  11.661 -0.3802 -0.3771 -0.0529
 7188TIP3    H145759   1.968   1.017  11.735 -0.0831  0.1542 -0.4461
 7188TIP3    H245760   1.965   1.016  11.584 -1.0101 -0.2304 -0.4336
 7189TIP3   OH245761   2.865   4.017  10.664  0.1175 -0.5740 -0.4889
 7189TIP3    H145762   2.841   4.104  10.695 -1.7306 -0.9739 -0.6625
 7189TIP3    H245763   2.936   4.032  10.601  0.3373  0.7100  0.0297
 7190TIP3   OH245764   0.137   6.800  10.789  0.5284  0.0197 -0.1951
 7190TIP3    H145765   0.219   6.772  10.748 -0.5804  0.1225 -2.6949
 7190TIP3    H245766   0.155   6.887  10.823  1.0224  0.8931 -2.4667
 7191TIP3   OH245767   3.418   6.255  11.682  0.8591 -0.0537 -0.2985
 7191TIP3    H145768   3.422   6.345  11.713 -0.5866 -0.1266  0.1970
 7191TIP3    H245769   3.365   6.259  11.602  1.4010 -0.3694 -0.6791
 7192TIP3   OH245770   5.302   3.603  10.722  0.0146 -0.1241 -0.5366
 7192TIP3    H145771   5.277   3.537  10.657 -0.5270  1.2946 -1.8391
 7192TIP3    H245772   5.224   3.658  10.732 -0.0203 -0.4791  1.5867
 7193TIP3   OH245773   1.731   7.183  12.394  0.2709  0.9764 -0.2845
 7193TIP3    H145774   1.663   7.178  12.327 -0.3478 -1.7270  0.4626
 7193TIP3    H245775   1.801   7.127  12.361  0.4973  0.6493  0.7327
 7194TIP3   OH245776   5.226   7.319  11.196  0.1770 -0.7331  0.1546
 7194TIP3    H145777   5.304   7.333  11.142  0.9834 -0.4866  1.3429
 7194TIP3    H245778   5.162   7.381  11.162  1.0798  0.2821  0.2336
 7195TIP3   OH245779   6.142   3.341  10.389 -1.1142 -0.0714 -0.4825
 7195TIP3    H145780   6.125   3.304  10.475 -0.8454  3.8672  1.4443
 7195TIP3    H245781   6.065   3.315  10.337 -2.8591  0.0386  1.8770
 7196TIP3   OH245782   4.635   2.241  10.688 -0.1236 -0.6282  0.0210
 7196TIP3    H145783   4.560   2.300  10.699  0.2244 -0.0895 -0.4320
 7196TIP3    H245784   4.691   2.284  10.623  0.5153 -1.0854  0.2477
 7197TIP3   OH245785   1.209   7.139  10.948  0.0705 -0.0304  0.1456
 7197TIP3    H145786   1.278   7.123  10.884  0.0959 -0.3211  0.2442
 7197TIP3    H245787   1.250   7.118  11.032  0.2457  0.9808  0.3291
 7198TIP3   OH245788   0.154   3.666  10.386  0.7685  0.5357 -0.5577
 7198TIP3    H145789   0.224   3.714  10.341  1.2439  0.9730  0.6242
 7198TIP3    H245790   0.199   3.610  10.448  0.0871  0.4980 -0.0868
 7199TIP3   OH245791   7.165   5.075  11.995 -0.5748 -0.2113 -0.1736
 7199TIP3    H145792   7.179   5.115  12.081  0.7757 -0.1963 -0.3647
 7199TIP3    H245793   7.073   5.049  11.995 -0.7981  0.4871  0.9729
 7200TIP3   OH245794   6.133   2.810  10.006 -0.1683 -0.4672  0.2049
 7200TIP3    H145795   6.221   2.800  10.042  0.3171  0.2384 -0.7316
 7200TIP3    H245796   6.123   2.905   9.994 -1.5147 -0.4239  1.3736
 7201TIP3   OH245797   0.035   5.102  11.231  0.3940 -0.3663  0.1343
 7201TIP3    H145798   0.050   5.065  11.318  0.5389 -0.4637  0.0685
 7201TIP3    H245799   0.084   5.045  11.172 -0.0004 -0.5113 -0.0502
 7202TIP3   OH245800   5.934   4.423  10.627 -0.0175  0.1252 -0.0892
 7202TIP3    H145801   5.864   4.358  10.625 -0.9756  1.0891  0.8613
 7202TIP3    H245802   6.011   4.375  10.658 -0.5040 -0.7341 -0.2005
 7203TIP3   OH245803   2.856   5.046  12.208  0.1778  0.1650  0.8313
 7203TIP3    H145804   2.841   5.133  12.244  1.2279  0.5419  0.4041
 7203TIP3    H245805   2.947   5.026  12.230 -0.1404 -0.9738  1.2161
 7204TIP3   OH245806   2.520   6.610  10.203 -0.3508 -0.7479 -0.0131
 7204TIP3    H145807   2.472   6.681  10.159  0.1888 -0.5821 -0.3441
 7204TIP3    H245808   2.566   6.654  10.275  1.2260 -0.4625 -1.1396
 7205TIP3   OH245809   5.598   0.986  12.165  0.0207  0.1779  0.5496
 7205TIP3    H145810   5.580   0.937  12.085  1.6044 -1.6919  1.2666
 7205TIP3    H245811   5.625   0.920  12.228  1.7835  1.9182  1.7438
 7206TIP3   OH245812   0.349   1.944  11.222  0.0959 -0.2964  0.2942
 7206TIP3    H145813   0.438   1.959  11.255  0.8314 -2.0163 -0.7876
 7206TIP3    H245814   0.315   1.873  11.276  0.5124 -1.6455 -1.1192
 7207TIP3   OH245815   6.045   0.280  10.269  0.1005 -0.8453 -0.0180
 7207TIP3    H145816   6.026   0.321  10.353  0.2026  0.2286 -0.5130
 7207TIP3    H245817   6.104   0.207  10.291 -0.0205 -0.6896  0.8568
 7208TIP3   OH245818   1.085   0.489  11.656 -0.4543  0.1591  0.0044
 7208TIP3    H145819   1.143   0.512  11.728 -1.0050 -1.0668  0.8788
 7208TIP3    H245820   1.066   0.573  11.613  0.6346  0.7868  0.6938
 7209TIP3   OH245821   4.411   4.106   9.985  0.2178  0.6019 -0.2334
 7209TIP3    H145822   4.491   4.106   9.932  0.3664  0.5700 -0.0078
 7209TIP3    H245823   4.391   4.198   9.999  1.3379  0.6327  1.4078
 7210TIP3   OH245824   3.735   6.811  11.462  0.3594  0.0387 -0.5527
 7210TIP3    H145825   3.792   6.769  11.398 -0.8858  2.0749 -3.1938
 7210TIP3    H245826   3.791   6.875  11.506  0.9244 -0.4299 -0.5849
 7211TIP3   OH245827   1.711   4.956  11.732  0.3146  0.2804  0.0124
 7211TIP3    H145828   1.749   4.868  11.742  1.5242  0.9032  1.2093
 7211TIP3    H245829   1.623   4.948  11.767  0.0391 -0.6950 -0.8426
 7212TIP3   OH245830   1.332   4.196  11.257  0.3174 -0.2019  0.1967
 7212TIP3    H145831   1.251   4.225  11.298  0.9534 -1.5660  2.6073
 7212TIP3    H245832   1.400   4.246  11.302  1.0236 -1.5153  0.6232
 7213TIP3   OH245833   1.055   4.935  11.544  0.0079  0.0524 -0.3454
 7213TIP3    H145834   0.979   4.935  11.602  0.0474 -0.5633 -0.2814
 7213TIP3    H245835   1.105   5.012  11.569 -0.6155  0.4841 -0.4153
 7214TIP3   OH245836   5.812   0.820  10.595  0.0329 -0.3031  0.8966
 7214TIP3    H145837   5.795   0.826  10.689 -1.3711  1.9438  0.5832
 7214TIP3    H245838   5.730   0.785  10.559 -0.1734  0.7385  0.3369
 7215TIP3   OH245839   4.580   2.226  11.507 -0.9658 -0.4963  0.1192
 7215TIP3    H145840   4.604   2.165  11.577 -0.5209 -1.3430 -0.7580
 7215TIP3    H245841   4.524   2.291  11.551  1.9507  0.9600  2.0259
 7216TIP3   OH245842   0.826   0.122  11.827 -0.0435  0.0766 -0.5824
 7216TIP3    H145843   0.858   0.034  11.810 -0.6991 -0.1492 -0.6816
 7216TIP3    H245844   0.898   0.166  11.872  0.2823 -0.5094 -0.5275
 7217TIP3   OH245845   3.935   6.891  10.377 -0.1381  0.4433  1.0159
 7217TIP3    H145846   3.853   6.920  10.416 -0.8402  1.6951 -1.2288
 7217TIP3    H245847   3.909   6.834  10.304  0.9658  0.8956  0.2325
 7218TIP3   OH245848   6.811   3.557  11.533  0.1492 -0.5146  0.1633
 7218TIP3    H145849   6.816   3.519  11.621 -1.5872 -0.7343  0.2157
 7218TIP3    H245850   6.856   3.494  11.478  1.9318 -0.0010  0.9741
 7219TIP3   OH245851   1.046   0.196  11.982 -0.0569 -0.8469 -0.2741
 7219TIP3    H145852   1.124   0.235  11.942 -0.3241  0.6744  0.6451
 7219TIP3    H245853   1.079   0.150  12.059 -0.3006  2.2331  1.8254
 7220TIP3   OH245854   4.864   4.173  12.048 -0.4390  0.0672  0.0271
 7220TIP3    H145855   4.793   4.110  12.059 -1.5486  1.6841  3.6291
 7220TIP3    H245856   4.938   4.135  12.095 -0.1830  0.1442 -0.3124
 7221TIP3   OH245857   2.750   7.075  10.606  0.1936 -0.8858 -0.1707
 7221TIP3    H145858   2.821   7.137  10.622  2.0015 -2.7503 -0.5423
 7221TIP3    H245859   2.685   7.094  10.673  0.4338  1.6819 -0.5593
 7222TIP3   OH245860   3.549   5.806  11.153 -0.7977  0.2123 -0.1244
 7222TIP3    H145861   3.588   5.893  11.141 -0.5963 -0.0479 -1.4625
 7222TIP3    H245862   3.483   5.819  11.221 -0.4654  1.3181  0.0127
 7223TIP3   OH245863   0.092   3.876  11.547  0.2837 -0.5934  0.1672
 7223TIP3    H145864   0.184   3.890  11.568  0.3759 -1.8091  0.6268
 7223TIP3    H245865   0.089   3.788  11.510 -0.6766 -0.5129  0.0375
 7224TIP3   OH245866   1.730   0.419  11.844  0.4556  0.1948 -0.5210
 7224TIP3    H145867   1.650   0.384  11.806  0.6567  0.4621 -1.1974
 7224TIP3    H245868   1.704   0.501  11.885 -0.5385 -1.6929  3.1594
 7225TIP3   OH245869   3.096   2.136  11.374  0.1315 -0.1505  0.0992
 7225TIP3    H145870   3.107   2.223  11.413 -2.1175  0.4231 -0.4208
 7225TIP3    H245871   3.080   2.153  11.282  0.7886 -1.2271 -0.2340
 7226TIP3   OH245872   6.600   0.110  11.794 -0.5123  0.4150 -0.7373
 7226TIP3    H145873   6.517   0.066  11.813 -0.8912  0.8848 -1.2809
 7226TIP3    H245874   6.657   0.087  11.869 -1.6031  1.3226  0.4060
 7227TIP3   OH245875   2.275   3.143  11.389  0.1432 -0.5959 -0.3397
 7227TIP3    H145876   2.237   3.231  11.382 -0.0442 -0.4500  1.8695
 7227TIP3    H245877   2.352   3.147  11.332 -0.3050  0.7369 -0.9086
 7228TIP3   OH245878   6.546   1.161  11.133  0.2190 -0.2000  0.6740
 7228TIP3    H145879   6.629   1.160  11.086  0.9013  0.2834  1.8320
 7228TIP3    H245880   6.480   1.167  11.064  1.1722  0.2924 -0.2235
 7229TIP3   OH245881   0.481   1.615  10.392  0.2056  0.2621  0.2419
 7229TIP3    H145882   0.492   1.531  10.349 -0.4301  1.2843 -2.0735
 7229TIP3    H245883   0.411   1.600  10.456  2.0811 -1.6256  1.9886
 7230TIP3   OH245884   0.530   5.030  11.933  0.0561 -0.5039 -0.1253
 7230TIP3    H145885   0.560   4.951  11.978  1.1920  0.0313  0.0959
 7230TIP3    H245886   0.536   5.008  11.840  2.0351 -0.1453 -0.1272
 7231TIP3   OH245887   0.172   6.783  12.227 -0.2121  0.2025  0.0102
 7231TIP3    H145888   0.144   6.732  12.303 -2.3412 -2.3613 -2.2514
 7231TIP3    H245889   0.099   6.841  12.208 -0.1578  0.0787 -0.6257
 7232TIP3   OH245890   3.626   5.836  10.273  0.5160  0.2178 -0.0363
 7232TIP3    H145891   3.552   5.870  10.223  0.2874  0.6258  0.5650
 7232TIP3    H245892   3.691   5.812  10.207  0.1145  0.4881 -0.5345
 7233TIP3   OH245893   0.905   5.427  11.388  0.0423  0.5012  0.2868
 7233TIP3    H145894   0.899   5.417  11.483  0.4249  3.9052  0.8203
 7233TIP3    H245895   0.983   5.481  11.374  0.5653 -0.7357 -2.0929
 7234TIP3   OH245896   7.577   6.196   9.770 -0.1519  0.2629  0.8847
 7234TIP3    H145897   7.661   6.195   9.817  0.0676 -0.8374  0.4906
 7234TIP3    H245898   7.564   6.288   9.747  0.8993  0.4623  1.0299
 7235TIP3   OH245899   5.330   3.138  10.689 -0.2060 -0.3712  0.7047
 7235TIP3    H145900   5.279   3.063  10.719 -1.2090 -0.2424 -0.6133
 7235TIP3    H245901   5.265   3.200  10.657  0.7121  0.2862  0.0725
 7236TIP3   OH245902   3.592   5.818   9.879 -0.0219 -0.0508 -0.5807
 7236TIP3    H145903   3.598   5.767   9.798 -0.9860  0.5940 -1.0785
 7236TIP3    H245904   3.591   5.752   9.949  2.6285 -0.5593 -0.9368
 7237TIP3   OH245905   0.899   1.862  10.165 -0.0107  0.3388  0.4693
 7237TIP3    H145906   0.868   1.950  10.144  0.4022  0.2179 -0.7669
 7237TIP3    H245907   0.833   1.804  10.128  0.4781  0.1233 -0.0933
 7238TIP3   OH245908   6.873   5.286  11.415  0.7533  0.5865  0.0081
 7238TIP3    H145909   6.897   5.351  11.349  2.4500  0.3001  0.2853
 7238TIP3    H245910   6.788   5.254  11.387 -1.1401  4.2714  0.9153
 7239TIP3   OH245911   2.707   2.761   9.840  0.2666 -0.3604  0.5385
 7239TIP3    H145912   2.666   2.678   9.863 -0.2785  0.1403  1.4228
 7239TIP3    H245913   2.686   2.773   9.748 -0.2926 -0.8336  0.5994
 7240TIP3   OH245914   6.718   6.640  11.938  0.1105  0.5426 -0.2868
 7240TIP3    H145915   6.687   6.608  11.854  0.2597 -1.9017  0.5198
 7240TIP3    H245916   6.762   6.723  11.917 -3.0619  1.9819 -2.0332
 7241TIP3   OH245917   4.345   2.028  10.381  0.2091 -0.1101 -0.0013
 7241TIP3    H145918   4.439   2.034  10.365  0.0433  0.6476 -0.7632
 7241TIP3    H245919   4.335   2.046  10.474  0.8143 -0.2340  0.0937
 7242TIP3   OH245920   0.481   6.745  10.966 -0.2610  0.0824  0.0569
 7242TIP3    H145921   0.465   6.828  10.922 -1.7238  1.0122  2.1681
 7242TIP3    H245922   0.553   6.763  11.027  0.6243 -0.7285 -0.7062
 7243TIP3   OH245923   2.466   5.840  10.705  0.3178 -0.8632  0.3953
 7243TIP3    H145924   2.478   5.869  10.795  1.4651 -0.8327  0.2481
 7243TIP3    H245925   2.516   5.759  10.699  0.9627 -0.4203 -0.4312
 7244TIP3   OH245926   6.500   3.402  12.314  0.3299  1.0827 -0.3320
 7244TIP3    H145927   6.483   3.384  12.222  0.1604  2.7794 -0.6476
 7244TIP3    H245928   6.582   3.355  12.333 -0.9488 -1.4503 -0.6031
 7245TIP3   OH245929   3.676   1.097   9.887 -0.2083  0.2115 -0.3227
 7245TIP3    H145930   3.622   1.175   9.883 -2.1703 -0.9225  1.6436
 7245TIP3    H245931   3.614   1.024   9.893  1.5026 -1.2884  0.5349
 7246TIP3   OH245932   0.176   6.023  10.701 -0.1579 -0.4313 -0.4983
 7246TIP3    H145933   0.254   5.975  10.728  0.2116  0.7230  0.5437
 7246TIP3    H245934   0.201   6.115  10.707 -0.5201 -0.0420 -3.4095
 7247TIP3   OH245935   6.933   2.916  11.265  0.0827 -0.0620 -0.1121
 7247TIP3    H145936   6.992   2.933  11.339  0.4161 -0.2289 -0.3359
 7247TIP3    H245937   6.936   2.822  11.253 -0.1901 -0.0651 -0.1618
 7248TIP3   OH245938   0.046   0.523  10.185 -0.0798 -0.5349 -0.0133
 7248TIP3    H145939  -0.019   0.460  10.154 -0.3936  0.5542 -1.6947
 7248TIP3    H245940  -0.005   0.601  10.208  0.5259 -0.0561 -0.2700
 7249TIP3   OH245941   2.752   7.437  10.873 -0.4230  0.2679  0.3209
 7249TIP3    H145942   2.778   7.346  10.886 -0.5308  0.1943  0.0361
 7249TIP3    H245943   2.811   7.469  10.805 -2.1406 -0.4094 -1.5931
 7250TIP3   OH245944   0.639   4.250  11.914 -0.1293  0.1776 -0.3690
 7250TIP3    H145945   0.597   4.322  11.961 -2.3240 -0.8609 -0.6121
 7250TIP3    H245946   0.731   4.253  11.943 -0.6437  1.6958  1.2973
 7251TIP3   OH245947   3.180   4.139  11.591  0.1311 -0.4680 -0.0039
 7251TIP3    H145948   3.246   4.106  11.530 -0.9398 -0.1570 -1.3760
 7251TIP3    H245949   3.215   4.117  11.678  0.8073 -2.6447 -0.7520
 7252TIP3   OH245950   2.193   6.207  11.609  0.9574 -0.3476  0.6252
 7252TIP3    H145951   2.151   6.174  11.688  1.2279 -0.5516  0.6847
 7252TIP3    H245952   2.273   6.154  11.600  1.3360  0.2088  0.6582
 7253TIP3   OH245953   0.677   6.529  11.117  0.1134  0.2382  0.2027
 7253TIP3    H145954   0.714   6.481  11.043  0.6587  1.5276 -0.4011
 7253TIP3    H245955   0.588   6.496  11.125 -0.1453  0.4557 -1.3987
 7254TIP3   OH245956   4.958   5.520  11.246  0.2951 -0.5050  0.0905
 7254TIP3    H145957   4.993   5.520  11.157 -0.4111  0.9873 -0.2332
 7254TIP3    H245958   4.904   5.441  11.251 -0.6984  0.0475 -1.2778
 7255TIP3   OH245959   6.611   7.292  11.194  0.3868  0.1344  0.1825
 7255TIP3    H145960   6.537   7.244  11.156  0.2906  0.4690 -0.0624
 7255TIP3    H245961   6.666   7.225  11.234 -0.1042 -0.1026  0.4541
 7256TIP3   OH245962   6.269   1.557  11.491  0.6708 -0.2741  0.2933
 7256TIP3    H145963   6.259   1.597  11.405  0.8089 -1.8424 -0.4887
 7256TIP3    H245964   6.298   1.628  11.548 -0.0477  0.9284 -0.8069
 7257TIP3   OH245965   3.419   7.552  10.352  0.1418 -0.3589  0.0258
 7257TIP3    H145966   3.510   7.576  10.370  0.9613 -1.3737 -2.4028
 7257TIP3    H245967   3.381   7.536  10.439  2.2857  0.0107  1.0988
 7258TIP3   OH245968   0.566   0.945  10.947  0.3888 -0.3701 -0.2389
 7258TIP3    H145969   0.527   0.879  10.889  1.6621 -1.7246  0.4056
 7258TIP3    H245970   0.658   0.922  10.952  0.6784  0.8939  0.7888
 7259TIP3   OH245971   0.930   6.978  10.226  0.4282 -0.5210 -0.4918
 7259TIP3    H145972   1.006   7.023  10.190 -0.1408 -1.5973 -3.2498
 7259TIP3    H245973   0.894   6.928  10.153 -1.6848 -1.7623  1.2646
 7260TIP3   OH245974   3.801   0.120  11.078  0.1023 -0.7378 -0.2944
 7260TIP3    H145975   3.763   0.045  11.033  3.2348 -3.7763  1.5769
 7260TIP3    H245976   3.757   0.122  11.163 -0.2766 -0.1497 -0.5004
 7261TIP3   OH245977   4.313   3.170  12.232  0.1555  0.1408  0.2452
 7261TIP3    H145978   4.270   3.086  12.246 -1.5113  0.8017 -0.7197
 7261TIP3    H245979   4.325   3.176  12.137  0.7551  0.7614  0.3486
 7262TIP3   OH245980   2.797   1.116  12.360 -0.0144  0.0054 -0.3467
 7262TIP3    H145981   2.737   1.171  12.309 -0.7607 -0.7620 -0.3344
 7262TIP3    H245982   2.884   1.136  12.325 -0.3591  0.5713 -0.9110
 7263TIP3   OH245983   5.990   5.478  11.535 -0.0689 -0.1105  0.6086
 7263TIP3    H145984   6.025   5.442  11.454 -0.2221  2.5963 -0.7549
 7263TIP3    H245985   6.067   5.501  11.587  0.0292 -1.3372  1.0469
 7264TIP3   OH245986   6.945   1.099  11.270 -0.6453  0.3906  0.0241
 7264TIP3    H145987   7.002   1.025  11.250 -2.6498 -0.8585 -1.5339
 7264TIP3    H245988   6.988   1.174  11.231  0.7811 -0.1814  0.4513
 7265TIP3   OH245989   4.628   1.139  16.891  0.1872  0.4388 -0.0829
 7265TIP3    H145990   4.663   1.077  16.955  0.1676  1.1416  0.6199
 7265TIP3    H245991   4.705   1.188  16.861  0.5237 -1.1188 -2.0356
 7266TIP3   OH245992   0.414   6.067  11.874  0.2693 -0.0641  0.1277
 7266TIP3    H145993   0.471   6.035  11.804  0.6051 -1.7383  1.1161
 7266TIP3    H245994   0.459   6.142  11.910  1.4030 -0.7905  0.2633
 7267TIP3   OH245995   5.377   1.637  10.095  0.2332 -0.1163  0.4511
 7267TIP3    H145996   5.323   1.695  10.042 -0.7035 -0.0627  1.4288
 7267TIP3    H245997   5.387   1.683  10.179  0.6474 -0.7397  0.7548
 7268TIP3   OH245998   0.697   1.334  10.657 -0.0002 -0.6999 -0.5031
 7268TIP3    H145999   0.669   1.243  10.649  1.1326 -1.1780  0.5578
 7268TIP3    H246000   0.681   1.357  10.749 -0.9441  0.4241 -0.9218
 7269TIP3   OH246001   0.388   1.442  12.171  0.1331  0.3761 -0.7575
 7269TIP3    H146002   0.375   1.401  12.257  1.6434  0.8925 -0.2559
 7269TIP3    H246003   0.417   1.371  12.114  2.1570  0.5748 -0.0425
 7270TIP3   OH246004   7.509   6.161  11.705 -0.4599  0.0971  0.4148
 7270TIP3    H146005   7.428   6.171  11.756  0.0746  0.3824  1.2350
 7270TIP3    H246006   7.563   6.235  11.731  0.0869 -0.1151 -0.0889
 7271TIP3   OH246007   5.364   2.212  10.612  0.0392 -0.2335 -0.8480
 7271TIP3    H146008   5.432   2.234  10.548  0.6320 -1.4370 -0.6598
 7271TIP3    H246009   5.396   2.248  10.694  0.0209 -0.0286 -0.9294
 7272TIP3   OH246010   7.114   1.906  10.042  0.1747  0.5686  0.4136
 7272TIP3    H146011   7.081   1.974   9.983 -0.7307  0.8608  1.2271
 7272TIP3    H246012   7.208   1.904  10.025 -0.1583  0.0783 -1.5859
 7273TIP3   OH246013   3.929   0.560  11.704 -0.4653 -1.0246 -0.1766
 7273TIP3    H146014   3.918   0.604  11.788  0.6256 -0.6811 -0.1884
 7273TIP3    H246015   3.859   0.496  11.701 -0.1960 -1.4309  1.2539
 7274TIP3   OH246016   5.152   0.093  10.934  0.5568 -0.6182  0.5227
 7274TIP3    H146017   5.212   0.053  10.870  1.9632  1.3002  0.5561
 7274TIP3    H246018   5.085   0.136  10.881  0.2632 -1.1649  0.4377
 7275TIP3   OH246019   7.008   1.192  10.385 -0.6298  0.0908 -0.0656
 7275TIP3    H146020   7.002   1.284  10.359 -3.0087 -0.3848 -1.4651
 7275TIP3    H246021   7.041   1.147  10.307  0.2195 -0.3040  0.5093
 7276TIP3   OH246022   7.635   0.694  10.812 -0.3611  0.2897 -0.4444
 7276TIP3    H146023   7.726   0.724  10.819 -0.2619  0.0803 -0.8070
 7276TIP3    H246024   7.600   0.703  10.901  0.6361 -1.6054  0.1909
 7277TIP3   OH246025   4.278   5.159  11.260  0.4221 -0.2619  0.1389
 7277TIP3    H146026   4.318   5.225  11.317  1.3991 -1.5632  0.9895
 7277TIP3    H246027   4.345   5.140  11.195 -0.1813  0.1827 -0.6437
 7278TIP3   OH246028   2.107   3.323  11.022 -0.7837 -0.2395 -0.4729
 7278TIP3    H146029   2.177   3.370  11.069  0.0384 -2.1999  0.3905
 7278TIP3    H246030   2.100   3.369  10.939  0.7924  0.6949 -0.1492
 7279TIP3   OH246031   2.147   7.556  12.922  0.3310  0.1657 -0.6767
 7279TIP3    H146032   2.159   7.463  12.901  1.9219 -0.1819  1.4256
 7279TIP3    H246033   2.138   7.558  13.017 -2.2845  1.9874 -0.8585
 7280TIP3   OH246034   4.864   2.168  10.202 -0.7675  0.3509  0.1884
 7280TIP3    H146035   4.824   2.256  10.204 -0.8065  0.4034 -1.5206
 7280TIP3    H246036   4.837   2.132  10.118  2.7889  0.3707 -1.0849
 7281TIP3   OH246037   1.345   0.999  10.573  0.6179 -0.3458  0.0719
 7281TIP3    H146038   1.345   0.992  10.477  2.1174 -0.0763  0.0342
 7281TIP3    H246039   1.253   0.988  10.597  0.0334  0.6506 -1.4766
 7282TIP3   OH246040   1.259   7.342  11.199 -0.2991 -0.0999  0.0030
 7282TIP3    H146041   1.206   7.412  11.160  1.3924  1.2581  0.0617
 7282TIP3    H246042   1.329   7.326  11.136 -0.6269 -1.7552  0.0066
 7283TIP3   OH246043   5.517   3.308  10.799 -0.0760  0.1576 -0.3284
 7283TIP3    H146044   5.488   3.303  10.890  2.3404 -0.1219  0.5010
 7283TIP3    H246045   5.480   3.231  10.757  1.4269 -1.5248  1.2933
 7284TIP3   OH246046   4.676   5.824  12.539  0.1457  0.0456 -0.0323
 7284TIP3    H146047   4.768   5.840  12.556  0.1796  0.0082 -0.1772
 7284TIP3    H246048   4.649   5.896  12.481  0.5807 -1.0049 -1.6278
 7285TIP3   OH246049   4.454   1.742  10.266 -0.0713  0.3526  0.2870
 7285TIP3    H146050   4.382   1.792  10.304 -0.2368  0.0816  0.3324
 7285TIP3    H246051   4.517   1.732  10.337 -0.6588 -0.6905  0.6835
 7286TIP3   OH246052   3.099   0.558  11.307  0.5761 -0.6663  0.0258
 7286TIP3    H146053   3.021   0.527  11.355  1.8710 -1.3651  1.7832
 7286TIP3    H246054   3.087   0.524  11.219 -1.3021 -0.4166  0.1395
 7287TIP3   OH246055   1.973   7.211  11.440 -0.2008 -0.5791 -0.8321
 7287TIP3    H146056   1.913   7.285  11.431  0.5576  0.0790 -0.5216
 7287TIP3    H246057   2.047   7.232  11.383  1.4989  0.4402  1.5913
 7288TIP3   OH246058   2.431   6.352  10.973  0.2411  0.3107 -0.1992
 7288TIP3    H146059   2.378   6.416  11.021 -0.8436  0.8044 -1.9572
 7288TIP3    H246060   2.521   6.381  10.987 -0.1020  0.9662  0.7626
 7289TIP3   OH246061   6.932   6.482  10.902  0.8401 -0.4861 -0.4449
 7289TIP3    H146062   7.020   6.461  10.934  0.8700  0.3470  0.0516
 7289TIP3    H246063   6.933   6.577  10.892 -0.0553 -0.4545 -0.2847
 7290TIP3   OH246064   5.490   5.840  10.848  0.0006  0.0365  0.2494
 7290TIP3    H146065   5.548   5.911  10.877 -0.6533  1.4352 -1.6645
 7290TIP3    H246066   5.514   5.826  10.756  0.4272 -2.5928  0.6948
 7291TIP3   OH246067   4.430   2.141  11.110  0.2335  0.3064 -0.1375
 7291TIP3    H146068   4.467   2.107  11.192  0.5089  1.0135  0.0359
 7291TIP3    H246069   4.503   2.141  11.049  0.5653  1.8103  0.2369
 7292TIP3   OH246070   2.733   3.243  11.173 -0.2303  0.0765  0.0737
 7292TIP3    H146071   2.820   3.273  11.149 -0.4554  1.4999  0.8877
 7292TIP3    H246072   2.747   3.167  11.229  0.4710  0.0853 -0.0889
 7293TIP3   OH246073   4.507   2.717  12.180 -0.0494 -0.2125 -0.5820
 7293TIP3    H146074   4.564   2.641  12.189  0.2590  0.0561 -0.2429
 7293TIP3    H246075   4.422   2.681  12.154  0.2986 -0.6102 -1.1991
 7294TIP3   OH246076   2.609   3.391  12.240  0.2157 -0.3492 -0.1398
 7294TIP3    H146077   2.675   3.424  12.302 -0.5046 -0.3670  0.6492
 7294TIP3    H246078   2.588   3.304  12.272 -1.6987  0.4308  0.8403
 7295TIP3   OH246079   3.950   2.862  12.614  0.6903  0.3295  0.4117
 7295TIP3    H146080   4.003   2.896  12.686  0.3504 -0.0190  0.8312
 7295TIP3    H246081   3.945   2.768  12.630 -0.3788  0.4053  0.6052
 7296TIP3   OH246082   5.551   7.059  11.949 -0.0331  0.5751  0.3385
 7296TIP3    H146083   5.481   7.084  11.889 -0.5245  1.9699  1.4494
 7296TIP3    H246084   5.520   7.085  12.035  0.8326 -1.0185  1.1902
 7297TIP3   OH246085   1.523   2.591  10.521 -0.4348  0.4465 -0.1837
 7297TIP3    H146086   1.593   2.534  10.552 -0.5041  0.1446 -0.5610
 7297TIP3    H246087   1.496   2.552  10.437 -3.0398 -1.1784  1.2618
 7298TIP3   OH246088   6.224   6.525  11.035 -0.0970 -0.0823 -0.0615
 7298TIP3    H146089   6.177   6.533  11.118 -1.3327  0.1393 -0.7627
 7298TIP3    H246090   6.268   6.609  11.025  0.9930 -0.4970  0.8812
 7299TIP3   OH246091   5.591   3.830  11.689  0.4917  0.7708  0.0067
 7299TIP3    H146092   5.633   3.915  11.676  0.4398  0.7413 -0.3657
 7299TIP3    H246093   5.548   3.811  11.605  0.3988  0.4360  0.1273
 7300TIP3   OH246094   1.850   6.910  10.644 -0.0094  0.0692  0.1102
 7300TIP3    H146095   1.785   6.839  10.644  0.4864 -0.4856 -2.2226
 7300TIP3    H246096   1.934   6.865  10.631  0.3829  1.0134 -0.7781
 7301TIP3   OH246097   2.230   7.206  10.855 -0.4326  0.1363  0.5853
 7301TIP3    H146098   2.246   7.114  10.834  0.1603 -0.1382  2.1244
 7301TIP3    H246099   2.172   7.236  10.785  0.5173 -0.9981 -0.7633
 7302TIP3   OH246100   0.746   6.140  12.653 -0.6252  0.2781  0.0792
 7302TIP3    H146101   0.662   6.146  12.700 -1.0277 -3.3894  0.0603
 7302TIP3    H246102   0.801   6.086  12.709  1.4372  1.7590 -0.4124
 7303TIP3   OH246103   6.654   6.515  12.176 -0.7175 -0.0923  0.0419
 7303TIP3    H146104   6.675   6.563  12.095 -2.5585 -0.8950 -0.9881
 7303TIP3    H246105   6.572   6.555  12.207  0.0383  0.2972  1.6269
 7304TIP3   OH246106   1.508   7.609  11.511  0.1517 -0.0953  0.1938
 7304TIP3    H146107   1.499   7.525  11.556 -0.0704 -0.1350  0.0825
 7304TIP3    H246108   1.572   7.658  11.562 -0.2904 -0.0390  0.7007
 7305TIP3   OH246109   4.988   3.996  10.499  0.0001 -0.0183 -0.4115
 7305TIP3    H146110   4.943   3.938  10.438  0.9096  0.5598 -1.6821
 7305TIP3    H246111   4.951   4.083  10.482 -0.9749 -0.1028  1.1025
 7306TIP3   OH246112   2.614   5.616  10.641  0.0939  0.0204 -0.1461
 7306TIP3    H146113   2.699   5.631  10.599  0.4033 -0.5932  0.2537
 7306TIP3    H246114   2.553   5.603  10.568  0.4222  0.0337 -0.4250
 7307TIP3   OH246115   3.666   7.631  10.450  0.8002 -0.3230  0.1078
 7307TIP3    H146116   3.675   7.726  10.445 -0.5128 -0.2302 -1.5458
 7307TIP3    H246117   3.743   7.597  10.403  2.2251 -0.1901  2.2127
 7308TIP3   OH246118   1.554   7.016  12.880 -0.0024  0.0969  0.6861
 7308TIP3    H146119   1.612   6.976  12.946 -0.2087 -1.9972 -0.3309
 7308TIP3    H246120   1.611   7.030  12.804 -0.5351 -0.9628  0.0611
 7309TIP3   OH246121   2.381   7.183  11.863 -0.0184  0.3275  0.2178
 7309TIP3    H146122   2.334   7.222  11.788 -0.2698  1.2065  0.8142
 7309TIP3    H246123   2.451   7.132  11.823 -0.5953  0.1864 -0.6460
 7310TIP3   OH246124   0.622   2.571  10.700 -0.1248  0.0142 -0.1158
 7310TIP3    H146125   0.568   2.500  10.735  0.4649  0.1558  1.1115
 7310TIP3    H246126   0.652   2.619  10.777 -0.7593  1.7906 -0.9205
 7311TIP3   OH246127   4.628   7.664  11.372 -0.1867 -0.8547 -0.3128
 7311TIP3    H146128   4.619   7.621  11.457 -1.8803  1.0386  0.5545
 7311TIP3    H246129   4.695   7.731  11.385  0.0969 -1.0600 -0.6977
 7312TIP3   OH246130   3.456   3.104  10.771  0.2802 -0.1487 -0.0754
 7312TIP3    H146131   3.414   3.163  10.708  0.8689  0.9642  0.5398
 7312TIP3    H246132   3.538   3.079  10.729  0.0833 -0.4469 -0.2878
 7313TIP3   OH246133   0.678   1.795  12.166 -0.0283  0.6741  0.0780
 7313TIP3    H146134   0.591   1.757  12.170  0.8830 -1.4978  1.2877
 7313TIP3    H246135   0.676   1.867  12.230 -1.1278  1.1922 -0.5171
 7314TIP3   OH246136   5.319   4.984  12.085 -0.4597 -0.6757  0.1226
 7314TIP3    H146137   5.414   4.988  12.094 -0.4836 -0.6363  0.3566
 7314TIP3    H246138   5.304   4.973  11.991 -0.3429  2.5271 -0.3770
 7315TIP3   OH246139   4.570   2.044  10.886  0.0939  0.9569  0.0151
 7315TIP3    H146140   4.582   2.109  10.817  0.4458  0.5220 -0.3443
 7315TIP3    H246141   4.647   2.053  10.942  0.5614  0.3091 -0.4988
 7316TIP3   OH246142   0.547   2.176  12.214  0.4976  0.4897  0.0753
 7316TIP3    H146143   0.513   2.093  12.248  0.3337  0.6835  0.3899
 7316TIP3    H246144   0.507   2.242  12.269 -0.4468  0.8672 -1.0114
 7317TIP3   OH246145   1.480   0.722  10.817  0.1470 -0.0043 -0.0876
 7317TIP3    H146146   1.535   0.785  10.770  1.5306 -0.1420  1.2665
 7317TIP3    H246147   1.401   0.771  10.840  1.1354  1.2239  0.8130
 7318TIP3   OH246148   7.530   4.742  11.800 -0.1766  0.0240 -0.3999
 7318TIP3    H146149   7.441   4.754  11.833  0.1724 -1.7727  1.4062
 7318TIP3    H246150   7.576   4.822  11.827 -0.5369 -0.3177  1.3282
 7319TIP3   OH246151   4.829   5.298  11.241  0.3197 -0.0328  0.4129
 7319TIP3    H146152   4.772   5.304  11.317 -0.2806  0.5724 -0.0729
 7319TIP3    H246153   4.832   5.205  11.219 -2.6985  0.1312 -1.1784
 7320TIP3   OH246154   2.523   0.335  11.290 -0.0926  0.0667  0.1505
 7320TIP3    H146155   2.474   0.367  11.214  0.6383  0.5945 -0.1079
 7320TIP3    H246156   2.579   0.265  11.254 -1.5258 -1.4141  0.6673
 7321TIP3   OH246157   0.305   6.670  11.424  0.0344 -0.0545 -0.6689
 7321TIP3    H146158   0.268   6.755  11.444  0.4692 -0.1726  0.7168
 7321TIP3    H246159   0.394   6.674  11.459 -0.7133 -1.8971  1.6583
 7322TIP3   OH246160   4.032   4.396  12.343  0.3680  0.2962  0.0527
 7322TIP3    H146161   4.111   4.424  12.390  1.2750  0.9397 -1.7321
 7322TIP3    H246162   3.960   4.442  12.387  1.0690  0.2900  1.2417
 7323TIP3   OH246163   1.079   5.143  10.311 -0.2524 -0.8764  0.3235
 7323TIP3    H146164   1.077   5.156  10.406 -3.4566 -1.1398  0.3752
 7323TIP3    H246165   1.063   5.230  10.275  0.2454 -0.9084  0.0188
 7324TIP3   OH246166   5.755   6.322  11.861 -0.3729 -0.2294  0.1836
 7324TIP3    H146167   5.708   6.382  11.804 -0.2977  0.3482  0.7148
 7324TIP3    H246168   5.746   6.360  11.948  0.3133 -0.5961  0.4212
 7325TIP3   OH246169   2.194   5.534  12.265  0.4740 -0.7765  0.1306
 7325TIP3    H146170   2.254   5.460  12.270  0.9902 -0.4422 -0.8816
 7325TIP3    H246171   2.246   5.609  12.295  0.3968 -0.5785 -0.2341
 7326TIP3   OH246172   3.509   6.134   9.865  0.4101  0.2300 -0.3204
 7326TIP3    H146173   3.499   6.045   9.832  1.2099 -0.3889  1.0183
 7326TIP3    H246174   3.421   6.173   9.858 -0.1413 -0.9476 -0.1538
 7327TIP3   OH246175   1.219   1.292  11.146  1.1952 -0.4584  0.8785
 7327TIP3    H146176   1.241   1.377  11.108 -0.0215 -0.5491 -0.0833
 7327TIP3    H246177   1.226   1.306  11.240 -2.3992  1.7871  0.9774
 7328TIP3   OH246178   1.834   4.719  10.000 -0.2895  0.3513  0.0758
 7328TIP3    H146179   1.830   4.814   9.988  2.3008  0.4492 -0.6557
 7328TIP3    H246180   1.890   4.706  10.076 -0.5369 -0.5933  0.1138
 7329TIP3   OH246181   5.508   0.795  10.248  0.0853 -0.5919  0.0320
 7329TIP3    H146182   5.524   0.872  10.193 -0.5919 -1.8904 -2.1565
 7329TIP3    H246183   5.432   0.819  10.300 -0.3074  0.1473 -0.8350
 7330TIP3   OH246184   3.011   3.345  10.208 -0.6733  0.0576 -0.2037
 7330TIP3    H146185   3.063   3.369  10.285  1.7374 -2.2264 -0.9933
 7330TIP3    H246186   2.922   3.375  10.229  0.1571  0.7148  2.8678
 7331TIP3   OH246187   3.050   6.606  12.535 -0.2347  0.6158  0.1120
 7331TIP3    H146188   3.086   6.605  12.624 -2.2182  1.8093  0.9919
 7331TIP3    H246189   3.012   6.519  12.524  2.4219 -0.5123 -0.6770
 7332TIP3   OH246190   4.898   2.538  12.275  0.7721 -0.1785 -0.0135
 7332TIP3    H146191   4.907   2.446  12.300 -0.8993 -0.5741 -0.7178
 7332TIP3    H246192   4.804   2.556  12.282  1.1240  1.6429  0.6212
 7333TIP3   OH246193   1.295   1.446  11.702  0.1866 -0.5003 -0.3327
 7333TIP3    H146194   1.226   1.398  11.749 -0.4137 -0.3068 -0.9982
 7333TIP3    H246195   1.376   1.402  11.727 -0.2581 -1.2564 -0.1795
 7334TIP3   OH246196   5.173   7.646  11.363  0.4885  0.2402  0.1210
 7334TIP3    H146197   5.117   7.689  11.299 -0.7224 -0.8365  0.4058
 7334TIP3    H246198   5.144   7.555  11.363  1.3410 -0.0588  1.2682
 7335TIP3   OH246199   1.822   3.636  10.034 -0.4928  0.1555 -0.1902
 7335TIP3    H146200   1.874   3.565  10.071 -2.0729 -1.2191 -0.4801
 7335TIP3    H246201   1.756   3.592   9.979 -0.1454  1.9487 -2.1918
 7336TIP3   OH246202   4.230   0.562   9.964 -0.0996 -0.1217 -0.0964
 7336TIP3    H146203   4.147   0.608   9.975 -1.1468 -1.7703 -0.6990
 7336TIP3    H246204   4.293   0.630   9.940 -1.1443  1.2397  0.8729
 7337TIP3   OH246205   3.106   4.654  10.367  0.4377 -0.0372  0.0870
 7337TIP3    H146206   3.090   4.735  10.415  1.1005 -0.2849  0.7587
 7337TIP3    H246207   3.201   4.643  10.369  0.3326 -1.0662  0.4175
 7338TIP3   OH246208   5.386   0.370  11.535  0.0122  0.1683  0.8826
 7338TIP3    H146209   5.391   0.461  11.507 -0.3800 -0.3242 -0.9495
 7338TIP3    H246210   5.477   0.339  11.530 -0.2180 -0.3680 -1.7469
 7339TIP3   OH246211   1.186   2.102  10.955 -0.0431  0.6513 -0.0101
 7339TIP3    H146212   1.269   2.109  10.907  0.3260  2.7165  0.8242
 7339TIP3    H246213   1.200   2.151  11.035 -1.7034 -0.0021  0.7372
 7340TIP3   OH246214   5.493   6.633  11.314  0.2057 -0.1247  0.5323
 7340TIP3    H146215   5.413   6.680  11.336  1.2426  1.6327  0.7374
 7340TIP3    H246216   5.503   6.644  11.220 -0.2296 -1.0990  0.3601
 7341TIP3   OH246217   1.300   1.213  10.819 -0.6349 -0.2590  0.2082
 7341TIP3    H146218   1.237   1.261  10.765  0.0274  0.3732 -0.0213
 7341TIP3    H246219   1.385   1.243  10.787 -0.2242 -0.8702  0.7260
 7342TIP3   OH246220   4.484   6.471  12.596  0.1807  1.0164  0.3571
 7342TIP3    H146221   4.531   6.502  12.519 -2.2268 -1.6375 -2.4718
 7342TIP3    H246222   4.542   6.407  12.637 -0.1775 -1.0911 -2.1778
 7343TIP3   OH246223   4.263   7.646  10.940  0.2813 -0.6303 -0.3545
 7343TIP3    H146224   4.184   7.649  10.885  0.5874 -0.4900 -0.7983
 7343TIP3    H246225   4.232   7.665  11.028 -0.2326 -0.9286 -0.4679
 7344TIP3   OH246226   5.186   0.119  10.598 -0.2478 -0.2504 -0.0121
 7344TIP3    H146227   5.197   0.203  10.643 -1.2079  0.4777 -1.0890
 7344TIP3    H246228   5.174   0.142  10.506  3.8875 -1.8049 -1.1602
 7345TIP3   OH246229   2.549   3.766  11.091  0.0932 -0.4065  0.5274
 7345TIP3    H146230   2.571   3.679  11.124  2.6790 -0.3995 -0.8886
 7345TIP3    H246231   2.584   3.768  11.002 -1.6341  1.4562 -0.1910
 7346TIP3   OH246232   6.110   4.257  11.161  0.0672  0.2907 -0.1565
 7346TIP3    H146233   6.038   4.226  11.216 -0.6012  0.6191 -0.8411
 7346TIP3    H246234   6.069   4.281  11.078  0.9491  0.5878 -0.5172
 7347TIP3   OH246235   0.009   2.771  11.406 -0.1808 -0.3298  0.7166
 7347TIP3    H146236   0.045   2.848  11.449 -0.1576  0.7635 -1.1607
 7347TIP3    H246237   0.080   2.739  11.350 -0.6529 -0.8598  0.4119
 7348TIP3   OH246238   6.389   5.612   9.906 -0.1978  0.7094 -0.1837
 7348TIP3    H146239   6.379   5.672   9.832 -0.4346  0.9455  0.0380
 7348TIP3    H246240   6.310   5.626   9.959 -0.7909 -0.5724 -0.6891
 7349TIP3   OH246241   6.827   5.822  10.742 -0.0287  0.2984 -0.0483
 7349TIP3    H146242   6.881   5.869  10.806 -0.9286  0.4039  0.6587
 7349TIP3    H246243   6.889   5.770  10.692  0.6654 -0.0411  1.1302
 7350TIP3   OH246244   3.375   3.343  12.191  0.2245  0.2656  0.0310
 7350TIP3    H146245   3.412   3.416  12.241  1.0242 -0.0455 -0.0860
 7350TIP3    H246246   3.425   3.267  12.221 -1.5764 -0.5154  1.2520
 7351TIP3   OH246247   4.947   2.451   9.619 -0.4098 -0.1661  0.0440
 7351TIP3    H146248   4.907   2.476   9.702 -1.8200 -0.6651 -0.4576
 7351TIP3    H246249   4.924   2.521   9.559 -1.3874 -0.9268 -0.4926
 7352TIP3   OH246250   5.408   3.652  11.996  0.0604  0.0769 -0.1791
 7352TIP3    H146251   5.362   3.724  12.039 -0.0276 -0.6688  1.0342
 7352TIP3    H246252   5.396   3.578  12.056  0.9692 -0.6929 -0.9298
 7353TIP3   OH246253   5.008   4.173  10.000  0.5210 -0.3095  0.8025
 7353TIP3    H146254   5.031   4.092  10.045  1.0401 -0.3389  0.4959
 7353TIP3    H246255   5.090   4.201   9.959  0.0907 -0.1931  0.0130
 7354TIP3   OH246256   1.718   0.139  11.883 -0.4967 -0.0778 -0.0075
 7354TIP3    H146257   1.622   0.143  11.891 -0.3341  0.1851  2.3735
 7354TIP3    H246258   1.746   0.231  11.884  0.0166 -0.0853  4.5008
 7355TIP3   OH246259   3.847   0.521  11.306  0.2060 -0.0825  0.0586
 7355TIP3    H146260   3.844   0.612  11.336 -1.3195 -0.3052  0.6878
 7355TIP3    H246261   3.859   0.527  11.211  3.1772  0.6841  0.4003
 7356TIP3   OH246262   5.977   7.452   9.835  0.3447 -0.1892 -0.3060
 7356TIP3    H146263   5.935   7.530   9.872 -0.2582 -1.2666  1.4106
 7356TIP3    H246264   6.066   7.454   9.871  0.4686 -0.0770 -0.6139
 7357TIP3   OH246265   0.858   3.358  10.962 -0.0230 -0.1361  0.1923
 7357TIP3    H146266   0.798   3.426  10.992  0.5800 -0.0642  1.2762
 7357TIP3    H246267   0.876   3.306  11.040  0.0434 -1.1437 -0.4832
 7358TIP3   OH246268   5.974   3.819  11.994 -0.0214  0.1947 -0.3414
 7358TIP3    H146269   5.933   3.753  11.938 -0.1387  0.3291 -0.4162
 7358TIP3    H246270   5.904   3.846  12.054  0.3999 -0.7355  0.5937
 7359TIP3   OH246271   7.170   0.557  10.234  0.7228 -0.5140 -0.2575
 7359TIP3    H146272   7.203   0.488  10.176 -1.3163 -0.9861 -0.9187
 7359TIP3    H246273   7.144   0.627  10.175 -0.5450 -0.6335  0.1433
 7360TIP3   OH246274   1.872   4.250  10.688  0.1855 -0.0045 -0.2770
 7360TIP3    H146275   1.948   4.305  10.703 -0.2123  0.3970  0.3218
 7360TIP3    H246276   1.908   4.167  10.656  1.0085 -0.3809  1.4853
 7361TIP3   OH246277   1.964   0.935  10.617 -0.0837  0.3254 -0.2487
 7361TIP3    H146278   2.028   0.922  10.546  1.4187 -1.5312  1.3302
 7361TIP3    H246279   2.011   0.989  10.681  0.0016 -1.1527  0.9836
 7362TIP3   OH246280   7.278   3.961  11.097 -0.0473 -0.2286  0.7300
 7362TIP3    H146281   7.305   4.051  11.116  0.1616 -0.2372  0.4774
 7362TIP3    H246282   7.205   3.971  11.036  0.2526 -0.2375  0.3614
 7363TIP3   OH246283   6.791   7.427  11.073 -0.5172 -0.6001 -0.2762
 7363TIP3    H146284   6.722   7.366  11.099  0.6984 -1.1840  1.8162
 7363TIP3    H246285   6.843   7.440  11.152  1.5239  0.1666 -1.6488
 7364TIP3   OH246286   1.061   2.936  10.321 -0.1696  0.2831 -0.2086
 7364TIP3    H146287   1.040   3.016  10.273 -1.2294 -0.4885 -1.0913
 7364TIP3    H246288   1.001   2.937  10.396 -0.1678  0.3336 -0.2075
 7365TIP3   OH246289   1.352   3.236  12.510  0.7402 -0.3561 -0.3695
 7365TIP3    H146290   1.353   3.308  12.447 -2.3151  2.4323  2.3749
 7365TIP3    H246291   1.260   3.211  12.516  0.8626 -0.4879  2.8524
 7366TIP3   OH246292   0.624   4.431  10.934  0.5253 -0.2976  0.4095
 7366TIP3    H146293   0.557   4.406  10.998 -0.3536 -0.2087 -0.4588
 7366TIP3    H246294   0.590   4.401  10.850  0.8419  1.1326 -0.2588
 7367TIP3   OH246295   7.377   7.640  10.044  0.2305 -0.5371 -0.3358
 7367TIP3    H146296   7.365   7.594  10.126  0.1570  0.4397  0.2203
 7367TIP3    H246297   7.380   7.571   9.977 -1.6361 -1.2449  0.2606
 7368TIP3   OH246298   6.693   7.252  12.221 -0.3248  0.7879  0.2154
 7368TIP3    H146299   6.623   7.283  12.278 -0.6817  0.0271  0.2102
 7368TIP3    H246300   6.773   7.267  12.271 -0.4642  1.8368  0.1424
 7369TIP3   OH246301   5.929   7.397  11.947 -0.1658 -0.4936  0.0364
 7369TIP3    H146302   5.894   7.476  11.987 -0.6669 -1.3245  1.2746
 7369TIP3    H246303   5.867   7.375  11.878  1.7557  2.1178 -2.7914
 7370TIP3   OH246304   0.720   0.305  10.802 -0.6924 -0.0210  0.0649
 7370TIP3    H146305   0.633   0.345  10.795 -0.9309 -0.1963  1.6013
 7370TIP3    H246306   0.779   0.378  10.821 -0.2683  0.2642 -2.0332
 7371TIP3   OH246307   0.647   6.286   9.966 -0.1410  0.5727  0.0824
 7371TIP3    H146308   0.590   6.227   9.916  2.9561 -0.2706 -2.8068
 7371TIP3    H246309   0.610   6.373   9.951 -0.4613  0.1227 -2.1838
 7372TIP3   OH246310   1.393   2.555  10.261  0.2589 -0.4257  0.4882
 7372TIP3    H146311   1.307   2.513  10.259  0.4899 -0.9006 -0.5617
 7372TIP3    H246312   1.455   2.482  10.260  0.6809 -0.0911  1.3816
 7373TIP3   OH246313   2.011   4.031  12.380  0.1010 -0.4325  0.4711
 7373TIP3    H146314   1.972   4.118  12.389  0.7864  0.1399 -1.5514
 7373TIP3    H246315   2.084   4.032  12.442  0.3856  0.6224  0.1478
 7374TIP3   OH246316   1.173   2.364  11.377 -0.6493 -0.2835 -0.1316
 7374TIP3    H146317   1.154   2.386  11.286 -1.4887  0.5823  0.2289
 7374TIP3    H246318   1.089   2.373  11.422  0.1725  1.7159  1.1777
 7375TIP3   OH246319   4.235   6.594  10.737 -0.5250  0.4246  0.2024
 7375TIP3    H146320   4.190   6.652  10.676  0.7468  0.0833 -1.1216
 7375TIP3    H246321   4.299   6.547  10.683  3.1902  2.6109  2.2285
 7376TIP3   OH246322   4.592   4.750  12.256 -0.2150  0.4552  0.4391
 7376TIP3    H146323   4.503   4.721  12.278 -0.0144  0.6708  1.5941
 7376TIP3    H246324   4.580   4.833  12.211 -0.6935 -0.4893 -1.3028
 7377TIP3   OH246325   0.798   5.953  10.772  0.7305 -0.2919 -0.3101
 7377TIP3    H146326   0.728   5.974  10.710 -0.7691 -0.3468  1.3043
 7377TIP3    H246327   0.801   5.857  10.773  0.2991 -0.3015  0.1862
 7378TIP3   OH246328   6.261   7.102  10.780 -0.1531 -0.3760 -0.2217
 7378TIP3    H146329   6.244   7.108  10.686 -0.8385  0.0191 -0.0754
 7378TIP3    H246330   6.214   7.023  10.808 -1.1977  0.3327  0.0560
 7379TIP3   OH246331   5.698   0.751  11.400  0.5624 -0.2877 -0.2749
 7379TIP3    H146332   5.735   0.755  11.488 -0.1489 -1.8861  0.1223
 7379TIP3    H246333   5.763   0.703  11.349  0.9256  0.5472 -0.6263
 7380TIP3   OH246334   4.866   7.247  10.006  0.2933 -0.4769 -0.3501
 7380TIP3    H146335   4.903   7.327  10.041  2.4127 -2.1520  1.5440
 7380TIP3    H246336   4.782   7.237  10.052  0.2151  0.4223 -0.2850
 7381TIP3   OH246337   1.046   1.961  11.844  0.1125 -0.0992  0.3842
 7381TIP3    H146338   1.006   1.911  11.773  0.8641  0.9724 -0.8319
 7381TIP3    H246339   1.008   1.924  11.924 -0.7048 -1.3722 -0.5610
 7382TIP3   OH246340   3.813   2.865  10.112 -0.4361  0.3293 -0.1583
 7382TIP3    H146341   3.724   2.835  10.091 -0.8115  0.9035  0.5549
 7382TIP3    H246342   3.824   2.844  10.205  0.3837 -0.2282 -0.3706
 7383TIP3   OH246343   1.411   3.862  10.060  0.1153 -0.0084 -0.0136
 7383TIP3    H146344   1.346   3.927  10.033 -0.0650  0.0844  0.6468
 7383TIP3    H246345   1.487   3.881  10.005 -0.4699 -0.2337 -0.9242
 7384TIP3   OH246346   6.477   0.265  12.407  0.1781  0.1129 -0.8570
 7384TIP3    H146347   6.442   0.176  12.411 -1.1341  0.5311 -1.9850
 7384TIP3    H246348   6.496   0.287  12.498 -0.9171 -0.7924 -0.3743
 7385TIP3   OH246349   1.208   1.364  11.421 -0.2218  0.1759  0.9300
 7385TIP3    H146350   1.302   1.362  11.440  0.0886  0.8496 -0.3725
 7385TIP3    H246351   1.168   1.399  11.500  0.6122 -0.1926  1.5290
 7386TIP3   OH246352   4.187   5.393  10.223 -0.2232 -0.1990 -0.5442
 7386TIP3    H146353   4.186   5.317  10.164  0.4793 -0.2262 -0.5324
 7386TIP3    H246354   4.276   5.394  10.258 -0.8919 -0.7705  1.2765
 7387TIP3   OH246355   6.304   3.260  12.498 -0.2984 -0.1076 -0.4263
 7387TIP3    H146356   6.228   3.240  12.443  0.4943 -3.2250 -0.5961
 7387TIP3    H246357   6.363   3.309  12.441 -1.5520  1.1030 -0.7295
 7388TIP3   OH246358   0.302   2.626  10.980  0.1193 -0.1818 -0.3698
 7388TIP3    H146359   0.309   2.602  10.888 -0.9948 -0.4557 -0.3984
 7388TIP3    H246360   0.219   2.588  11.009 -0.7770  1.9726  0.0917
 7389TIP3   OH246361   3.699   3.619  11.040  0.0729 -0.2579 -0.1923
 7389TIP3    H146362   3.761   3.687  11.067  0.9038 -0.6295 -1.0909
 7389TIP3    H246363   3.737   3.584  10.959 -1.8143  0.1932 -1.3246
 7390TIP3   OH246364   3.973   5.170  10.949 -0.1727  0.3010 -0.3069
 7390TIP3    H146365   3.967   5.076  10.936  2.0129 -0.0088  0.5755
 7390TIP3    H246366   4.030   5.200  10.878  0.9395  0.6155  0.7130
 7391TIP3   OH246367   4.708   1.480  10.853  0.8449  0.5359  0.7105
 7391TIP3    H146368   4.626   1.447  10.816  1.8608 -1.8089  0.3855
 7391TIP3    H246369   4.703   1.575  10.842 -1.1392  0.3205 -0.7039
 7392TIP3   OH246370   0.226   0.820  10.494  0.4155  0.0912 -0.2272
 7392TIP3    H146371   0.226   0.824  10.398  0.0650 -0.1204 -0.2376
 7392TIP3    H246372   0.134   0.831  10.518  0.2928 -1.3415  0.0178
 7393TIP3   OH246373   7.516   0.970  11.596 -0.4793  0.2869 -0.1450
 7393TIP3    H146374   7.476   0.971  11.684  0.2365 -3.6378  0.4059
 7393TIP3    H246375   7.581   1.040  11.599 -1.5355  1.3003  1.8681
 7394TIP3   OH246376   0.813   0.066  11.289  0.2581 -0.8008  0.1828
 7394TIP3    H146377   0.851   0.070  11.376 -1.0984 -0.5635  0.7887
 7394TIP3    H246378   0.790   0.157  11.269 -2.0163 -1.2015  0.7851
 7395TIP3   OH246379   5.270   2.590   9.877  0.1922  0.3733  0.3538
 7395TIP3    H146380   5.193   2.635   9.912 -0.9759 -3.4047  3.3026
 7395TIP3    H246381   5.341   2.653   9.889 -1.5259  2.0500  2.7936
 7396TIP3   OH246382   1.993   3.839  11.729 -0.1828  0.0987  0.2097
 7396TIP3    H146383   2.058   3.910  11.729 -1.5318  1.4275 -1.3005
 7396TIP3    H246384   2.004   3.797  11.644 -1.6441  0.7325 -0.3244
 7397TIP3   OH246385   2.546   6.938  12.296  0.3604 -0.0616 -0.0023
 7397TIP3    H146386   2.526   7.018  12.345  1.4037 -0.8192  1.7723
 7397TIP3    H246387   2.504   6.950  12.211 -1.2539  1.4686  0.9597
 7398TIP3   OH246388   5.645   0.949  10.033 -0.3018 -0.5470  0.3868
 7398TIP3    H146389   5.551   0.953  10.013 -0.0153  1.8479 -0.9263
 7398TIP3    H246390   5.687   0.945   9.947  0.8297 -3.1893  0.9925
 7399TIP3   OH246391   3.558   5.791  11.960  0.4825 -0.1416  0.2951
 7399TIP3    H146392   3.620   5.863  11.949 -2.1039  2.3284  0.7130
 7399TIP3    H246393   3.497   5.801  11.886  0.4149 -2.3630 -0.0075
 7400TIP3   OH246394   6.279   4.392  12.189  0.3390 -0.3341  0.1177
 7400TIP3    H146395   6.368   4.408  12.157  0.0846  1.4939  0.2262
 7400TIP3    H246396   6.224   4.453  12.140 -0.7291 -0.8154  0.6851
 7401TIP3   OH246397   4.500   6.831  10.434  0.3159  0.3469  0.7993
 7401TIP3    H146398   4.504   6.922  10.403  0.8798  0.7194  1.8832
 7401TIP3    H246399   4.555   6.831  10.513 -0.6445 -0.6461  1.4989
 7402TIP3   OH246400   5.876   3.460  10.302  0.1082 -0.0792  0.3680
 7402TIP3    H146401   5.789   3.499  10.312 -0.2323 -0.6468 -0.2646
 7402TIP3    H246402   5.882   3.440  10.208  1.0196  0.1764  0.3676
 7403TIP3   OH246403   3.515   4.698   9.803 -0.3057  0.2227  0.1159
 7403TIP3    H146404   3.509   4.789   9.830  1.7659  0.0519  1.4304
 7403TIP3    H246405   3.601   4.691   9.761 -0.5210 -1.0676 -0.1689
 7404TIP3   OH246406   2.725   1.741   9.948  0.1140 -0.0706 -0.2236
 7404TIP3    H146407   2.769   1.795  10.014 -0.0324 -0.1857 -0.0295
 7404TIP3    H246408   2.734   1.651   9.981  0.6398 -0.2041 -0.7087
 7405TIP3   OH246409   6.836   0.579  12.139  0.2104 -0.1380 -0.2352
 7405TIP3    H146410   6.757   0.525  12.145  0.7163 -0.6707  3.3753
 7405TIP3    H246411   6.883   0.543  12.064 -2.3042 -0.6489 -1.6929
 7406TIP3   OH246412   2.902   6.519  12.797 -0.5297  0.4380 -0.4046
 7406TIP3    H146413   2.880   6.434  12.758  0.3202 -0.2121  0.5059
 7406TIP3    H246414   2.997   6.516  12.808 -0.6796  0.8258  1.1813
 7407TIP3   OH246415   1.526   1.401  10.445  0.1595  0.0035 -0.0631
 7407TIP3    H146416   1.436   1.377  10.420  0.1833  0.2936 -0.4476
 7407TIP3    H246417   1.530   1.495  10.430  0.7392 -0.1200 -0.7228
 7408TIP3   OH246418   3.130   4.528  10.947  0.0827 -0.3982  0.0833
 7408TIP3    H146419   3.056   4.508  11.004 -0.1145 -2.8978 -0.8879
 7408TIP3    H246420   3.112   4.616  10.913 -2.9325 -1.2240 -0.7708
 7409TIP3   OH246421   7.026   5.548  10.220 -0.4231  0.0996  0.1030
 7409TIP3    H146422   7.027   5.455  10.243 -2.4031 -0.4323 -1.5905
 7409TIP3    H246423   6.983   5.590  10.294 -1.4742 -0.6898 -0.0244
 7410TIP3   OH246424   5.017   5.436  11.540 -0.3367  0.2273 -0.0223
 7410TIP3    H146425   4.989   5.473  11.456 -0.2797 -1.4312 -0.8155
 7410TIP3    H246426   5.111   5.424  11.530 -0.2691  0.3821  0.4297
 7411TIP3   OH246427   6.643   6.571  11.606  0.3117  0.7379 -0.3657
 7411TIP3    H146428   6.592   6.547  11.529  0.7152  0.7190 -0.6312
 7411TIP3    H246429   6.612   6.658  11.631  0.5110  0.9471 -0.8368
 7412TIP3   OH246430   7.423   3.019  11.692  0.2114  0.8896 -0.0254
 7412TIP3    H146431   7.383   3.106  11.693  0.0788  0.8210  0.4385
 7412TIP3    H246432   7.453   3.008  11.601  1.1316  1.8366  0.1380
 7413TIP3   OH246433   0.650   5.605  11.447  0.1519  0.3806  0.2113
 7413TIP3    H146434   0.621   5.691  11.416 -0.4542  0.2938  0.5271
 7413TIP3    H246435   0.723   5.623  11.506 -0.9944  0.8064  1.5458
 7414TIP3   OH246436   5.154   2.551  12.133 -0.4988 -0.1207  0.1669
 7414TIP3    H146437   5.071   2.568  12.178 -0.8809 -0.1841 -0.5076
 7414TIP3    H246438   5.149   2.603  12.053  0.8932  1.3531  0.9683
 7415TIP3   OH246439   6.002   1.138  10.130 -0.0265  0.4544  0.2568
 7415TIP3    H146440   6.032   1.169  10.045  0.6529  0.7408  0.5952
 7415TIP3    H246441   6.061   1.180  10.193  0.8009 -1.3625  0.7453
 7416TIP3   OH246442   0.325   2.236  10.249  0.0236 -0.5485  0.5530
 7416TIP3    H146443   0.350   2.275  10.165 -0.3979  0.3806  0.8447
 7416TIP3    H246444   0.237   2.270  10.266 -1.1436 -3.0414 -0.0097
 7417TIP3   OH246445   0.289   4.130  10.217  0.2708 -0.3983 -0.1912
 7417TIP3    H146446   0.375   4.142  10.257  0.3713 -2.0993  0.2125
 7417TIP3    H246447   0.248   4.215  10.221  1.5671  0.2268  0.4998
 7418TIP3   OH246448   6.863   6.056  12.148 -0.2165  0.2331 -0.5271
 7418TIP3    H146449   6.869   6.137  12.198  1.5353 -0.3222  0.2386
 7418TIP3    H246450   6.933   6.001  12.183 -0.9224 -1.3549 -1.5009
 7419TIP3   OH246451   2.001   3.619  10.670  0.1613  0.2450 -0.4879
 7419TIP3    H146452   2.073   3.671  10.706 -0.1491  0.5163 -0.2456
 7419TIP3    H246453   2.008   3.631  10.575 -0.9367  2.1674 -0.3907
 7420TIP3   OH246454   4.395   0.978  11.282  0.6021 -0.2804 -0.0166
 7420TIP3    H146455   4.448   1.001  11.358 -1.5981  0.7013  1.3103
 7420TIP3    H246456   4.343   1.057  11.264 -0.9630 -1.4285 -0.7528
 7421TIP3   OH246457   1.913   7.477  10.911  0.1894  0.0363  0.1108
 7421TIP3    H146458   1.907   7.480  11.007 -0.6851  2.0491  0.0221
 7421TIP3    H246459   1.966   7.399  10.894 -0.8153 -1.1852  2.1648
 7422TIP3   OH246460   3.265   0.109  10.676 -0.2609 -0.1264  0.2535
 7422TIP3    H146461   3.190   0.118  10.734 -1.9325  1.3692 -1.9804
 7422TIP3    H246462   3.266   0.016  10.653 -0.4519 -0.4531  1.4704
 7423TIP3   OH246463   4.485   3.385  11.063 -0.5102  0.1810  0.1737
 7423TIP3    H146464   4.504   3.324  10.992  0.3049  0.7134 -0.0783
 7423TIP3    H246465   4.547   3.362  11.132 -0.9627 -0.0080  0.5227
 7424TIP3   OH246466   7.091   1.997  10.286  0.3495 -0.0798 -0.6909
 7424TIP3    H146467   7.001   2.001  10.320  0.4683 -3.5238  0.4262
 7424TIP3    H246468   7.081   1.972  10.194  0.1530 -1.1222 -0.3935
 7425TIP3   OH246469   6.960   2.897  10.106 -0.3454  0.0419 -0.6796
 7425TIP3    H146470   6.960   2.986  10.139 -4.4557  0.3707 -1.0999
 7425TIP3    H246471   6.970   2.842  10.183  0.8947  0.8116 -0.2681
 7426TIP3   OH246472   7.100   3.476  11.399 -0.3807  0.5161  0.1589
 7426TIP3    H146473   7.185   3.432  11.389  0.8193  2.2873  1.7637
 7426TIP3    H246474   7.079   3.466  11.492 -1.2868  1.2220  0.0406
 7427TIP3   OH246475   5.418   2.370  10.032 -0.0467  0.2774 -0.2628
 7427TIP3    H146476   5.379   2.305   9.973 -2.2869  0.6821  0.6667
 7427TIP3    H246477   5.373   2.452  10.011  0.4480  0.8370  0.7594
 7428TIP3   OH246478   4.068   5.038  10.244  0.4555 -0.3180 -0.0498
 7428TIP3    H146479   4.047   5.037  10.338  0.9089  0.3202  0.0657
 7428TIP3    H246480   4.019   5.112  10.209  0.5084 -0.3841 -0.2641
 7429TIP3   OH246481   0.755   5.438  12.089  0.3419 -0.4582 -0.2674
 7429TIP3    H146482   0.805   5.452  12.170 -0.8040 -0.7113  0.5140
 7429TIP3    H246483   0.667   5.417  12.119 -0.7294  1.7456 -1.6388
 7430TIP3   OH246484   0.501   2.014  10.823 -0.3994  0.6277  0.1125
 7430TIP3    H146485   0.411   2.007  10.855  0.0050 -2.9807  0.9325
 7430TIP3    H246486   0.554   1.979  10.895  1.4106  0.4436 -1.2517
 7431TIP3   OH246487   7.044   4.813  10.310 -0.1041 -0.2730 -0.0516
 7431TIP3    H146488   7.117   4.766  10.270 -0.9819  0.5278 -2.8093
 7431TIP3    H246489   7.084   4.862  10.382  1.2200 -3.2730  1.3914
 7432TIP3   OH246490   6.108   1.489   9.805 -0.2506  0.4998 -0.4955
 7432TIP3    H146491   6.027   1.539   9.791  0.1112  0.8832 -1.2802
 7432TIP3    H246492   6.167   1.551   9.847  0.0056  0.5696 -0.9468
 7433TIP3   OH246493   1.868   1.661  10.122  0.1024  0.4889 -0.0631
 7433TIP3    H146494   1.929   1.587  10.125  1.3757  1.4907 -0.3349
 7433TIP3    H246495   1.923   1.735  10.097 -1.1332  1.5414  0.2909
 7434TIP3   OH246496   3.151   5.412  10.363  0.6078 -0.0285  0.1668
 7434TIP3    H146497   3.223   5.390  10.304 -1.7185  0.0608 -2.9746
 7434TIP3    H246498   3.106   5.328  10.378  0.5509  0.1332  0.9384
 7435TIP3   OH246499   2.836   4.135   9.415  0.2854  0.2420  0.0137
 7435TIP3    H146500   2.763   4.182   9.456  1.0301  0.1919  1.4577
 7435TIP3    H246501   2.796   4.053   9.384 -0.2772  0.1835  0.8441
 7436TIP3   OH246502   5.595   4.524  11.053 -0.2171 -0.1102  0.4747
 7436TIP3    H146503   5.593   4.554  10.962 -1.4781 -1.5033  0.0079
 7436TIP3    H246504   5.643   4.593  11.100  1.0070  0.3366 -1.3312
 7437TIP3   OH246505   2.266   7.469  11.991 -0.2941 -0.2935 -0.4849
 7437TIP3    H146506   2.221   7.386  12.007 -0.8867 -0.2903 -1.8994
 7437TIP3    H246507   2.241   7.492  11.901 -0.8349  1.8274  0.1358
 7438TIP3   OH246508   1.290   5.492  11.777  0.1179  0.7212  0.0092
 7438TIP3    H146509   1.317   5.533  11.695  2.8647 -2.2189 -0.7775
 7438TIP3    H246510   1.367   5.498  11.833 -0.9060  0.5832  1.4812
 7439TIP3   OH246511   6.593   6.815  10.500 -0.2375  0.2015  0.3524
 7439TIP3    H146512   6.603   6.910  10.496  0.7829  0.0751 -0.6032
 7439TIP3    H246513   6.584   6.796  10.593  0.8648  1.1367  0.6806
 7440TIP3   OH246514   7.343   0.938  10.966 -0.1070 -0.0162  0.2192
 7440TIP3    H146515   7.405   0.954  10.895  1.8887  1.7240  2.2200
 7440TIP3    H246516   7.386   0.874  11.022  1.0471  2.7531  2.7667
 7441TIP3   OH246517   2.216   5.043  12.759 -0.0039  0.3839 -0.4914
 7441TIP3    H146518   2.281   4.974  12.773 -0.7755 -0.0909  0.8187
 7441TIP3    H246519   2.268   5.119  12.733  0.9072 -0.4906 -1.3290
 7442TIP3   OH246520   4.017   6.098  11.003 -0.8375  0.0802  0.4296
 7442TIP3    H146521   4.077   6.152  11.055 -0.0668 -0.2897 -0.0591
 7442TIP3    H246522   4.008   6.017  11.053  1.9946 -1.3707 -1.1816
 7443TIP3   OH246523   2.798   5.634  10.106 -0.5028 -0.0150 -0.6103
 7443TIP3    H146524   2.718   5.585  10.125 -0.3558  0.4220  1.2852
 7443TIP3    H246525   2.866   5.590  10.155  0.1184  0.6014 -0.8957
 7444TIP3   OH246526   0.267   3.532  10.630  0.4121  0.4944 -0.4557
 7444TIP3    H146527   0.301   3.616  10.663 -3.1362  1.3474  1.6218
 7444TIP3    H246528   0.181   3.524  10.672 -1.5738 -1.8128 -4.4194
 7445TIP3   OH246529   6.190   0.311  10.731  0.6136  0.1035  0.2147
 7445TIP3    H146530   6.284   0.329  10.736 -0.0136  4.1121  0.7137
 7445TIP3    H246531   6.164   0.339  10.644 -0.3780  0.7852  0.7085
 7446TIP3   OH246532   6.761   6.670  11.272  0.1685 -0.0818 -0.1079
 7446TIP3    H146533   6.848   6.659  11.310 -0.4650 -0.7105  1.2111
 7446TIP3    H246534   6.772   6.742  11.209  1.5426  0.1158  0.3185
 7447TIP3   OH246535   4.254   7.475  12.737 -0.3146 -0.4156 -0.4007
 7447TIP3    H146536   4.341   7.460  12.700 -1.1551 -2.7218 -1.6530
 7447TIP3    H246537   4.209   7.528  12.673 -0.4529 -0.9202 -0.7263
 7448TIP3   OH246538   6.966   3.775  11.407 -0.0799 -0.7724  0.0737
 7448TIP3    H146539   6.984   3.741  11.319  0.2460  0.4406 -0.3618
 7448TIP3    H246540   6.968   3.699  11.464 -1.2030 -1.7175 -1.1053
 7449TIP3   OH246541   0.979   1.122  11.103 -0.1512  0.1217  0.6580
 7449TIP3    H146542   1.061   1.170  11.095  0.1080 -0.2206  1.2142
 7449TIP3    H246543   0.939   1.155  11.184 -1.6683  1.9309 -0.7348
 7450TIP3   OH246544   7.449   6.955   9.889 -0.2987 -0.3364  0.8023
 7450TIP3    H146545   7.388   7.006   9.835 -0.0148  1.0706  1.7557
 7450TIP3    H246546   7.395   6.924   9.962 -0.4184 -1.2330  0.3425
 7451TIP3   OH246547   5.638   6.756  10.587 -0.0983  0.1990  0.0547
 7451TIP3    H146548   5.718   6.775  10.636 -0.6557  2.2075  0.2692
 7451TIP3    H246549   5.669   6.736  10.498  0.8123 -2.1768  0.8342
 7452TIP3   OH246550   7.616   3.280  11.415  0.1478  0.0860 -0.1987
 7452TIP3    H146551   7.678   3.345  11.381  1.0321 -0.3239  0.5817
 7452TIP3    H246552   7.606   3.217  11.343  0.7408  0.0946 -0.2975
 7453TIP3   OH246553   6.996   4.251  11.607 -0.2380 -0.5228 -0.1329
 7453TIP3    H146554   7.028   4.327  11.656 -1.9279  1.5287 -1.9611
 7453TIP3    H246555   6.919   4.222  11.655 -0.9899  0.5076 -0.6566
 7454TIP3   OH246556   0.678   6.149  10.295  0.0977 -0.4967 -0.4088
 7454TIP3    H146557   0.741   6.196  10.241 -0.2118 -0.9467 -1.1738
 7454TIP3    H246558   0.662   6.068  10.248 -2.1376  0.2101 -0.9793
 7455TIP3   OH246559   4.523   6.885   9.563  0.0399 -0.0721 -0.2351
 7455TIP3    H146560   4.569   6.933   9.631  0.1535  0.2842 -0.5633
 7455TIP3    H246561   4.459   6.947   9.528  0.6790  0.0957 -1.1628
 7456TIP3   OH246562   2.672   0.838  10.991 -0.0133 -0.3540 -0.0221
 7456TIP3    H146563   2.749   0.831  11.047 -1.7642  0.5491  2.6816
 7456TIP3    H246564   2.625   0.756  11.004 -0.9901  0.3131  0.7463
 7457TIP3   OH246565   4.049   5.100  12.155 -0.5705 -0.1207  0.0298
 7457TIP3    H146566   3.958   5.124  12.170 -0.1962  1.3457  0.1988
 7457TIP3    H246567   4.075   5.055  12.236 -0.0682  3.0320  1.7959
 7458TIP3   OH246568   7.588   6.753  11.625  0.0516  0.4857 -0.2534
 7458TIP3    H146569   7.556   6.677  11.673 -2.1484  1.9941  0.8507
 7458TIP3    H246570   7.633   6.806  11.691 -2.9942  2.5778  0.3749
 7459TIP3   OH246571   4.676   0.386  11.230  0.0250 -0.5257  0.2300
 7459TIP3    H146572   4.635   0.367  11.146 -0.0424 -0.9603  0.3622
 7459TIP3    H246573   4.731   0.310  11.248 -0.3726 -0.6747  0.8390
 7460TIP3   OH246574   0.820   0.080  10.927 -0.7070  0.1816  0.2166
 7460TIP3    H146575   0.792   0.159  10.880  0.5473 -0.1321 -1.1621
 7460TIP3    H246576   0.813   0.010  10.862  4.2281  0.2476 -0.8104
 7461TIP3   OH246577   0.839   7.368  12.133 -0.1188  0.3163 -0.0205
 7461TIP3    H146578   0.876   7.316  12.204  0.4540  0.4293 -0.2335
 7461TIP3    H246579   0.747   7.377  12.155 -0.1583 -0.5212  0.1845
 7462TIP3   OH246580   7.276   4.045  10.368  0.5195 -0.2837  0.1675
 7462TIP3    H146581   7.266   3.966  10.315 -0.0734  0.2853 -0.5956
 7462TIP3    H246582   7.294   4.012  10.457 -1.3215 -1.3272  0.2192
 7463TIP3   OH246583   2.794   4.201  12.479 -0.0792 -0.4265 -0.2569
 7463TIP3    H146584   2.706   4.236  12.467  0.2659  0.7426  0.4252
 7463TIP3    H246585   2.852   4.274  12.456  0.6647  0.6729  4.1522
 7464TIP3   OH246586   0.723   3.075  11.717 -0.5216 -0.5610 -0.1116
 7464TIP3    H146587   0.683   3.150  11.761 -0.0534 -0.5702  0.3499
 7464TIP3    H246588   0.672   3.000  11.746 -1.3667 -0.3629 -1.0430
 7465TIP3   OH246589   4.209   6.120  12.455 -0.3364  0.0504 -0.1711
 7465TIP3    H146590   4.183   6.146  12.367 -0.3605 -1.0041 -0.4837
 7465TIP3    H246591   4.145   6.162  12.512 -0.1906  0.9210 -0.6323
 7466TIP3   OH246592   7.000   0.596  11.393 -0.1877 -0.4449 -0.0354
 7466TIP3    H146593   7.084   0.625  11.428  1.3706 -3.3111 -0.9886
 7466TIP3    H246594   7.017   0.580  11.300 -2.9635  2.6734 -1.2606
 7467TIP3   OH246595   3.450   4.181  11.178  0.2542  0.0539  0.6388
 7467TIP3    H146596   3.471   4.271  11.152  0.7577 -0.1548  0.2917
 7467TIP3    H246597   3.357   4.183  11.202 -0.7081  0.0124 -2.5533
 7468TIP3   OH246598   7.669   2.664  11.660  0.0380  0.3329 -0.2513
 7468TIP3    H146599   7.639   2.741  11.708 -0.4480 -0.0531  0.0641
 7468TIP3    H246600   7.664   2.690  11.568  0.6690  0.9603 -0.1209
 7469TIP3   OH246601   1.954   0.668  10.714  0.7194 -0.2297  0.4411
 7469TIP3    H146602   2.007   0.629  10.645 -0.6058  0.7118 -1.2067
 7469TIP3    H246603   1.939   0.758  10.684 -3.5610 -1.0065 -0.3870
 7470TIP3   OH246604   4.944   0.798  11.124  0.1515  0.2482  0.0379
 7470TIP3    H146605   4.908   0.739  11.190  0.0658 -0.8054 -0.9315
 7470TIP3    H246606   4.875   0.863  11.111 -0.6399 -0.6641 -0.4233
 7471TIP3   OH246607   1.541   5.210  10.758 -0.0163  0.2268 -1.0277
 7471TIP3    H146608   1.589   5.141  10.804 -0.6506  0.7595  0.4980
 7471TIP3    H246609   1.608   5.255  10.706  0.8840  0.1270  0.0131
 7472TIP3   OH246610   4.739   4.844  10.005  0.8897 -0.0202  0.0793
 7472TIP3    H146611   4.790   4.924   9.991  0.4021  0.7205  2.1209
 7472TIP3    H246612   4.799   4.784  10.048  0.4759  0.3569  1.2342
 7473TIP3   OH246613   7.633   6.340  11.879 -0.1984  0.1054  0.4807
 7473TIP3    H146614   7.696   6.270  11.897  1.0648  0.4902 -1.9478
 7473TIP3    H246615   7.686   6.418  11.867 -0.8458  0.1694 -3.0799
 7474TIP3   OH246616   3.306   4.341   9.679 -0.0894  0.1188 -0.2141
 7474TIP3    H146617   3.287   4.247   9.676  0.3955 -0.0130  0.6875
 7474TIP3    H246618   3.276   4.374   9.594  0.8775 -1.0712 -1.0533
 7475TIP3   OH246619   0.619   5.300  11.852  0.5152  0.1491 -0.1934
 7475TIP3    H146620   0.571   5.232  11.900  0.9876 -0.5781 -0.7195
 7475TIP3    H246621   0.612   5.378  11.907 -1.0709  0.0154 -0.1502
 7476TIP3   OH246622   0.935   5.356  11.094  0.3183 -0.1296 -0.2402
 7476TIP3    H146623   1.024   5.350  11.131 -0.3461 -0.5712  1.3763
 7476TIP3    H246624   0.939   5.431  11.035  1.1560  1.3828  1.6358
 7477TIP3   OH246625   4.449   2.966  10.401  0.1915 -0.0698 -0.3321
 7477TIP3    H146626   4.437   2.877  10.368 -1.6669  0.4081 -1.0696
 7477TIP3    H246627   4.385   2.974  10.472  0.4600  0.6292 -0.1595
 7478TIP3   OH246628   1.572   4.178  10.515  0.4847 -0.0903  0.2033
 7478TIP3    H146629   1.580   4.214  10.427 -0.4056  2.9622  1.2493
 7478TIP3    H246630   1.650   4.124  10.525  0.8073 -0.2139 -2.2920
 7479TIP3   OH246631   3.453   1.248  17.532  0.1903 -0.3475 -0.3116
 7479TIP3    H146632   3.524   1.289  17.581 -1.0288  0.1232  1.1306
 7479TIP3    H246633   3.442   1.162  17.572 -0.3973 -0.2075 -0.1597
 7480TIP3   OH246634   0.884   1.171  10.282 -0.0948 -0.1490  0.3242
 7480TIP3    H146635   0.876   1.244  10.343  0.8999  0.2360  0.0243
 7480TIP3    H246636   0.971   1.183  10.243 -0.5143 -0.6665 -0.7969
 7481TIP3   OH246637   2.046   6.770  10.545  0.6844 -0.2898  0.1372
 7481TIP3    H146638   1.980   6.713  10.504  0.4876 -0.6196  0.8964
 7481TIP3    H246639   2.125   6.716  10.550  0.3047 -0.7552  1.4900
 7482TIP3   OH246640   5.553   7.321  10.166  0.5250 -0.0336 -0.1400
 7482TIP3    H146641   5.480   7.263  10.143 -0.1995  1.0233 -0.6041
 7482TIP3    H246642   5.629   7.283  10.124  0.5009 -1.8246  1.3233
 7483TIP3   OH246643   7.049   6.138   9.979 -0.7749 -0.0564 -0.4571
 7483TIP3    H146644   7.093   6.100  10.055 -2.1075  1.7274  1.3306
 7483TIP3    H246645   7.117   6.146   9.912  0.7786 -0.4305  1.0152
 7484TIP3   OH246646   1.964   1.110  12.538 -0.5560  0.5102 -0.0599
 7484TIP3    H146647   1.918   1.067  12.466  1.7091 -1.2286 -0.5931
 7484TIP3    H246648   1.931   1.066  12.616 -1.2248  0.6677 -0.2464
 7485TIP3   OH246649   1.481   1.135  10.996  0.1316 -0.6542  0.3797
 7485TIP3    H146650   1.447   1.105  11.080  0.7207 -0.5440  0.6644
 7485TIP3    H246651   1.405   1.170  10.950 -0.4500 -2.0476  0.2690
 7486TIP3   OH246652   1.650   5.973  11.202 -0.2313 -0.0427  0.3820
 7486TIP3    H146653   1.606   6.037  11.146 -0.0586 -0.4369 -0.2180
 7486TIP3    H246654   1.696   6.025  11.267  1.1385  0.5458 -0.9816
 7487TIP3   OH246655   2.620   2.506   9.894 -0.0034  0.0421 -0.6971
 7487TIP3    H146656   2.543   2.451   9.878  0.3595 -0.7302  0.1427
 7487TIP3    H246657   2.674   2.495   9.816  0.1036 -0.8664 -0.5024
 7488TIP3   OH246658   3.055   6.009  11.082  0.0516  0.1714  0.0967
 7488TIP3    H146659   3.060   5.974  10.993 -0.1252  1.7746 -0.5893
 7488TIP3    H246660   2.983   5.960  11.123  0.6056 -1.0847 -0.3771
 7489TIP3   OH246661   2.072   0.497  12.414 -0.2809 -0.1212  0.6661
 7489TIP3    H146662   2.153   0.448  12.428  1.0186  1.7346  0.0406
 7489TIP3    H246663   2.012   0.465  12.481 -0.2701 -3.9643 -0.8780
 7490TIP3   OH246664   1.695   1.893  11.331 -0.8560  0.0379  0.0499
 7490TIP3    H146665   1.627   1.877  11.265 -1.0581  1.9271 -0.2672
 7490TIP3    H246666   1.684   1.985  11.355  0.9568  0.1246  0.7304
 7491TIP3   OH246667   5.461   4.554  10.208 -0.6416  0.0988  0.1603
 7491TIP3    H146668   5.390   4.506  10.166 -0.6969  0.1282  0.2194
 7491TIP3    H246669   5.486   4.621  10.144  0.3532 -0.8581 -0.4954
 7492TIP3   OH246670   0.135   1.434  11.691 -0.6071 -0.3049 -0.0826
 7492TIP3    H146671   0.093   1.473  11.614  0.1651 -0.9888 -0.8862
 7492TIP3    H246672   0.226   1.421  11.663 -0.7544 -2.3588  0.2586
 7493TIP3   OH246673   4.236   7.677  12.281 -0.1670 -0.1398 -0.3670
 7493TIP3    H146674   4.330   7.682  12.265  0.0611 -0.8327  0.6155
 7493TIP3    H246675   4.226   7.700  12.374 -0.7327 -1.8874  0.0566
 7494TIP3   OH246676   1.600   2.624  12.668 -0.7092  0.5483 -0.0349
 7494TIP3    H146677   1.660   2.696  12.651 -0.4449  0.7346  1.4854
 7494TIP3    H246678   1.636   2.550  12.620 -0.5779  1.2393 -1.0191
 7495TIP3   OH246679   2.536   0.263  10.447 -0.0481  0.6229  0.6643
 7495TIP3    H146680   2.491   0.236  10.528  1.7651  1.0595  1.8792
 7495TIP3    H246681   2.576   0.347  10.469 -1.5916  2.0423 -1.5456
 7496TIP3   OH246682   2.174   2.711  11.273 -0.5853  0.5081 -0.0671
 7496TIP3    H146683   2.262   2.718  11.234 -1.0153  0.6964 -1.0237
 7496TIP3    H246684   2.159   2.797  11.312 -0.0037  0.2035  0.8723
 7497TIP3   OH246685   5.215   0.122  10.240 -0.3491 -0.1471 -0.0523
 7497TIP3    H146686   5.149   0.053  10.239  0.7257 -1.2485  0.9505
 7497TIP3    H246687   5.176   0.192  10.292 -0.8381 -0.6828  0.3111
 7498TIP3   OH246688   2.971   3.499  11.129 -0.0875  0.6880  0.1471
 7498TIP3    H146689   2.968   3.548  11.211 -1.2851  1.3018 -0.2320
 7498TIP3    H246690   2.977   3.566  11.061  2.4555  0.1531 -0.2629
 7499TIP3   OH246691   2.002   0.831  11.215 -0.5216  0.1861  0.0377
 7499TIP3    H146692   1.944   0.772  11.167 -1.5151  1.1261  0.0485
 7499TIP3    H246693   2.042   0.776  11.283 -0.8699 -0.6255 -0.4021
 7500TIP3   OH246694   6.438   4.230  11.415 -0.7266 -0.2815  0.5523
 7500TIP3    H146695   6.474   4.297  11.357  0.4954 -0.5647  0.9495
 7500TIP3    H246696   6.381   4.178  11.358  2.1575 -1.9493 -1.0194
 7501TIP3   OH246697   2.277   2.173  11.242  0.0531  0.2820 -0.0211
 7501TIP3    H146698   2.234   2.149  11.160 -0.0023  1.7413 -0.4612
 7501TIP3    H246699   2.310   2.091  11.278  1.6719 -0.2027 -2.4255
 7502TIP3   OH246700   4.181   2.596  11.576  0.3780  0.2092 -0.2991
 7502TIP3    H146701   4.198   2.690  11.586  0.8052  0.3420 -1.9755
 7502TIP3    H246702   4.107   2.592  11.515  0.2441 -0.5588 -0.1008
 7503TIP3   OH246703   4.125   4.152  10.661 -0.1705 -0.7822  0.0478
 7503TIP3    H146704   4.118   4.238  10.702 -0.9910 -0.9592  0.2967
 7503TIP3    H246705   4.070   4.095  10.715 -0.8627 -1.1286 -1.0100
 7504TIP3   OH246706   4.208   4.439  11.956  0.1395 -0.4633  0.4891
 7504TIP3    H146707   4.215   4.371  11.890  0.0032 -0.5482  0.5598
 7504TIP3    H246708   4.122   4.425  11.995 -0.2610  0.2934 -0.0913
 7505TIP3   OH246709   7.141   0.651  11.880  0.6937  0.3551  0.0569
 7505TIP3    H146710   7.143   0.696  11.965 -1.5145 -2.2627  1.6834
 7505TIP3    H246711   7.077   0.700  11.828 -0.9973 -0.2262  1.4646
 7506TIP3   OH246712   7.590   7.572  10.384 -0.0194  0.4509  0.5035
 7506TIP3    H146713   7.533   7.529  10.447 -0.9435  1.6507  0.5331
 7506TIP3    H246714   7.558   7.662  10.382 -0.8540  0.1720 -2.6207
 7507TIP3   OH246715   1.612   7.110  11.115 -0.0619  0.3484  0.6518
 7507TIP3    H146716   1.600   7.167  11.039  1.3432 -0.4174 -0.1803
 7507TIP3    H246717   1.558   7.150  11.184 -1.7442  0.8072 -0.8509
 7508TIP3   OH246718   7.453   3.269  10.103  0.1502  0.0355 -0.2171
 7508TIP3    H146719   7.457   3.174  10.093  0.3237 -0.0954  0.9513
 7508TIP3    H246720   7.542   3.299  10.085  0.8089 -0.3396  2.0343
 7509TIP3   OH246721   4.628   6.418  12.002  0.2806  0.0007 -0.1267
 7509TIP3    H146722   4.700   6.430  12.064 -0.1825  0.3652  0.3436
 7509TIP3    H246723   4.561   6.371  12.052  0.0791 -0.0938 -0.4821
 7510TIP3   OH246724   6.880   1.330  12.300 -0.5376  0.3463 -0.1136
 7510TIP3    H146725   6.942   1.287  12.357  1.2152 -0.4512 -2.4782
 7510TIP3    H246726   6.803   1.345  12.355  0.6412 -1.2746  2.1153
 7511TIP3   OH246727   0.233   3.229  11.417 -0.6443 -0.2146  0.3162
 7511TIP3    H146728   0.309   3.245  11.473 -0.8391  1.1989  0.2092
 7511TIP3    H246729   0.158   3.238  11.475 -0.9400  2.7820 -0.3707
 7512TIP3   OH246730   5.258   2.945   9.933 -0.6614  0.3491  0.5527
 7512TIP3    H146731   5.280   3.015   9.994 -0.5340  0.4558  0.3860
 7512TIP3    H246732   5.332   2.884   9.937  1.5475  2.4782 -2.6773
 7513TIP3   OH246733   0.786   3.568  11.718  0.4861  0.1277  0.6564
 7513TIP3    H146734   0.779   3.567  11.623  1.2973  0.5534  0.5765
 7513TIP3    H246735   0.799   3.660  11.740 -1.4904  0.2858  1.3551
 7514TIP3   OH246736   7.084   0.992  12.292 -0.3494 -0.0476  0.5844
 7514TIP3    H146737   7.103   0.927  12.360 -0.2926  0.6970  1.2935
 7514TIP3    H246738   7.156   1.055  12.298  0.1072 -0.4014 -0.7317
 7515TIP3   OH246739   0.184   3.687  10.005  0.0295 -1.0007 -0.3765
 7515TIP3    H146740   0.178   3.783  10.011  0.3645 -1.0134  0.2538
 7515TIP3    H246741   0.276   3.671   9.982 -0.0831 -1.1663 -0.7177
 7516TIP3   OH246742   0.440   1.948  11.941 -0.1894  0.5278  0.1630
 7516TIP3    H146743   0.348   1.926  11.931  0.0961 -0.2179 -1.0438
 7516TIP3    H246744   0.466   1.908  12.024 -0.6798 -0.2197 -0.0361
 7517TIP3   OH246745   2.143   4.377  11.853  0.3544 -0.3128 -0.6080
 7517TIP3    H146746   2.129   4.466  11.820  1.0448 -0.8676 -2.5248
 7517TIP3    H246747   2.222   4.383  11.907 -0.2751  0.4373  0.2761
 7518TIP3   OH246748   1.021   4.571  11.495 -0.1380  0.0337  0.3149
 7518TIP3    H146749   1.101   4.603  11.538 -0.0277  1.8363 -1.1085
 7518TIP3    H246750   0.975   4.650  11.469 -3.1958 -0.9113  2.3793
 7519TIP3   OH246751   6.154   0.691  11.385 -0.1565  0.2350  0.2030
 7519TIP3    H146752   6.158   0.685  11.480 -0.0406 -0.6033  0.1551
 7519TIP3    H246753   6.137   0.601  11.356 -1.5170  0.6857 -0.5019
 7520TIP3   OH246754   2.898   2.147  10.594  0.1965  0.6941  0.3236
 7520TIP3    H146755   2.810   2.124  10.565  0.2178 -2.0678  2.0695
 7520TIP3    H246756   2.956   2.095  10.539  0.5704  0.4573  0.9236
 7521TIP3   OH246757   5.980   1.258   9.890 -0.3522  0.1978  0.5447
 7521TIP3    H146758   6.038   1.329   9.864 -0.1479  0.5275  1.8268
 7521TIP3    H246759   5.893   1.299   9.895 -0.7051 -0.2479 -1.1701
 7522TIP3   OH246760   2.793   5.324  12.241  0.0789 -0.5051 -0.3056
 7522TIP3    H146761   2.869   5.381  12.247  0.1372 -0.4267 -1.4927
 7522TIP3    H246762   2.718   5.382  12.250  0.0886 -0.8558  3.2102
 7523TIP3   OH246763   1.582   6.050  10.074  0.1680 -0.1585  0.0048
 7523TIP3    H146764   1.677   6.057  10.065  0.1792  0.1880  0.4022
 7523TIP3    H246765   1.567   5.959  10.102  0.5458  0.3763  2.1042
 7524TIP3   OH246766   7.408   2.918  11.070  0.8042 -0.6396 -0.1295
 7524TIP3    H146767   7.419   2.902  10.976  2.2054  1.0402 -0.3038
 7524TIP3    H246768   7.362   3.002  11.075  1.6615 -0.1916  0.6525
 7525TIP3   OH246769   3.338   0.542  11.450 -0.0978 -1.1720  0.1309
 7525TIP3    H146770   3.253   0.575  11.419 -0.1632  3.8635  4.2331
 7525TIP3    H246771   3.402   0.578  11.388 -0.6945  0.9304  0.6549
 7526TIP3   OH246772   3.125   6.740  10.060  0.2476 -0.7158  0.0679
 7526TIP3    H146773   3.030   6.744  10.061  0.1721  1.3257 -2.7290
 7526TIP3    H246774   3.145   6.661  10.010  0.0437 -0.8103  0.1329
 7527TIP3   OH246775   0.579   4.582  11.444 -0.0144  0.0239 -0.1071
 7527TIP3    H146776   0.618   4.658  11.487 -0.0916  0.4482 -0.7728
 7527TIP3    H246777   0.630   4.507  11.475 -0.4051  0.2473  1.1389
 7528TIP3   OH246778   2.794   5.918  10.624  0.0558  0.1689 -0.1523
 7528TIP3    H146779   2.842   5.999  10.643  0.6215 -0.1910 -0.0232
 7528TIP3    H246780   2.833   5.853  10.682  0.5416 -0.5138 -1.1992
 7529TIP3   OH246781   3.216   1.664  10.257 -0.1826 -0.2395  0.3602
 7529TIP3    H146782   3.161   1.709  10.322  0.0239 -0.0655  0.4171
 7529TIP3    H246783   3.232   1.730  10.190 -0.8654 -0.5908 -0.1534
 7530TIP3   OH246784   1.411   2.357  11.829  0.4691 -0.2513  0.5323
 7530TIP3    H146785   1.494   2.311  11.842  0.4213 -0.2729  0.7643
 7530TIP3    H246786   1.345   2.298  11.865 -0.0153 -1.6508 -2.3746
 7531TIP3   OH246787   5.798   4.388  12.198 -0.4777  0.3459 -0.3351
 7531TIP3    H146788   5.809   4.323  12.267  1.0458 -1.4636 -2.1446
 7531TIP3    H246789   5.705   4.384  12.175 -0.9100  0.6776  1.2564
 7532TIP3   OH246790   0.480   5.914  12.287 -0.2981  0.3594 -0.0446
 7532TIP3    H146791   0.394   5.938  12.321 -0.1554 -0.0686  0.6606
 7532TIP3    H246792   0.519   5.862  12.358  1.0638  1.6535  0.2129
 7533TIP3   OH246793   0.047   4.293  10.218 -0.2408  0.1679  0.3186
 7533TIP3    H146794   0.018   4.297  10.127 -0.7665  1.4460  0.5159
 7533TIP3    H246795  -0.008   4.225  10.258  0.7960 -1.2390 -0.5663
 7534TIP3   OH246796   7.041   3.229  10.412  0.0815 -0.1768 -0.5937
 7534TIP3    H146797   7.115   3.172  10.432  0.0195 -0.7526 -1.9014
 7534TIP3    H246798   6.964   3.174  10.427 -0.0714  0.2721  0.3044
 7535TIP3   OH246799   6.763   7.489  11.787 -0.6721 -0.3540  0.2638
 7535TIP3    H146800   6.854   7.466  11.802 -1.6039 -3.1444  2.5761
 7535TIP3    H246801   6.727   7.414  11.739 -2.3543 -0.7706  2.0490
 7536TIP3   OH246802   6.827   0.248  11.682 -0.8364  0.3048 -0.2602
 7536TIP3    H146803   6.822   0.253  11.586 -1.0139  1.4839 -0.2067
 7536TIP3    H246804   6.739   0.225  11.710 -0.6566 -0.5987 -0.3907
 7537TIP3   OH246805   3.029   3.232  11.261 -0.5651 -0.1944 -0.0017
 7537TIP3    H146806   3.011   3.312  11.211 -1.7328 -1.9398 -2.5926
 7537TIP3    H246807   3.002   3.252  11.350 -1.9830  1.8936 -0.8378
 7538TIP3   OH246808   3.842   5.098  10.440  0.1887  0.2675  0.4283
 7538TIP3    H146809   3.831   5.004  10.453  0.2722  0.2413  0.2981
 7538TIP3    H246810   3.927   5.118  10.479  1.8501 -0.3103 -2.6326
 7539TIP3   OH246811   2.412   4.755  10.467 -0.1002  0.0246  0.1289
 7539TIP3    H146812   2.361   4.689  10.514  1.9089 -0.7157  1.3864
 7539TIP3    H246813   2.445   4.709  10.390  0.2374 -0.0706  0.3279
 7540TIP3   OH246814   0.355   3.555  11.503  0.2131  0.1256 -0.6539
 7540TIP3    H146815   0.335   3.573  11.595  1.4328 -2.3066  0.1714
 7540TIP3    H246816   0.271   3.560  11.458 -0.4420  1.0771  0.6484
 7541TIP3   OH246817   6.035   0.121  11.669  0.0129  0.1928  0.0514
 7541TIP3    H146818   6.073   0.106  11.755  0.4652 -0.3210 -0.2277
 7541TIP3    H246819   5.954   0.071  11.669  1.1316 -1.7148 -0.6023
 7542TIP3   OH246820   2.263   3.235  12.025  0.0775 -0.2815  0.2594
 7542TIP3    H146821   2.339   3.182  12.002 -0.5787 -1.8855  1.6117
 7542TIP3    H246822   2.298   3.323  12.039  1.1779 -0.2757 -2.1239
 7543TIP3   OH246823   2.058   4.321  11.240 -0.4001 -0.5235 -0.5415
 7543TIP3    H146824   2.069   4.406  11.198  2.6054 -1.1356 -1.2958
 7543TIP3    H246825   2.120   4.322  11.313 -0.9433 -1.7320 -0.0392
 7544TIP3   OH246826   3.353   3.267  11.699 -0.3824 -0.0492 -0.3850
 7544TIP3    H146827   3.378   3.359  11.712 -1.7195  0.3280 -0.2807
 7544TIP3    H246828   3.316   3.241  11.783 -1.5763 -0.1455 -0.9237
 7545TIP3   OH246829   7.099   2.923  10.862 -0.3693  0.0901  0.0004
 7545TIP3    H146830   7.117   2.911  10.955  1.0757  1.2008 -0.1015
 7545TIP3    H246831   7.094   3.018  10.850 -0.2556 -0.0264 -1.1081
 7546TIP3   OH246832   1.744   2.475  10.677  0.1962 -0.0096  0.0684
 7546TIP3    H146833   1.718   2.426  10.756 -0.2171 -0.9595 -0.6326
 7546TIP3    H246834   1.839   2.481  10.682  0.0941  0.9935  1.2343
 7547TIP3   OH246835   0.827   7.520  11.846 -0.2115  0.3806 -0.4455
 7547TIP3    H146836   0.774   7.460  11.793  1.7131 -0.0586 -1.9907
 7547TIP3    H246837   0.845   7.471  11.926 -0.2382 -0.3655 -0.8856
 7548TIP3   OH246838   5.994   2.811  10.565  0.9434  0.6635 -0.5575
 7548TIP3    H146839   6.069   2.826  10.624  0.5412  0.1872  0.0882
 7548TIP3    H246840   6.027   2.835  10.479  2.9492 -2.6405 -0.8786
 7549TIP3   OH246841   3.344   7.603   9.924 -0.2663 -0.0510 -0.1290
 7549TIP3    H146842   3.321   7.614  10.017  0.1131 -0.9021  0.0712
 7549TIP3    H246843   3.279   7.542   9.890 -1.1011  1.1312 -0.7210
 7550TIP3   OH246844   4.020   4.424  11.373 -0.4831  0.1695 -0.8081
 7550TIP3    H146845   4.105   4.468  11.368 -0.6802  0.4383 -2.1896
 7550TIP3    H246846   4.042   4.333  11.391 -0.0848  0.7929  2.5249
 7551TIP3   OH246847   3.731   6.369  12.064 -0.3157  0.1161 -0.3318
 7551TIP3    H146848   3.723   6.453  12.109  0.7519  1.2775 -2.1844
 7551TIP3    H246849   3.641   6.341  12.047 -0.7403 -0.2459  2.2098
 7552TIP3   OH246850   1.923   0.467  11.609 -0.6907 -1.0645 -0.1195
 7552TIP3    H146851   2.016   0.442  11.613  0.1356  1.7552  3.7488
 7552TIP3    H246852   1.882   0.417  11.679 -1.7320 -0.9047 -0.5957
 7553TIP3   OH246853   2.830   5.432  10.755  0.4846 -0.0176 -0.1639
 7553TIP3    H146854   2.877   5.399  10.832 -0.5423  0.9920  0.9211
 7553TIP3    H246855   2.891   5.493  10.713  0.0955  1.4956  1.3873
 7554TIP3   OH246856   4.260   6.388  11.764  0.7507 -0.4876  0.2918
 7554TIP3    H146857   4.343   6.430  11.744  1.3183 -1.3731  0.7261
 7554TIP3    H246858   4.225   6.437  11.839 -0.2354  1.3130 -1.2490
 7555TIP3   OH246859   5.249   4.042  10.683 -0.7127 -0.4095  0.1083
 7555TIP3    H146860   5.234   4.104  10.611  1.0112 -1.7647 -1.5229
 7555TIP3    H246861   5.289   4.095  10.752 -0.6484  0.5772 -0.6572
 7556TIP3   OH246862   2.794   6.895  12.015 -0.4029 -0.3033  0.6180
 7556TIP3    H146863   2.825   6.935  11.934  0.0505 -1.9510 -0.0516
 7556TIP3    H246864   2.703   6.925  12.023 -0.2158  0.4984 -0.0622
 7557TIP3   OH246865   3.403   0.864  11.236 -0.4265  0.3167 -1.4503
 7557TIP3    H146866   3.404   0.960  11.226 -0.1102  0.3782 -0.8588
 7557TIP3    H246867   3.347   0.834  11.165 -0.8486  0.9680 -1.4073
 7558TIP3   OH246868   4.242   7.235  10.710 -0.0766  0.4188 -0.4819
 7558TIP3    H146869   4.268   7.143  10.701  1.7229  0.7077  1.1914
 7558TIP3    H246870   4.270   7.276  10.628 -2.3941 -0.7393 -2.0042
 7559TIP3   OH246871   7.622   4.544  10.921  0.4739 -0.5064  0.1242
 7559TIP3    H146872   7.572   4.491  10.983 -0.0950 -0.8530 -0.6183
 7559TIP3    H246873   7.578   4.531  10.837  0.7642  0.5759 -0.2103
 7560TIP3   OH246874   5.700   2.397  10.098 -0.3646 -0.0305 -0.4626
 7560TIP3    H146875   5.710   2.455  10.022 -0.5461 -0.9367 -1.1880
 7560TIP3    H246876   5.612   2.361  10.090  0.1017 -1.1895 -0.5849
 7561TIP3   OH246877   1.312   2.123  11.649  0.3473  0.0564  0.2069
 7561TIP3    H146878   1.367   2.184  11.600 -0.5516  0.7739  0.0623
 7561TIP3    H246879   1.233   2.174  11.671 -0.0561 -0.8043  0.8077
 7562TIP3   OH246880   5.920   3.911  12.402 -0.0625 -0.4149  0.3452
 7562TIP3    H146881   6.011   3.883  12.389  1.1129  1.5555  3.1169
 7562TIP3    H246882   5.881   3.908  12.315  2.7562 -1.0616 -1.0174
 7563TIP3   OH246883   5.632   7.065  10.330  0.0263  0.1814 -0.1075
 7563TIP3    H146884   5.637   7.119  10.409  3.6321 -1.0771  0.7146
 7563TIP3    H246885   5.699   7.102  10.272  0.1052 -1.2519 -0.9820
 7564TIP3   OH246886   5.832   1.663  10.957  0.9268  0.1592  0.4061
 7564TIP3    H146887   5.849   1.703  11.043 -1.3125 -1.8349  1.9301
 7564TIP3    H246888   5.904   1.602  10.944  1.4128  0.6480  0.7744
 7565TIP3   OH246889   3.819   2.860  11.034  0.6568 -0.3023  0.1793
 7565TIP3    H146890   3.839   2.818  11.118  0.3275  1.1012  1.0012
 7565TIP3    H246891   3.779   2.791  10.981  0.5935 -1.1415  1.2843
 7566TIP3   OH246892   4.106   5.020  10.527 -0.3051 -0.0920 -0.3938
 7566TIP3    H146893   4.041   4.952  10.548  0.6825 -1.2700 -0.9867
 7566TIP3    H246894   4.180   5.000  10.584  0.2582  0.0728 -1.0600
 7567TIP3   OH246895   7.610   1.871  12.465  0.1367 -0.5396 -0.0817
 7567TIP3    H146896   7.609   1.934  12.537 -0.9960  0.1882 -0.7078
 7567TIP3    H246897   7.525   1.827  12.470 -0.6419  0.6533 -1.9182
 7568TIP3   OH246898   5.398   3.211  11.613 -0.1835  0.1924 -0.0075
 7568TIP3    H146899   5.487   3.243  11.600 -0.0417 -0.3833 -0.5124
 7568TIP3    H246900   5.406   3.148  11.685  0.0498 -0.7725 -0.8599
 7569TIP3   OH246901   0.989   0.284  11.029 -0.3087  0.0234  0.5844
 7569TIP3    H146902   1.050   0.279  10.955 -0.6336  0.3966  0.2854
 7569TIP3    H246903   0.932   0.208  11.019 -1.4355  0.9579 -0.5377
 7570TIP3   OH246904   5.690   1.829   9.605 -0.0870 -0.1015  0.3951
 7570TIP3    H146905   5.757   1.766   9.634  1.0046  1.0470  0.4810
 7570TIP3    H246906   5.651   1.789   9.528  1.8171 -0.1326 -0.6213
 7571TIP3   OH246907   1.849   5.668  11.317 -0.0750 -0.2876  0.3558
 7571TIP3    H146908   1.902   5.659  11.396  0.1305 -1.4507  0.0956
 7571TIP3    H246909   1.897   5.729  11.262  0.4199 -0.4594  0.5971
 7572TIP3   OH246910   1.369   3.367  12.265 -0.0016  0.4622  0.5337
 7572TIP3    H146911   1.296   3.423  12.237  0.8907  0.9888 -0.8285
 7572TIP3    H246912   1.359   3.288  12.211  0.9307  0.9039 -0.3065
 7573TIP3   OH246913   3.203   1.038  12.325  0.7635 -0.1587 -0.8460
 7573TIP3    H146914   3.153   1.116  12.302  1.2542  0.9041  1.4669
 7573TIP3    H246915   3.268   1.029  12.255  0.3477  1.1806 -1.4186
 7574TIP3   OH246916   0.260   0.376  12.010  0.0354  0.0286 -0.5528
 7574TIP3    H146917   0.217   0.410  11.932 -0.3043 -0.9728 -0.8231
 7574TIP3    H246918   0.252   0.445  12.075 -3.6492 -0.7399  0.0136
 7575TIP3   OH246919   4.472   5.489  11.746  0.1854 -0.4009 -0.2632
 7575TIP3    H146920   4.384   5.520  11.766  1.2217  1.3022  2.1053
 7575TIP3    H246921   4.485   5.415  11.804  0.8812  0.4439  0.6994
 7576TIP3   OH246922   0.496   4.476  10.667 -0.4764 -0.1029  0.7844
 7576TIP3    H146923   0.414   4.516  10.639  0.0126  1.3664  1.3582
 7576TIP3    H246924   0.561   4.546  10.658  1.1809 -1.7972 -1.6508
 7577TIP3   OH246925   7.064   6.256  10.773 -0.4554  0.7646  0.0627
 7577TIP3    H146926   7.126   6.322  10.743  0.2899 -0.9002 -2.4280
 7577TIP3    H246927   7.118   6.188  10.812 -0.8956  0.2257 -0.2490
 7578TIP3   OH246928   4.477   5.569  12.726 -0.0898  0.0853 -0.3976
 7578TIP3    H146929   4.386   5.597  12.732  0.2845  1.1223  0.8311
 7578TIP3    H246930   4.516   5.624  12.659 -0.0215  0.6643  0.1092
 7579TIP3   OH246931   5.091   5.171  11.095 -0.9992  0.7682  0.3585
 7579TIP3    H146932   5.156   5.124  11.146 -1.4760  2.8703  3.1361
 7579TIP3    H246933   5.011   5.118  11.101 -0.6705  0.3064  0.6255
 7580TIP3   OH246934   3.326   3.852  11.309 -0.2262 -0.1620 -0.2899
 7580TIP3    H146935   3.352   3.915  11.377 -1.4616  0.0519 -0.0012
 7580TIP3    H246936   3.307   3.907  11.232  2.8923 -0.4984 -1.4681
 7581TIP3   OH246937   2.670   2.571  11.269  0.5809 -0.1674 -0.9535
 7581TIP3    H146938   2.611   2.496  11.274 -0.7017  0.8653  0.3002
 7581TIP3    H246939   2.757   2.533  11.254 -0.2258 -1.7970 -1.6893
 7582TIP3   OH246940   5.674   6.603  11.038  0.0253  0.4663 -0.6236
 7582TIP3    H146941   5.624   6.523  11.025 -1.2127  0.8321  1.3700
 7582TIP3    H246942   5.608   6.668  11.063  1.4196  0.9203  2.3081
 7583TIP3   OH246943   3.701   3.727  12.016  0.4734  0.7211 -0.4832
 7583TIP3    H146944   3.768   3.743  11.950  2.2873  0.1536  1.1181
 7583TIP3    H246945   3.734   3.653  12.067 -2.7066 -1.4799 -1.2711
 7584TIP3   OH246946   4.385   2.682  10.315  0.4032 -0.5326 -0.1355
 7584TIP3    H146947   4.442   2.681  10.238 -1.2969 -1.9361 -1.4540
 7584TIP3    H246948   4.407   2.602  10.362 -0.1816 -0.8870 -0.4496
 7585TIP3   OH246949   4.497   5.294  11.997  0.5010  0.0173  0.2115
 7585TIP3    H146950   4.401   5.291  12.001  0.4107 -2.7229 -1.3946
 7585TIP3    H246951   4.525   5.264  12.083 -0.0858  0.5552  0.5996
 7586TIP3   OH246952   0.895   5.502  12.308 -0.0513  0.1168  0.6859
 7586TIP3    H146953   0.922   5.593  12.292  0.0341  0.2466  1.5390
 7586TIP3    H246954   0.967   5.465  12.359 -1.0133  0.1739  2.1248
 7587TIP3   OH246955   5.783   3.315  10.787 -0.1607 -0.0580 -0.1937
 7587TIP3    H146956   5.815   3.372  10.718 -0.7930  0.9932  0.3633
 7587TIP3    H246957   5.688   3.317  10.779 -0.4355  2.1593  2.2455
 7588TIP3   OH246958   1.836   3.601  10.987  0.0299  0.0629  0.6238
 7588TIP3    H146959   1.752   3.588  10.942  0.0194 -0.0004  0.6607
 7588TIP3    H246960   1.877   3.674  10.941  0.5556 -0.7740 -0.2783
 7589TIP3   OH246961   7.601   2.484  10.814  0.0006 -0.1371 -0.6032
 7589TIP3    H146962   7.667   2.482  10.883 -0.9972  1.4714  0.4529
 7589TIP3    H246963   7.638   2.429  10.745  1.2917 -1.3362  0.9454
 7590TIP3   OH246964   3.653   4.275   9.975 -0.5442  0.1358 -0.4802
 7590TIP3    H146965   3.595   4.351   9.980 -0.0244  0.5062  0.1951
 7590TIP3    H246966   3.673   4.266   9.882 -0.6758  0.7824 -0.5767
 7591TIP3   OH246967   6.366   4.533  11.023  0.1016 -0.5255 -0.0864
 7591TIP3    H146968   6.385   4.471  10.952 -1.4971 -2.2914  0.9274
 7591TIP3    H246969   6.271   4.545  11.019 -0.1523 -1.3394  2.2510
 7592TIP3   OH246970   6.092   5.767  11.511  0.1336 -0.3109  0.0718
 7592TIP3    H146971   6.047   5.683  11.500  0.0869 -0.2509 -0.1885
 7592TIP3    H246972   6.067   5.818  11.435  2.3744 -1.0569 -1.2535
 7593TIP3   OH246973   0.530   4.603   9.935  0.5043  0.1705  0.1847
 7593TIP3    H146974   0.482   4.522   9.955  0.5511  0.5332  1.9549
 7593TIP3    H246975   0.474   4.648   9.871 -0.1734 -0.6496  0.1721
 7594TIP3   OH246976   6.100   5.085  11.548  0.0585  0.3373  0.2199
 7594TIP3    H146977   6.119   5.136  11.627  1.6536 -1.3604  1.0183
 7594TIP3    H246978   6.123   4.995  11.571 -2.0361 -0.6883 -1.3331
 7595TIP3   OH246979   3.550   4.016  10.242 -0.0397  0.6940  0.6748
 7595TIP3    H146980   3.561   4.104  10.278  1.0485  0.4452  0.9924
 7595TIP3    H246981   3.530   4.030  10.149 -1.0703  1.2963  0.9784
 7596TIP3   OH246982   4.451   4.526  12.038 -0.1130  0.6514  0.0381
 7596TIP3    H146983   4.510   4.507  11.965 -0.5469  1.3911 -0.5251
 7596TIP3    H246984   4.368   4.486  12.012  0.0917 -0.2908  0.7774
 7597TIP3   OH246985   6.509   1.580  10.830  0.4051 -0.2517 -0.7448
 7597TIP3    H146986   6.586   1.526  10.811  0.8414 -0.4308  1.2578
 7597TIP3    H246987   6.476   1.605  10.744  2.5233 -0.4137 -1.6918
 7598TIP3   OH246988   2.704   1.503  10.103  0.0893 -0.1015  0.4143
 7598TIP3    H146989   2.780   1.452  10.132  0.9167  0.8436 -0.0305
 7598TIP3    H246990   2.637   1.437  10.085  0.7075 -0.9414  1.0746
 7599TIP3   OH246991   2.667   1.433  11.569 -0.6793  0.2516  0.0072
 7599TIP3    H146992   2.625   1.365  11.516  0.4598 -0.7808  0.3831
 7599TIP3    H246993   2.758   1.432  11.541 -0.1892  0.1402  1.4852
 7600TIP3   OH246994   2.464   3.966  11.256 -0.2351  0.1016 -0.2646
 7600TIP3    H146995   2.502   3.886  11.219 -0.1919 -0.4395  0.9318
 7600TIP3    H246996   2.496   3.970  11.346  0.2744  1.8067 -0.4791
 7601TIP3   OH246997   6.025   1.301  11.084  0.3017 -0.7189 -0.2574
 7601TIP3    H146998   5.990   1.255  11.160  0.3494 -0.1418  0.1169
 7601TIP3    H246999   6.063   1.232  11.030  0.4994 -1.1027  0.3611
 7602TIP3   OH247000   1.139   2.469   9.951  0.7175 -0.4078 -0.0136
 7602TIP3    H147001   1.080   2.395   9.936  0.5968 -0.0814 -1.2110
 7602TIP3    H247002   1.158   2.466  10.045 -0.8672 -0.7770  0.3164
 7603TIP3   OH247003   0.257   7.458  10.084  0.6233 -0.3731 -0.3494
 7603TIP3    H147004   0.239   7.377  10.037 -1.2388  0.5088 -1.2856
 7603TIP3    H247005   0.217   7.446  10.170  0.3797 -0.4626 -0.4751
 7604TIP3   OH247006   2.186   2.809  11.817 -0.2588 -0.2722  0.4858
 7604TIP3    H147007   2.096   2.825  11.846 -0.6744 -2.7330  0.8296
 7604TIP3    H247008   2.180   2.801  11.722 -0.1257  0.9605  0.3601
 7605TIP3   OH247009   5.308   0.339  12.010  0.9367  0.2349  0.9463
 7605TIP3    H147010   5.231   0.316  12.062 -0.0318 -0.7679 -0.8336
 7605TIP3    H247011   5.299   0.433  11.993 -1.4341 -0.3049 -1.4568
 7606TIP3   OH247012   5.860   3.063  10.612 -0.2276  0.5866  0.6652
 7606TIP3    H147013   5.881   2.971  10.601 -0.6364  0.7038 -1.6453
 7606TIP3    H247014   5.791   3.064  10.679  0.4331 -0.6581  1.3997
 7607TIP3   OH247015   6.897   5.129  10.419  0.1698 -0.0187 -0.0118
 7607TIP3    H147016   6.928   5.048  10.460 -0.8405 -0.3686  0.1054
 7607TIP3    H247017   6.869   5.184  10.492 -0.0333  0.0467 -0.1353
 7608TIP3   OH247018   0.076   1.790  11.827  0.2113 -0.5783  0.1225
 7608TIP3    H147019   0.057   1.821  11.739  0.7495 -0.1598  0.1451
 7608TIP3    H247020   0.114   1.866  11.871 -1.4160 -0.3188  1.1853
 7609TIP3   OH247021   3.242   6.247  11.467 -0.1693 -0.3150  0.3324
 7609TIP3    H147022   3.278   6.298  11.394  0.3042 -1.1333 -0.0147
 7609TIP3    H247023   3.159   6.212  11.433 -2.1137  2.6847  1.5693
 7610TIP3   OH247024   1.086   3.823  11.045 -0.3757 -0.2447  0.3742
 7610TIP3    H147025   1.141   3.846  10.970  2.2577  2.0451  2.7178
 7610TIP3    H247026   1.003   3.867  11.028  0.4387  0.9343 -0.8623
 7611TIP3   OH247027   1.412   0.221  10.259  0.0918 -0.0126  0.0878
 7611TIP3    H147028   1.417   0.303  10.210  0.2641  0.4133  0.8175
 7611TIP3    H247029   1.454   0.157  10.201  1.0335  0.6490  0.0157
 7612TIP3   OH247030   4.480   4.757   9.918  0.0789 -0.0831 -0.2533
 7612TIP3    H147031   4.565   4.795   9.942 -0.3028 -0.4054  1.8110
 7612TIP3    H247032   4.502   4.683   9.862  1.0153  1.0736 -1.4911
 7613TIP3   OH247033   5.509   6.786   9.885  0.4874 -0.4970  0.8008
 7613TIP3    H147034   5.508   6.769   9.979 -1.7960  1.5752  1.2563
 7613TIP3    H247035   5.455   6.716   9.847 -0.4626 -0.0708  1.3408
 7614TIP3   OH247036   0.446   6.805  12.090 -0.0743  0.4635  0.9876
 7614TIP3    H147037   0.361   6.835  12.120  0.1152 -0.0572  2.0819
 7614TIP3    H247038   0.464   6.726  12.141  0.0453 -0.7677 -0.8673
 7615TIP3   OH247039   7.080   1.583  11.480 -0.2408  0.1161  0.4947
 7615TIP3    H147040   7.041   1.668  11.459 -0.2817  0.3925  1.6317
 7615TIP3    H247041   7.053   1.526  11.408  0.7768  1.3357 -0.9384
 7616TIP3   OH247042   0.217   5.241   9.585  0.3642 -0.4809 -0.1002
 7616TIP3    H147043   0.132   5.284   9.593  0.6545 -0.2029  4.2481
 7616TIP3    H247044   0.196   5.149   9.572 -0.4893 -0.1062 -1.5515
 7617TIP3   OH247045   4.938   1.007   9.688 -0.0766 -0.1762  0.0505
 7617TIP3    H147046   4.929   0.959   9.606  0.4559 -0.2497  0.0335
 7617TIP3    H247047   4.865   0.976   9.742 -3.1679  2.9428 -1.8533
 7618TIP3   OH247048   0.231   6.919  11.476  0.5771 -1.0770 -0.1254
 7618TIP3    H147049   0.217   6.984  11.545  1.9078 -0.6323 -0.2448
 7618TIP3    H247050   0.277   6.967  11.407 -2.5740 -0.9288 -2.3339
 7619TIP3   OH247051   6.036   3.285  11.603  0.0669 -0.2133 -0.5595
 7619TIP3    H147052   5.994   3.203  11.629 -0.5226  0.5429  0.9519
 7619TIP3    H247053   5.996   3.306  11.518 -2.8207  0.5418  0.8705
 7620TIP3   OH247054   0.056   6.157  10.925 -0.4480 -0.2262  0.1143
 7620TIP3    H147055   0.045   6.113  10.840 -1.3830 -0.9391  0.5856
 7620TIP3    H247056  -0.026   6.207  10.936  0.2143  0.9298  0.0077
 7621TIP3   OH247057   0.626   5.994  11.728  0.0846  0.0204  0.5864
 7621TIP3    H147058   0.558   5.955  11.672 -0.5586 -1.0188  2.0170
 7621TIP3    H247059   0.708   5.971  11.684 -0.4171  2.8142 -2.1441
 7622TIP3   OH247060   4.669   2.886  12.321 -0.1047  0.2556 -0.3741
 7622TIP3    H147061   4.602   2.846  12.266 -1.2320  2.2297 -0.5351
 7622TIP3    H247062   4.690   2.819  12.386  0.5851 -1.8006 -2.5850
 7623TIP3   OH247063   6.572   6.085  10.354 -1.0397 -0.0512 -0.2328
 7623TIP3    H147064   6.492   6.085  10.407  0.4003  3.1207  2.2588
 7623TIP3    H247065   6.643   6.092  10.418  0.9380  2.3475 -2.4702
 7624TIP3   OH247066   4.209   3.966  10.893  0.2558 -0.0385 -0.4100
 7624TIP3    H147067   4.202   3.939  10.801  0.9143  0.1291 -0.5173
 7624TIP3    H247068   4.137   4.027  10.905  0.3819  0.2215 -0.9232
 7625TIP3   OH247069   0.762   7.453  12.419 -0.3672  0.0825 -0.3474
 7625TIP3    H147070   0.693   7.437  12.354 -0.7223 -1.7295  0.4322
 7625TIP3    H247071   0.829   7.389  12.400  0.5391  0.9808 -0.2656
 7626TIP3   OH247072   3.952   6.135  11.757 -0.4480 -0.3864 -0.1670
 7626TIP3    H147073   3.880   6.072  11.749  0.4769 -1.4678 -0.1807
 7626TIP3    H247074   3.943   6.191  11.680 -2.0918  0.3950  0.5272
 7627TIP3   OH247075   3.119   7.153  11.731 -0.7804  0.1564  0.2098
 7627TIP3    H147076   3.176   7.141  11.656  0.5377 -0.3314  1.2615
 7627TIP3    H247077   3.101   7.247  11.733 -1.2392  0.1093 -0.9780
 7628TIP3   OH247078   2.869   5.066   9.743 -0.5118  0.5583 -0.3758
 7628TIP3    H147079   2.883   5.060   9.648 -3.5910 -3.9144 -0.8945
 7628TIP3    H247080   2.929   5.002   9.780 -0.2409  1.3592  0.6099
 7629TIP3   OH247081   2.790   6.274  10.463 -0.1300  0.2657  0.0557
 7629TIP3    H147082   2.877   6.284  10.424 -0.6575 -1.0621 -1.5883
 7629TIP3    H247083   2.739   6.227  10.397 -2.4091  1.8656  0.5579
 7630TIP3   OH247084   7.185   4.319  11.224  0.1242 -0.3563 -0.3902
 7630TIP3    H147085   7.094   4.330  11.252 -0.1679 -0.4251 -1.2818
 7630TIP3    H247086   7.228   4.399  11.253 -0.2805 -0.2024 -0.1966
 7631TIP3   OH247087   4.520   2.392  10.398 -0.6688 -0.6690  0.7662
 7631TIP3    H147088   4.489   2.320  10.343 -0.1587 -1.3445  1.3430
 7631TIP3    H247089   4.605   2.416  10.359 -1.6366  0.8648 -0.5287
 7632TIP3   OH247090   2.377   5.997  11.717 -0.2859 -0.0492 -0.2810
 7632TIP3    H147091   2.344   5.907  11.715  2.5525 -1.2213  0.4452
 7632TIP3    H247092   2.427   6.006  11.636 -1.2775  1.2247 -0.7775
 7633TIP3   OH247093   7.357   3.594  10.895 -0.0026 -0.6691  0.0812
 7633TIP3    H147094   7.392   3.507  10.912 -0.2636 -0.7312  0.3237
 7633TIP3    H247095   7.415   3.653  10.942  0.4682 -0.6642 -0.4912
 7634TIP3   OH247096   5.755   3.384  11.153  0.0058 -0.1042 -0.6159
 7634TIP3    H147097   5.823   3.430  11.105 -0.5733 -0.0647 -1.4103
 7634TIP3    H247098   5.676   3.437  11.140 -0.0153  0.2959  0.9671
 7635TIP3   OH247099   1.483   6.483  11.762  0.0221 -0.4945 -0.5527
 7635TIP3    H147100   1.395   6.470  11.798 -0.3480  1.3380 -0.7308
 7635TIP3    H247101   1.512   6.394  11.740 -2.1779 -1.0866 -1.4048
 7636TIP3   OH247102   5.237   6.434  11.075  0.2616  0.7078  0.8977
 7636TIP3    H147103   5.241   6.427  11.170 -1.8658  2.0712  1.1740
 7636TIP3    H247104   5.210   6.525  11.059 -0.0657  0.3230 -0.9741
 7637TIP3   OH247105   2.723   3.527  11.827  0.1674  0.1684 -0.0824
 7637TIP3    H147106   2.818   3.518  11.820  0.1623  0.8006 -1.1476
 7637TIP3    H247107   2.706   3.620  11.811 -0.6700 -0.0256 -0.3914
 7638TIP3   OH247108   6.716   4.476  11.449  0.2782  0.6273 -0.4689
 7638TIP3    H147109   6.778   4.432  11.391  2.6633  2.2575  0.7069
 7638TIP3    H247110   6.696   4.410  11.516 -0.1495 -0.2678 -1.4479
 7639TIP3   OH247111   5.819   4.253  10.236 -0.1936  0.2174 -0.0848
 7639TIP3    H147112   5.808   4.348  10.237  1.3346  0.4168  0.5450
 7639TIP3    H247113   5.862   4.232  10.319  1.7036 -0.6907 -1.2138
 7640TIP3   OH247114   5.071   7.374  10.812 -0.6457 -0.0307 -0.2608
 7640TIP3    H147115   4.990   7.418  10.838 -1.0154  0.9309 -2.7534
 7640TIP3    H247116   5.091   7.409  10.725  3.2420  0.8138  0.7818
 7641TIP3   OH247117   5.665   7.046  11.675  0.6300  0.6016 -0.1306
 7641TIP3    H147118   5.736   6.984  11.663  1.7367  1.7428  0.3720
 7641TIP3    H247119   5.656   7.055  11.770 -0.9347 -0.3347 -0.1431
 7642TIP3   OH247120   4.743   2.841  11.146  0.3105 -0.9374 -0.7150
 7642TIP3    H147121   4.798   2.919  11.154  0.4231 -0.7634 -2.6419
 7642TIP3    H247122   4.796   2.780  11.093 -0.7134 -1.3856 -1.2562
 7643TIP3   OH247123   3.477   1.913  11.708 -0.0898  0.1248  0.2993
 7643TIP3    H147124   3.431   1.836  11.743 -0.1155  0.0948  0.1983
 7643TIP3    H247125   3.482   1.898  11.614  0.9210 -0.2925  0.4101
 7644TIP3   OH247126   6.974   0.139  12.766  0.3997 -0.3889  0.8122
 7644TIP3    H147127   7.011   0.226  12.783 -0.9862  0.0963  1.4970
 7644TIP3    H247128   6.996   0.121  12.675  1.7827  0.1265  1.0175
 7645TIP3   OH247129   1.859   0.200  11.430  0.8826  0.1032 -0.0895
 7645TIP3    H147130   1.869   0.169  11.519  2.1713 -0.6777 -0.4806
 7645TIP3    H247131   1.947   0.195  11.392  0.3408  0.2736 -1.4505
 7646TIP3   OH247132   3.172   5.721  11.191 -0.1289 -0.1884  0.2985
 7646TIP3    H147133   3.185   5.750  11.100  1.7783  0.4526  0.7327
 7646TIP3    H247134   3.242   5.764  11.240 -1.6697  0.2139  2.2552
 7647TIP3   OH247135   3.029   4.052  12.420  0.5221 -0.1052  0.1544
 7647TIP3    H147136   2.945   4.063  12.465  0.5427  0.9436 -0.0496
 7647TIP3    H247137   3.008   4.066  12.327  1.1539  1.5127  0.2373
 7648TIP3   OH247138   1.192   5.445  11.147  0.0870  0.8241 -0.4926
 7648TIP3    H147139   1.239   5.438  11.064  0.2694 -0.6251 -0.2787
 7648TIP3    H247140   1.257   5.425  11.214 -0.5607 -0.1444 -0.1322
 7649TIP3   OH247141   3.922   0.675  11.952  0.2052  0.3823 -0.4682
 7649TIP3    H147142   3.844   0.632  11.986  1.0100 -0.0891  0.8635
 7649TIP3    H247143   3.994   0.638  12.003  1.2328  1.2548 -1.2393
 7650TIP3   OH247144   6.511   0.789  11.821 -0.3954  0.0503 -0.2362
 7650TIP3    H147145   6.563   0.709  11.818 -0.9368 -0.3434  0.6492
 7650TIP3    H247146   6.476   0.798  11.732 -0.2038 -0.6089 -0.3841
 7651TIP3   OH247147   6.405   5.192  10.849  0.1194 -0.0162 -0.1915
 7651TIP3    H147148   6.405   5.121  10.785 -1.8213  0.2897 -0.5789
 7651TIP3    H247149   6.364   5.155  10.927 -1.2149  0.7350 -0.5067
 7652TIP3   OH247150   7.225   4.440  12.528 -0.0801 -0.0289  0.1019
 7652TIP3    H147151   7.159   4.424  12.595 -0.7281 -0.1738 -0.5500
 7652TIP3    H247152   7.298   4.384  12.552 -0.0378  0.4134  1.0448
 7653TIP3   OH247153   7.160   4.082  11.426 -0.0199  0.0750  0.1911
 7653TIP3    H147154   7.122   4.064  11.340  0.0593  1.2968 -0.1289
 7653TIP3    H247155   7.093   4.132  11.472  0.0991 -0.2193  0.6928
 7654TIP3   OH247156   5.262   7.595  11.622  0.6824  0.5004 -0.5442
 7654TIP3    H147157   5.228   7.657  11.557 -2.5873 -1.6234 -1.1035
 7654TIP3    H247158   5.267   7.512  11.575 -1.7161 -1.1081  1.7198
 7655TIP3   OH247159   0.249   2.565  10.637  0.2866 -0.6900  0.0997
 7655TIP3    H147160   0.243   2.593  10.546  0.3265  0.1997  0.3600
 7655TIP3    H247161   0.306   2.630  10.678 -0.3983 -0.6026  0.9445
 7656TIP3   OH247162   6.001   4.480  10.356  0.2223 -0.2566  0.5266
 7656TIP3    H147163   6.000   4.473  10.452  1.8385 -1.5745  0.4937
 7656TIP3    H247164   6.092   4.467  10.332  0.4478  3.1367 -1.0677
 7657TIP3   OH247165   6.821   1.141  10.968  0.1604 -0.2511  0.2654
 7657TIP3    H147166   6.766   1.167  10.895  0.4973 -0.1711  0.0375
 7657TIP3    H247167   6.856   1.055  10.943  0.0335 -0.3655  0.4705
 7658TIP3   OH247168   5.815   1.587   9.802  0.1887 -0.1643 -0.5080
 7658TIP3    H147169   5.781   1.645   9.870  1.2691 -0.2751  0.1492
 7658TIP3    H247170   5.766   1.506   9.812 -0.8494  0.3847 -0.9819
 7659TIP3   OH247171   2.225   4.996  10.877 -0.0137 -0.7377  0.2092
 7659TIP3    H147172   2.130   4.990  10.879 -0.1589  0.5097 -1.2145
 7659TIP3    H247173   2.253   4.959  10.961 -1.7840 -0.3168  1.0386
 7660TIP3   OH247174   2.294   7.436  12.288  0.4866  0.4485 -0.3414
 7660TIP3    H147175   2.312   7.513  12.341 -1.0477  1.4928 -1.2573
 7660TIP3    H247176   2.378   7.414  12.248  1.2191  0.8539  0.9122
 7661TIP3   OH247177   2.166   2.088  10.989  0.3654 -0.2329 -0.3524
 7661TIP3    H147178   2.180   2.000  11.024 -3.0711 -1.1590 -0.9349
 7661TIP3    H247179   2.163   2.076  10.894  0.0011  0.5593 -0.4480
 7662TIP3   OH247180   3.156   7.602  11.355 -0.3113  0.0375  0.0144
 7662TIP3    H147181   3.176   7.601  11.449 -0.4577  1.3068  0.0776
 7662TIP3    H247182   3.241   7.616  11.313  0.2735 -3.4692 -0.2765
 7663TIP3   OH247183   4.616   5.348  12.647 -0.1077  0.5326 -0.2056
 7663TIP3    H147184   4.584   5.425  12.694 -1.2499 -0.7552  1.2161
 7663TIP3    H247185   4.548   5.283  12.658  0.6560 -0.5864 -1.7248
 7664TIP3   OH247186   3.907   7.609  10.306 -0.3808  0.5560  0.3982
 7664TIP3    H147187   3.999   7.624  10.283 -0.3022 -0.8840 -0.3350
 7664TIP3    H247188   3.863   7.594  10.223 -1.1754  0.6682  0.7889
 7665TIP3   OH247189   3.908   0.861  11.084 -0.3366  0.4623  0.2270
 7665TIP3    H147190   3.831   0.819  11.123 -0.7857  0.9443 -0.1255
 7665TIP3    H247191   3.909   0.948  11.123  0.2285  0.3497  0.4767
 7666TIP3   OH247192   7.356   2.114  10.625 -0.0091  0.2066  0.0752
 7666TIP3    H147193   7.335   2.071  10.542  1.0755  0.0017 -0.1152
 7666TIP3    H247194   7.343   2.207  10.608 -0.0274  0.1464 -0.2478
 7667TIP3   OH247195   7.167   4.280   9.937 -0.4920  0.2886  0.4402
 7667TIP3    H147196   7.206   4.306  10.020 -1.9327 -0.0470  1.2540
 7667TIP3    H247197   7.111   4.354   9.913 -1.0986 -0.1626  0.4495
 7668TIP3   OH247198   6.043   2.833  11.970  0.1762 -0.1895  0.5716
 7668TIP3    H147199   5.969   2.892  11.957  1.0166  0.8082  0.1328
 7668TIP3    H247200   6.004   2.749  11.994 -1.0376  0.6714  1.7342
 7669TIP3   OH247201   7.412   6.265  10.590 -0.5126 -0.2450  0.0995
 7669TIP3    H147202   7.405   6.290  10.682 -0.2679 -1.3270  0.4320
 7669TIP3    H247203   7.425   6.347  10.543 -2.0346  0.4702  0.8744
 7670TIP3   OH247204   7.317   2.286  11.623  0.3188  0.3727 -0.3138
 7670TIP3    H147205   7.339   2.364  11.675  0.2625 -0.1519  0.5189
 7670TIP3    H247206   7.261   2.234  11.681 -0.2875  0.0778 -1.1551
 7671TIP3   OH247207   1.094   6.418  11.074 -0.0844 -0.4393 -0.3663
 7671TIP3    H147208   1.094   6.507  11.110 -3.0103  0.1584 -1.5580
 7671TIP3    H247209   1.165   6.373  11.120  0.2629  1.9600  1.6385
 7672TIP3   OH247210   7.370   5.895  12.033 -0.2075  0.0769 -0.3876
 7672TIP3    H147211   7.354   5.932  12.119 -0.1944  0.5244 -0.5788
 7672TIP3    H247212   7.459   5.921  12.012  0.0882 -0.7366 -0.1809
 7673TIP3   OH247213   0.422   5.212  10.507 -0.2492  0.1762 -0.0903
 7673TIP3    H147214   0.344   5.266  10.521 -0.0520  0.3400  0.3822
 7673TIP3    H247215   0.419   5.147  10.577 -0.7957 -0.8084 -0.9899
 7674TIP3   OH247216   7.334   3.797  10.601 -0.0580  0.6039 -0.5212
 7674TIP3    H147217   7.247   3.761  10.588 -0.3035  0.5698  1.0142
 7674TIP3    H247218   7.360   3.765  10.688  2.0838 -0.6180 -1.5318
 7675TIP3   OH247219   6.029   2.721  11.435  0.2166  0.5835  0.5197
 7675TIP3    H147220   6.075   2.753  11.514  0.2469  0.5611  0.5115
 7675TIP3    H247221   6.085   2.651  11.402  0.6547  1.1785 -0.0207
 7676TIP3   OH247222   5.211   5.100  10.623  0.1987 -0.3300 -0.1596
 7676TIP3    H147223   5.215   5.130  10.713 -0.8646  1.7704 -0.7505
 7676TIP3    H247224   5.133   5.141  10.587  0.1480 -1.7543 -1.8374
 7677TIP3   OH247225   4.689   6.886  10.631 -0.0809  0.0246  0.3387
 7677TIP3    H147226   4.733   6.874  10.715  2.7089  0.8168 -0.8938
 7677TIP3    H247227   4.663   6.978  10.629 -1.4573 -0.3235  0.8539
 7678TIP3   OH247228   7.483   4.940  12.376  0.0892  0.1803  0.2129
 7678TIP3    H147229   7.534   4.860  12.383 -1.5276 -0.8602  0.7435
 7678TIP3    H247230   7.536   5.007  12.419  1.2348 -0.7156  0.2308
 7679TIP3   OH247231   7.608   0.978  10.311 -0.8153 -0.0139  0.1188
 7679TIP3    H147232   7.523   1.021  10.304 -1.3318 -0.9476  0.5404
 7679TIP3    H247233   7.622   0.967  10.405  1.4032  3.2498  0.3416
 7680TIP3   OH247234   0.842   1.644  10.592 -0.6056  0.3549  0.0589
 7680TIP3    H147235   0.829   1.739  10.600 -0.7257  0.3471 -0.0390
 7680TIP3    H247236   0.767   1.606  10.638 -0.8889  0.3103 -0.4249
 7681TIP3   OH247237   1.082   0.862  10.405 -0.2693 -0.0131  0.3701
 7681TIP3    H147238   1.142   0.806  10.455 -0.0278  0.1400  0.2534
 7681TIP3    H247239   1.066   0.814  10.324  1.5437  0.9860 -0.6284
 7682TIP3   OH247240   4.602   2.072  10.479 -0.1565 -0.4145 -0.4369
 7682TIP3    H147241   4.691   2.107  10.481 -0.6756  1.0383 -1.2409
 7682TIP3    H247242   4.558   2.116  10.551 -1.3292  2.2001 -2.5815
 7683TIP3   OH247243   2.577   1.070  11.416 -1.0400  0.4400 -0.2869
 7683TIP3    H147244   2.668   1.094  11.429 -0.4796 -1.9860  0.9347
 7683TIP3    H247245   2.527   1.136  11.465  0.3094 -0.1551  2.0360
 7684TIP3   OH247246   1.259   7.147  11.755  0.4939  0.4273 -0.2111
 7684TIP3    H147247   1.170   7.115  11.766  0.5759 -0.2587 -1.3616
 7684TIP3    H247248   1.293   7.099  11.679  1.6372  1.1067 -0.1600
 7685TIP3   OH247249   5.723   6.769  10.336 -1.0531 -0.1833 -0.0588
 7685TIP3    H147250   5.698   6.861  10.342 -0.3640 -0.0037  0.1397
 7685TIP3    H247251   5.786   6.765  10.264 -0.9615 -0.4709  0.0333
 7686TIP3   OH247252   0.966   7.346  10.594  0.1465 -0.0955  0.4172
 7686TIP3    H147253   1.018   7.312  10.666  1.2474  0.1550 -0.2341
 7686TIP3    H247254   0.883   7.299  10.599  0.0055  0.2857  2.1410
 7687TIP3   OH247255   7.676   6.428  10.015  0.7167  0.3845 -0.1958
 7687TIP3    H147256   7.627   6.365  10.068  0.4816 -0.3576 -1.2575
 7687TIP3    H247257   7.768   6.404  10.027  0.7329  0.8211  0.6096
 7688TIP3   OH247258   7.595   1.777  10.418  0.2280 -0.0625  0.1258
 7688TIP3    H147259   7.622   1.703  10.472 -0.4387 -1.2616 -1.1290
 7688TIP3    H247260   7.579   1.848  10.481  3.8012  0.0204  1.1465
 7689TIP3   OH247261   2.650   7.204  10.194  0.2996 -0.1965  0.0461
 7689TIP3    H147262   2.621   7.170  10.109  0.0780 -0.7775  0.3464
 7689TIP3    H247263   2.667   7.297  10.179 -0.9524 -0.0173 -0.3298
 7690TIP3   OH247264   5.959   6.279   9.935  0.5232  0.1068 -0.0006
 7690TIP3    H147265   5.891   6.223   9.896  1.5630 -0.4275 -1.1270
 7690TIP3    H247266   6.041   6.234   9.913  1.3955  2.0452 -0.9313
 7691TIP3   OH247267   5.286   6.802  11.299  0.1628  0.5004 -0.4682
 7691TIP3    H147268   5.310   6.891  11.272  1.6525 -0.3323 -2.0871
 7691TIP3    H247269   5.249   6.762  11.220 -0.2065 -0.4285  0.1620
 7692TIP3   OH247270   3.554   5.376  11.064  0.3412 -0.5635 -0.0284
 7692TIP3    H147271   3.644   5.407  11.052 -0.3161  1.7173  0.5149
 7692TIP3    H247272   3.536   5.388  11.157 -0.3449 -1.6089 -0.0008
 7693TIP3   OH247273   0.795   1.125  17.091  0.1461 -0.0933 -0.9565
 7693TIP3    H147274   0.824   1.177  17.165  3.0463 -1.8133 -0.7250
 7693TIP3    H247275   0.815   1.179  17.014 -0.9030  0.8166 -0.6215
 7694TIP3   OH247276   5.159   7.010   9.627 -0.3201  0.0458 -0.0586
 7694TIP3    H147277   5.155   7.073   9.699 -1.0873  1.7644 -1.5066
 7694TIP3    H247278   5.158   7.065   9.548  1.5760 -1.6888 -1.3942
 7695TIP3   OH247279   6.574   7.537  10.645  0.3464 -0.9682 -0.2159
 7695TIP3    H147280   6.560   7.586  10.726  1.1354 -0.7532 -0.2062
 7695TIP3    H247281   6.661   7.562  10.616  0.9084 -2.5850 -0.0542
 7696TIP3   OH247282   1.207   6.461  10.699  0.1833 -0.4009  0.0080
 7696TIP3    H147283   1.261   6.516  10.643  0.4352 -0.8234 -0.1653
 7696TIP3    H247284   1.153   6.411  10.638 -0.8274  0.4371  0.1884
 7697TIP3   OH247285   5.310   5.044  11.467  0.4354  0.3753 -0.2678
 7697TIP3    H147286   5.229   5.024  11.419  0.8106  1.3020 -1.3225
 7697TIP3    H247287   5.332   4.962  11.511 -1.3594  0.2513  0.4840
 7698TIP3   OH247288   4.954   3.060  11.172  0.2167  0.0959 -0.2939
 7698TIP3    H147289   4.992   3.144  11.147 -0.1405  0.7002  1.0756
 7698TIP3    H247290   5.018   2.995  11.144  2.0098  1.0412  1.3429
 7699TIP3   OH247291   7.591   5.238  10.583 -0.5983 -0.1068 -0.0593
 7699TIP3    H147292   7.589   5.290  10.663  0.8462  1.3747 -0.9141
 7699TIP3    H247293   7.502   5.206  10.572 -0.7044 -0.8407  2.4186
 7700TIP3   OH247294   2.100   1.017  11.033  0.3074  0.0531  0.2137
 7700TIP3    H147295   2.176   0.982  10.985 -0.4874 -1.0279 -0.3054
 7700TIP3    H247296   2.069   0.944  11.086 -0.4213  0.4590  0.3616
 7701TIP3   OH247297   7.314   0.222  11.122 -0.0766 -0.2990 -0.1286
 7701TIP3    H147298   7.221   0.219  11.100 -0.0412  0.3472 -0.3815
 7701TIP3    H247299   7.358   0.183  11.046  0.0996  2.5830 -1.6539
 7702TIP3   OH247300   2.337   2.053  10.468 -0.0587 -0.0488  0.4966
 7702TIP3    H147301   2.352   2.123  10.405  0.2525 -0.3812  0.1981
 7702TIP3    H247302   2.364   1.973  10.423 -2.8849 -0.7529 -0.1665
 7703TIP3   OH247303   3.355   2.151  11.598 -0.3410 -0.3899  0.4425
 7703TIP3    H147304   3.396   2.066  11.614 -0.7329 -0.5420  0.6412
 7703TIP3    H247305   3.359   2.162  11.502  1.7517  0.4010  0.5697
 7704TIP3   OH247306   3.616   4.493  11.337 -0.1538 -0.4010 -0.2839
 7704TIP3    H147307   3.591   4.572  11.385 -1.9678 -0.1466 -1.5219
 7704TIP3    H247308   3.679   4.523  11.271  1.5993 -0.5883  1.2427
 7705TIP3   OH247309   6.442   1.615  12.179  0.0245  0.2620  0.3080
 7705TIP3    H147310   6.461   1.648  12.267 -0.1712 -0.9503  0.8353
 7705TIP3    H247311   6.373   1.550  12.193 -1.1611  1.2084 -0.9676
 7706TIP3   OH247312   5.682   1.343   9.940 -0.1592  0.5605  0.0729
 7706TIP3    H147313   5.703   1.289  10.016  1.9381  0.3797 -0.5550
 7706TIP3    H247314   5.590   1.325   9.922 -0.9021  1.0466  2.8805
 7707TIP3   OH247315   1.664   4.654  12.454 -0.3747 -0.3047 -0.3263
 7707TIP3    H147316   1.643   4.618  12.368 -0.8407 -0.0959 -0.2996
 7707TIP3    H247317   1.598   4.721  12.469  1.3520  1.6707 -1.0580
 7708TIP3   OH247318   2.325   3.699  10.585  0.4469 -0.4576  0.0312
 7708TIP3    H147319   2.320   3.772  10.523  1.5305 -0.4231 -0.0389
 7708TIP3    H247320   2.295   3.736  10.668  0.2390 -0.1467 -0.1783
 7709TIP3   OH247321   0.037   7.025  10.406  0.0324 -0.7600  0.5176
 7709TIP3    H147322   0.127   7.035  10.436  0.4920 -2.6766 -0.0731
 7709TIP3    H247323  -0.004   6.967  10.471 -0.9897  0.5314  1.0954
 7710TIP3   OH247324   5.185   1.717  11.747 -0.0999 -0.3343 -0.1881
 7710TIP3    H147325   5.131   1.640  11.761 -1.1700  0.1869 -1.3246
 7710TIP3    H247326   5.201   1.719  11.653  1.4824 -0.1815  0.0499
 7711TIP3   OH247327   4.773   0.821   9.860  0.2595 -0.6138 -0.4347
 7711TIP3    H147328   4.751   0.778   9.778  1.1860 -2.8251  0.4066
 7711TIP3    H247329   4.691   0.825   9.908 -0.0880 -0.1983 -1.0409
 7712TIP3   OH247330   3.254   5.098  10.536 -0.1073 -0.4229  0.0832
 7712TIP3    H147331   3.229   5.073  10.625 -1.9760 -1.2998 -0.6345
 7712TIP3    H247332   3.174   5.089  10.485 -0.2012  3.9850 -0.9578
 7713TIP3   OH247333   0.897   7.579  10.317  0.0460 -0.1618 -0.6482
 7713TIP3    H147334   0.864   7.557  10.405  1.6032  0.9186  0.2545
 7713TIP3    H247335   0.888   7.498  10.267  0.1302 -1.1183  0.8326
 7714TIP3   OH247336   2.571   7.450  11.322  0.3897  0.5342 -0.3263
 7714TIP3    H147337   2.636   7.415  11.262  0.0006  0.9356 -0.9908
 7714TIP3    H247338   2.508   7.496  11.266  0.9716  2.4646  0.5126
 7715TIP3   OH247339   0.416   0.465  10.366 -0.3039  0.6496  0.4767
 7715TIP3    H147340   0.357   0.494  10.296 -1.6118  1.5535  1.8907
 7715TIP3    H247341   0.406   0.370  10.369  0.2437  0.5190 -0.9342
 7716TIP3   OH247342   7.180   4.276  10.234 -0.4749 -0.2553  0.2721
 7716TIP3    H147343   7.105   4.297  10.289  0.2069  0.7499  0.8610
 7716TIP3    H247344   7.216   4.196  10.274 -1.5681 -1.1131 -0.3986
 7717TIP3   OH247345   5.775   5.934  11.846  0.8242 -0.3357 -0.0511
 7717TIP3    H147346   5.686   5.911  11.873 -0.1202  2.0249 -0.8171
 7717TIP3    H247347   5.828   5.860  11.872 -1.4758 -2.1603 -0.1895
 7718TIP3   OH247348   1.557   3.906  11.660 -0.1040 -0.0343 -0.2400
 7718TIP3    H147349   1.632   3.965  11.653 -0.8361  0.8935 -0.5448
 7718TIP3    H247350   1.489   3.959  11.700 -1.3852 -0.0690 -2.2106
 7719TIP3   OH247351   3.232   5.454  11.480 -0.4710 -0.8063 -0.1903
 7719TIP3    H147352   3.168   5.495  11.422 -0.1261  1.4594  0.9220
 7719TIP3    H247353   3.179   5.412  11.548 -0.9662  2.5920  1.7609
 7720TIP3   OH247354   0.575   3.388  10.463 -0.2430 -0.5954 -0.0678
 7720TIP3    H147355   0.621   3.311  10.431 -0.7132 -1.0980  0.4328
 7720TIP3    H247356   0.615   3.406  10.548  0.5514  0.3348 -0.6126
 7721TIP3   OH247357   1.118   6.948  10.002  0.2445  0.1362  0.1620
 7721TIP3    H147358   1.182   6.897  10.050  0.4011  1.3604  1.3060
 7721TIP3    H247359   1.169   6.994   9.935  0.1072 -1.1045 -0.8527
 7722TIP3   OH247360   3.412   5.447  12.368  0.4228 -0.0639 -0.3321
 7722TIP3    H147361   3.367   5.485  12.292 -1.7795  0.6629  1.2438
 7722TIP3    H247362   3.441   5.522  12.418 -1.1744 -0.4035  1.2159
 7723TIP3   OH247363   2.608   4.366  11.002  0.0719  0.2251 -0.3656
 7723TIP3    H147364   2.600   4.272  11.014 -0.9430  0.4438  0.8085
 7723TIP3    H247365   2.655   4.396  11.079  0.9358  0.6257 -1.0222
 7724TIP3   OH247366   1.901   5.152  12.361 -0.2818  0.3653 -0.4710
 7724TIP3    H147367   1.977   5.106  12.327  0.0363 -0.2047  0.9618
 7724TIP3    H247368   1.910   5.241  12.327 -0.3722 -0.3274 -2.4397
 7725TIP3   OH247369   6.118   6.161  10.668  0.3740 -0.4636 -0.1200
 7725TIP3    H147370   6.208   6.177  10.696  0.1694  0.1732  0.1734
 7725TIP3    H247371   6.077   6.247  10.665  0.0752 -0.6234 -1.3349
 7726TIP3   OH247372   5.482   0.384  12.475 -0.6740  0.0160 -0.0180
 7726TIP3    H147373   5.413   0.391  12.410  1.4586 -2.1480 -2.7878
 7726TIP3    H247374   5.462   0.305  12.525 -0.1966 -0.6852 -0.9092
 7727TIP3   OH247375   3.024   7.220  12.152 -0.0335 -0.3225  0.1010
 7727TIP3    H147376   3.069   7.302  12.170  0.8646 -0.7058 -0.2858
 7727TIP3    H247377   2.966   7.239  12.079 -2.4549  0.8149  2.1713
 7728TIP3   OH247378   7.129   7.603  11.829 -0.0450 -0.4848  0.0352
 7728TIP3    H147379   7.119   7.663  11.755 -1.0465 -0.5515  0.1070
 7728TIP3    H247380   7.216   7.565  11.816  0.5214  0.7984 -0.1358
 7729TIP3   OH247381   5.109   4.997   9.775 -0.3399  0.1971 -0.1939
 7729TIP3    H147382   5.196   4.978   9.741 -1.1995 -0.6114 -2.0644
 7729TIP3    H247383   5.107   5.093   9.784  0.8703  0.1909  0.2987
 7730TIP3   OH247384   1.741   7.431  12.247 -0.8625 -0.0241 -0.1110
 7730TIP3    H147385   1.674   7.494  12.274  3.0840  4.1626  1.2069
 7730TIP3    H247386   1.745   7.368  12.318 -2.2024  0.6747  0.6252
 7731TIP3   OH247387   0.415   6.217  10.273  0.3704  0.0470 -0.5156
 7731TIP3    H147388   0.511   6.214  10.278  0.4503  2.6574  2.9360
 7731TIP3    H247389   0.385   6.179  10.355 -1.5342  0.4558 -0.9765
 7732TIP3   OH247390   3.378   1.873  10.851  0.1838 -0.1011  0.0378
 7732TIP3    H147391   3.441   1.944  10.860  1.4346 -1.1080 -0.3717
 7732TIP3    H247392   3.364   1.864  10.757 -0.4689  0.0273  0.1209
 7733TIP3   OH247393   1.613   2.046  11.068  0.4941 -0.5456 -0.1479
 7733TIP3    H147394   1.562   1.984  11.120  0.1657  0.9413  1.3672
 7733TIP3    H247395   1.675   2.086  11.130  0.7680  0.5619 -1.0930
 7734TIP3   OH247396   3.027   7.349  11.432  0.4437 -0.1956  0.5560
 7734TIP3    H147397   3.003   7.427  11.383  0.0394 -0.2252  0.7027
 7734TIP3    H247398   3.046   7.382  11.520 -2.4228 -0.5621  1.4130
 7735TIP3   OH247399   4.766   2.886  10.027  0.2514  0.0991  0.7467
 7735TIP3    H147400   4.835   2.862   9.966 -0.6463 -3.6578  0.9235
 7735TIP3    H247401   4.812   2.910  10.107  1.3787  0.6870 -0.0604
 7736TIP3   OH247402   1.296   2.795  10.396  0.1908  0.0990 -0.3784
 7736TIP3    H147403   1.317   2.718  10.343 -0.1349  0.0076 -0.3760
 7736TIP3    H247404   1.227   2.840  10.347 -1.5487 -1.0509  0.9247
 7737TIP3   OH247405   0.401   5.590  10.368 -0.3375  0.5808 -0.5473
 7737TIP3    H147406   0.433   5.672  10.332  1.6279 -0.1517 -0.6108
 7737TIP3    H247407   0.388   5.534  10.291 -1.1841  0.6578 -0.4690
 7738TIP3   OH247408   5.317   7.304  10.501  0.3047  0.0567  0.2254
 7738TIP3    H147409   5.281   7.391  10.519  0.8463  0.6552 -1.3837
 7738TIP3    H247410   5.244   7.255  10.462 -0.0664 -0.3180  1.3425
 7739TIP3   OH247411   3.812   5.903  11.507  0.4463  0.1071  0.2198
 7739TIP3    H147412   3.805   5.930  11.416 -0.0147  0.0649  0.2401
 7739TIP3    H247413   3.891   5.849  11.510  0.7525  0.5358 -0.0436
 7740TIP3   OH247414   3.785   4.058  11.043  0.3082 -0.4312  0.1877
 7740TIP3    H147415   3.813   4.136  10.997  1.8314 -1.4596 -0.7195
 7740TIP3    H247416   3.745   4.090  11.124  0.0665  1.2874 -0.5887
 7741TIP3   OH247417   4.193   4.605  10.085  0.5857 -0.2216  0.4631
 7741TIP3    H147418   4.196   4.681  10.026  0.8570 -1.5779 -1.3541
 7741TIP3    H247419   4.233   4.636  10.166  0.5565  1.6105 -0.1738
 7742TIP3   OH247420   2.414   4.183   9.964 -0.8192  0.4354  0.1993
 7742TIP3    H147421   2.414   4.121  10.037 -0.8241  0.5476  0.2970
 7742TIP3    H247422   2.448   4.134   9.890  1.3908  0.9114  0.8051
 7743TIP3   OH247423   1.006   3.181  10.214 -0.1701  0.7087  0.6832
 7743TIP3    H147424   0.933   3.176  10.276  0.4716 -0.6722  1.3993
 7743TIP3    H247425   1.053   3.261  10.238 -0.0784  0.3234  1.8497
 7744TIP3   OH247426   6.087   5.820  11.925  0.2656 -0.3778  0.5814
 7744TIP3    H147427   6.078   5.876  11.847  0.6448  1.1046  1.5595
 7744TIP3    H247428   6.170   5.774  11.911  1.5993  1.6855  1.1442
 7745TIP3   OH247429   1.979   0.588  12.169  0.0564  0.9428 -0.1694
 7745TIP3    H147430   1.990   0.553  12.257 -2.3052  0.6451  0.0846
 7745TIP3    H247431   1.884   0.592  12.157  0.3132  1.0127 -2.6897
 7746TIP3   OH247432   3.699   2.393   9.890  0.2557 -0.4080  0.0606
 7746TIP3    H147433   3.625   2.443   9.924  0.0877 -1.3357  1.1444
 7746TIP3    H247434   3.759   2.459   9.856 -1.1967  0.3512 -1.1418
 7747TIP3   OH247435   6.800   3.970  10.460 -0.0620  0.1538 -0.2621
 7747TIP3    H147436   6.855   3.949  10.384 -1.7233 -0.9525 -1.2309
 7747TIP3    H247437   6.711   3.973  10.425 -0.9590 -0.9646  1.7336
 7748TIP3   OH247438   2.824   0.228  10.789 -0.4458 -0.2207  0.5231
 7748TIP3    H147439   2.908   0.193  10.758 -0.5122 -0.2846  0.4176
 7748TIP3    H247440   2.824   0.210  10.883  1.2004  2.8255  1.2437
 7749TIP3   OH247441   2.991   6.873  12.221  0.0645  0.1581  0.4026
 7749TIP3    H147442   2.922   6.890  12.157 -1.5450 -0.7693  1.8150
 7749TIP3    H247443   2.955   6.906  12.304  1.4603 -0.0675  1.1229
 7750TIP3   OH247444   4.150   6.043  11.425 -0.2859  0.8803 -0.4768
 7750TIP3    H147445   4.178   5.995  11.503 -3.0487  0.7473  0.5655
 7750TIP3    H247446   4.200   6.004  11.353  2.0858  0.7674  1.1387
 7751TIP3   OH247447   1.269   3.312  10.974  0.5350  0.5211 -0.1550
 7751TIP3    H147448   1.330   3.255  11.021 -0.0404 -0.1084 -0.1513
 7751TIP3    H247449   1.280   3.398  11.015  2.3052  0.7374 -0.9639
 7752TIP3   OH247450   2.588   2.906  11.762  0.3851 -0.3427  0.1300
 7752TIP3    H147451   2.528   2.899  11.837 -0.3599 -0.7912 -0.4906
 7752TIP3    H247452   2.571   2.993  11.726  0.3878 -0.3195  0.1838
 7753TIP3   OH247453   0.265   3.487  12.675 -0.1753 -0.0807 -0.5485
 7753TIP3    H147454   0.201   3.479  12.746  0.3603  0.5896  0.0395
 7753TIP3    H247455   0.257   3.578  12.647  1.5113  0.4681  0.5513
 7754TIP3   OH247456   2.740   4.148  10.253 -0.7276  0.7547 -0.1951
 7754TIP3    H147457   2.826   4.173  10.287  0.7144  0.0629 -2.9874
 7754TIP3    H247458   2.747   4.161  10.158 -2.9968 -1.3254 -0.7488
 7755TIP3   OH247459   3.002   6.383  12.139  0.1383 -0.5604  0.0446
 7755TIP3    H147460   2.929   6.439  12.115 -1.2850 -2.1392  0.4934
 7755TIP3    H247461   3.059   6.439  12.192 -1.5647  0.2932  1.0554
 7756TIP3   OH247462   7.129   4.564  10.896 -0.3385  0.7112 -0.0179
 7756TIP3    H147463   7.175   4.592  10.816  0.4268 -1.0979 -0.2522
 7756TIP3    H247464   7.197   4.558  10.962 -0.1412 -1.9606 -0.3555
 7757TIP3   OH247465   5.145   4.843  11.107 -0.3532  0.3362  0.1360
 7757TIP3    H147466   5.217   4.904  11.120  1.2136 -1.7991  2.4028
 7757TIP3    H247467   5.083   4.864  11.177 -0.7483  0.5581 -0.2765
 7758TIP3   OH247468   0.236   6.251  10.036  0.0964  0.2566  0.3493
 7758TIP3    H147469   0.330   6.238  10.044  0.5588  2.0510 -1.4275
 7758TIP3    H247470   0.199   6.162  10.040  1.9444 -0.5636  0.0435
 7759TIP3   OH247471   7.680   6.818   9.903 -0.3143  0.0244  0.1390
 7759TIP3    H147472   7.592   6.847   9.878 -1.1895 -1.9897  0.7070
 7759TIP3    H247473   7.697   6.862   9.986 -0.4324  1.0017 -0.3288
 7760TIP3   OH247474   1.785   2.567  12.080  0.4476 -0.1114  0.1362
 7760TIP3    H147475   1.735   2.619  12.016  1.2707 -1.0960 -1.3774
 7760TIP3    H247476   1.848   2.629  12.116 -0.5158  0.6482  0.5675
 7761TIP3   OH247477   4.642   0.073  11.941  0.3164  0.1210  0.3653
 7761TIP3    H147478   4.657   0.135  12.012 -0.0732 -0.5059  1.0065
 7761TIP3    H247479   4.592   0.002  11.981 -0.9603  0.3153 -0.8028
 7762TIP3   OH247480   4.198   3.098  10.897  0.0513  0.8606  0.4900
 7762TIP3    H147481   4.104   3.103  10.877  0.1230  1.8374  0.3213
 7762TIP3    H247482   4.240   3.085  10.811 -0.0360 -1.9342  0.7826
 7763TIP3   OH247483   3.020   0.546  11.038 -0.1392 -0.5974 -0.2768
 7763TIP3    H147484   3.098   0.515  10.992  1.1389 -0.0548  1.3774
 7763TIP3    H247485   2.948   0.493  11.004  0.9136 -0.9659 -2.0182
 7764TIP3   OH247486   4.009   7.558  11.797 -0.1900  0.1947  0.1012
 7764TIP3    H147487   3.997   7.521  11.884 -0.3803 -0.6304 -0.2643
 7764TIP3    H247488   4.089   7.609  11.803 -0.0849 -0.0369  0.7061
 7765TIP3   OH247489   1.796   4.243  11.329 -0.2883 -0.6816  0.7532
 7765TIP3    H147490   1.881   4.282  11.309 -1.2851  1.1673 -0.0738
 7765TIP3    H247491   1.807   4.209  11.418  0.8325  1.0166  1.3291
 7766TIP3   OH247492   1.601   3.279  12.367  0.3964  0.2843  0.5119
 7766TIP3    H147493   1.575   3.295  12.457 -0.9624 -1.9754  0.5960
 7766TIP3    H247494   1.529   3.313  12.314  1.0303  1.2906  0.2716
 7767TIP3   OH247495   0.254   6.569  11.048  0.1170  0.2966 -0.4139
 7767TIP3    H147496   0.329   6.627  11.063  1.2625 -0.6246 -2.1668
 7767TIP3    H247497   0.291   6.481  11.058 -1.5630 -0.2124  2.1063
 7768TIP3   OH247498   3.927   4.144  11.712 -0.5266 -0.1500 -0.0671
 7768TIP3    H147499   4.007   4.113  11.755 -0.5326 -2.9954 -1.8747
 7768TIP3    H247500   3.857   4.123  11.773 -0.1448  0.1200  0.4734
 7769TIP3   OH247501   2.216   0.509  11.924 -0.1518  0.3812 -0.2597
 7769TIP3    H147502   2.290   0.538  11.871 -1.0431  1.5839 -0.8919
 7769TIP3    H247503   2.238   0.536  12.013 -0.3265  1.7785 -0.6208
 7770TIP3   OH247504   6.749   0.327  10.136  0.0643 -0.3111  0.5063
 7770TIP3    H147505   6.738   0.419  10.114  0.5026 -0.2507  0.5341
 7770TIP3    H247506   6.660   0.293  10.142 -0.1025 -0.3152 -1.3369
 7771TIP3   OH247507   5.221   6.879   9.949  0.3984  0.6218  0.0751
 7771TIP3    H147508   5.223   6.936   9.872  0.9844 -0.6613 -0.9010
 7771TIP3    H247509   5.289   6.814   9.933  0.6672  0.4349  1.7920
 7772TIP3   OH247510   7.097   1.021  11.534 -0.4328 -0.5957 -0.8824
 7772TIP3    H147511   7.101   0.956  11.605 -0.8723 -0.0324 -0.3242
 7772TIP3    H247512   7.003   1.036  11.521 -0.3452  1.1984  0.2197
 7773TIP3   OH247513   3.176   6.791  11.044 -0.0222  0.4057 -0.2727
 7773TIP3    H147514   3.118   6.767  10.972  0.2519 -0.5636 -0.1968
 7773TIP3    H247515   3.128   6.857  11.094 -0.0778  1.3427 -1.5217
 7774TIP3   OH247516   3.328   1.541  11.435  0.8355 -0.1263 -0.0897
 7774TIP3    H147517   3.294   1.464  11.390 -0.5620  2.0534 -3.1408
 7774TIP3    H247518   3.367   1.595  11.365 -0.2943  2.9287  1.4385
 7775TIP3   OH247519   6.196   7.353  10.363  0.0783  0.8691 -0.1375
 7775TIP3    H147520   6.225   7.365  10.453 -0.9541 -2.1975  0.6993
 7775TIP3    H247521   6.261   7.293  10.325 -0.0040  1.4121 -1.1691
 7776TIP3   OH247522   4.755   7.226  10.949 -0.3185 -0.6438  0.4933
 7776TIP3    H147523   4.712   7.302  10.912  0.7477 -0.3994 -0.2873
 7776TIP3    H247524   4.802   7.260  11.026  1.0107 -0.2764 -0.4483
 7777TIP3   OH247525   0.110   4.847  10.319  0.0878 -0.4643 -0.1995
 7777TIP3    H147526   0.110   4.935  10.355  0.5119 -0.6198  0.2004
 7777TIP3    H247527   0.184   4.846  10.258  1.9018 -1.3269  1.8616
 7778TIP3   OH247528   1.821   6.600  10.430  0.7550 -0.0310  0.2795
 7778TIP3    H147529   1.800   6.511  10.458 -0.2041 -0.0298 -0.3937
 7778TIP3    H247530   1.736   6.641  10.414  1.2197  0.6329 -0.5664
 7779TIP3   OH247531   3.483   3.901  10.524  0.2088 -0.4215  0.4391
 7779TIP3    H147532   3.438   3.974  10.567 -0.8957 -1.4001  1.0063
 7779TIP3    H247533   3.420   3.869  10.459  0.1390 -1.6840  1.0989
 7780TIP3   OH247534   2.957   5.744  10.805  0.0204 -0.1838 -0.5847
 7780TIP3    H147535   3.031   5.706  10.759 -3.0622 -3.8875 -3.1280
 7780TIP3    H247536   2.945   5.689  10.883  0.0348  0.5322 -0.0614
 7781TIP3   OH247537   0.625   7.339  11.738 -0.3581 -0.0198 -0.0254
 7781TIP3    H147538   0.581   7.261  11.773 -0.1325 -0.7446 -1.2846
 7781TIP3    H247539   0.603   7.338  11.644  1.3804  0.2501 -0.4596
 7782TIP3   OH247540   2.133   5.258  10.452 -0.4182 -0.1161  0.8487
 7782TIP3    H147541   2.053   5.310  10.462 -0.8641 -0.9099  1.4584
 7782TIP3    H247542   2.168   5.250  10.541 -0.0140 -0.3327  0.6730
 7783TIP3   OH247543   5.764   7.609  11.687  0.7863 -0.2494 -0.7941
 7783TIP3    H147544   5.770   7.520  11.652  1.5302 -1.4564  2.0778
 7783TIP3    H247545   5.672   7.632  11.676  0.0754 -2.2859  0.2803
 7784TIP3   OH247546   4.919   2.705  10.933 -0.4352  0.2057 -0.1238
 7784TIP3    H147547   4.900   2.626  10.884 -1.9741 -0.1617  0.9819
 7784TIP3    H247548   4.909   2.776  10.870 -3.2369 -0.1798 -0.2136
 7785TIP3   OH247549   7.365   3.175  11.964  0.6141  0.1082 -0.1539
 7785TIP3    H147550   7.317   3.251  11.998  0.6574  0.4349 -0.8105
 7785TIP3    H247551   7.321   3.100  12.003 -0.5239  0.3978 -0.8214
 7786TIP3   OH247552   3.214   6.048   9.947 -0.1634  0.1795 -0.0123
 7786TIP3    H147553   3.127   6.020   9.976 -0.9925  0.2407 -2.2352
 7786TIP3    H247554   3.275   5.997  10.001 -1.5840 -0.9588  0.5859
 7787TIP3   OH247555   7.236   3.340  12.139 -0.2437 -0.6116  0.1660
 7787TIP3    H147556   7.174   3.410  12.159  0.6067  0.1985  0.0269
 7787TIP3    H247557   7.187   3.259  12.156 -1.7183 -0.0371 -1.0310
 7788TIP3   OH247558   1.757   2.767   9.756  0.5134 -0.0413 -0.0184
 7788TIP3    H147559   1.850   2.782   9.741  1.3673 -3.3615  1.0556
 7788TIP3    H247560   1.721   2.749   9.669  1.9779 -3.2864 -0.0997
 7789TIP3   OH247561   4.412   3.347  11.692 -0.2065  0.2986 -0.8697
 7789TIP3    H147562   4.473   3.340  11.619  0.0114  0.7170 -0.7323
 7789TIP3    H247563   4.327   3.327  11.654  0.3688 -4.5441 -0.2985
 7790TIP3   OH247564   4.251   4.519  11.279 -0.4812  0.2159 -0.4240
 7790TIP3    H147565   4.317   4.477  11.335 -1.4637 -1.6975 -0.6114
 7790TIP3    H247566   4.265   4.613  11.291  0.3455 -0.1356  1.8335
 7791TIP3   OH247567   7.005   7.016  11.177  0.7481 -0.1608 -0.2186
 7791TIP3    H147568   7.033   7.088  11.234  1.1389 -0.7176  0.3034
 7791TIP3    H247569   7.066   7.019  11.103 -0.4330  1.2495 -1.1830
 7792TIP3   OH247570   2.833   5.281  10.442 -0.9052  0.6410 -0.0008
 7792TIP3    H147571   2.799   5.271  10.353 -0.4479  0.1123 -0.1239
 7792TIP3    H247572   2.761   5.254  10.499 -0.1661 -2.2074 -0.2949
 7793TIP3   OH247573   5.290   3.846  10.501 -0.2542 -0.2697  0.2646
 7793TIP3    H147574   5.212   3.875  10.550  0.2645 -0.0653  0.9894
 7793TIP3    H247575   5.362   3.860  10.562  0.2497 -1.2569 -0.0910
 7794TIP3   OH247576   0.544   1.888  12.413  0.3010  0.4907 -0.1533
 7794TIP3    H147577   0.507   1.829  12.479  1.2171  0.3137  0.2194
 7794TIP3    H247578   0.468   1.927  12.370 -0.4329 -2.2581 -1.6185
 7795TIP3   OH247579   1.613   6.314  10.017 -0.1400  0.2623  0.1368
 7795TIP3    H147580   1.571   6.228  10.008 -0.6875  0.6491 -1.3060
 7795TIP3    H247581   1.693   6.297  10.066  0.5536 -1.3527 -1.4539
 7796TIP3   OH247582   0.092   1.910  11.578  0.2261 -0.5465  0.3241
 7796TIP3    H147583   0.135   1.995  11.584  3.1116 -1.8840  0.1179
 7796TIP3    H247584   0.060   1.906  11.487  1.0837 -0.0962 -0.0098
 7797TIP3   OH247585   4.138   3.663  10.596 -0.4780 -0.2414  0.5313
 7797TIP3    H147586   4.123   3.636  10.506  1.0740 -0.3208  0.2815
 7797TIP3    H247587   4.131   3.582  10.647 -0.4403 -0.3401  0.3783
 7798TIP3   OH247588   3.443   1.526  10.345 -0.1218  0.4795  0.4698
 7798TIP3    H147589   3.350   1.524  10.322 -0.6834  0.3488  2.5431
 7798TIP3    H247590   3.485   1.470  10.281 -1.5583  0.0904 -0.1670
 7799TIP3   OH247591   2.798   3.177   9.685 -0.4615  0.2528  0.7940
 7799TIP3    H147592   2.752   3.128   9.617 -0.6957  0.0799  1.0799
 7799TIP3    H247593   2.749   3.160   9.765 -0.1893  0.4659  1.0066
 7800TIP3   OH247594   5.162   1.515  11.090  0.3986  0.2220 -0.3822
 7800TIP3    H147595   5.167   1.458  11.013  0.5382  0.0400 -0.2372
 7800TIP3    H247596   5.253   1.541  11.106  0.2537  1.0901 -0.9048
 7801TIP3   OH247597   1.100   6.380  12.177 -0.2698 -0.6254  0.1406
 7801TIP3    H147598   1.089   6.291  12.143  0.4395 -0.0121 -1.8163
 7801TIP3    H247599   1.038   6.433  12.126  1.6984  0.5385 -1.1865
 7802TIP3   OH247600   3.836   2.206  11.004 -0.1121  0.4303  0.4000
 7802TIP3    H147601   3.770   2.137  11.016  0.5249 -0.0656  1.1449
 7802TIP3    H247602   3.891   2.175  10.932 -1.7543  1.7129 -1.5413
 7803TIP3   OH247603   5.653   0.375  11.460 -0.3956  0.5592  0.3026
 7803TIP3    H147604   5.679   0.298  11.410  1.4324  0.0588  1.9187
 7803TIP3    H247605   5.700   0.448  11.420  0.1938  0.3391  0.5843
 7804TIP3   OH247606   2.035   1.633  11.582  0.7479  0.0082 -0.3627
 7804TIP3    H147607   2.030   1.687  11.504 -0.4089 -0.5192 -0.6837
 7804TIP3    H247608   2.083   1.686  11.646  0.9307  0.7967 -1.1394
 7805TIP3   OH247609   2.011   6.699   9.737 -0.5127 -0.0877  0.7654
 7805TIP3    H147610   1.964   6.776   9.769 -0.6937 -0.6023  1.7649
 7805TIP3    H247611   1.963   6.673   9.658 -0.1033  1.1487  0.0763
 7806TIP3   OH247612   0.980   3.360  11.674 -0.2917  0.3300  0.2493
 7806TIP3    H147613   1.029   3.400  11.601 -1.7381  0.9544 -0.4175
 7806TIP3    H247614   0.907   3.419  11.689 -1.1116 -0.8196  0.9091
 7807TIP3   OH247615   5.470   0.010  11.778  0.4627 -0.5304  0.3480
 7807TIP3    H147616   5.473  -0.048  11.854  1.2174  0.0076  0.7458
 7807TIP3    H247617   5.393  -0.018  11.729 -0.2813 -0.6164  1.5339
 7808TIP3   OH247618   0.961   6.130  11.377 -0.5564  0.3062 -0.1433
 7808TIP3    H147619   0.899   6.157  11.309 -1.6077  0.6242  0.9062
 7808TIP3    H247620   0.988   6.211  11.419 -0.8091  0.0331  0.5605
 7809TIP3   OH247621   1.925   7.421  11.744  0.2420  0.1969  0.2614
 7809TIP3    H147622   1.927   7.420  11.840 -0.2908 -0.5308  0.2728
 7809TIP3    H247623   2.015   7.442  11.719  0.6073 -0.5222  0.9230
 7810TIP3   OH247624   3.043   5.626  12.578 -0.3537 -0.0665 -0.0494
 7810TIP3    H147625   3.035   5.702  12.637  0.4702 -0.3826  0.4981
 7810TIP3    H247626   3.098   5.564  12.627  0.8932 -0.0777 -1.4041
 7811TIP3   OH247627   0.773   1.159  10.889 -0.0082  0.4890  0.1077
 7811TIP3    H147628   0.744   1.231  10.944 -1.8829 -1.1948  1.4644
 7811TIP3    H247629   0.849   1.123  10.936  0.3285  0.9498 -0.0696
 7812TIP3   OH247630   7.657   2.779  11.065 -0.2434 -0.0119  0.1063
 7812TIP3    H147631   7.575   2.826  11.047 -0.5619 -0.3227  0.7412
 7812TIP3    H247632   7.632   2.708  11.123 -0.0543 -1.9582 -2.0477
 7813TIP3   OH247633   4.237   3.152  11.207 -0.9114  0.3360  0.1753
 7813TIP3    H147634   4.307   3.208  11.239 -0.8905  0.5198 -0.1895
 7813TIP3    H247635   4.279   3.067  11.192 -1.4373 -0.5719  3.1462
 7814TIP3   OH247636   3.621   3.112  11.713 -0.5829  0.4183  0.5424
 7814TIP3    H147637   3.579   3.074  11.636  1.0344  1.0447 -0.7015
 7814TIP3    H247638   3.551   3.163  11.755 -1.4527  0.1991 -0.5913
 7815TIP3   OH247639   5.418   2.014  10.194  0.1824 -0.2406 -0.1824
 7815TIP3    H147640   5.347   2.078  10.199  1.1861  0.9333 -0.5489
 7815TIP3    H247641   5.391   1.944  10.253 -0.8130  0.6540  0.4661
 7816TIP3   OH247642   6.629   1.572  10.368 -0.7676  0.1955 -0.7080
 7816TIP3    H147643   6.598   1.487  10.340  0.7871 -0.8558  0.5127
 7816TIP3    H247644   6.725   1.566  10.361 -0.6327  1.9204 -0.8053
 7817TIP3   OH247645   0.081   1.448  10.419  0.5425 -0.0274 -0.0123
 7817TIP3    H147646   0.100   1.502  10.342  0.6602 -1.1151 -0.7642
 7817TIP3    H247647   0.153   1.467  10.480  0.1189  1.3067  0.1002
 7818TIP3   OH247648   1.396   4.906   9.925 -0.1883 -0.1913  0.0164
 7818TIP3    H147649   1.438   4.979   9.879  0.6087  0.2206  1.3009
 7818TIP3    H247650   1.303   4.914   9.905 -0.3458  2.1536  1.3359
 7819TIP3   OH247651   5.756   3.915  10.323 -0.3268 -0.2824 -0.3479
 7819TIP3    H147652   5.661   3.922  10.333 -0.3672  1.0072 -1.2833
 7819TIP3    H247653   5.775   3.965  10.244  1.4417  2.1332  1.4284
 7820TIP3   OH247654   0.456   6.900  11.777 -0.8136 -0.2689  0.4753
 7820TIP3    H147655   0.429   6.809  11.764 -1.8731  0.0702  0.1250
 7820TIP3    H247656   0.444   6.915  11.871  1.1009 -0.9942  0.8705
 7821TIP3   OH247657   6.527   7.257  11.956 -0.6211  0.2725 -0.0652
 7821TIP3    H147658   6.489   7.344  11.962 -0.5163  0.2710  0.6945
 7821TIP3    H247659   6.591   7.253  12.027 -0.0897 -0.1629 -0.5564
 7822TIP3   OH247660   1.386   4.840  12.689  0.1679 -0.6111  0.2358
 7822TIP3    H147661   1.416   4.827  12.599  1.9347  0.0270  0.6885
 7822TIP3    H247662   1.363   4.933  12.693 -2.4206 -1.1540 -0.2025
 7823TIP3   OH247663   4.071   5.372  11.577  0.3887 -0.7399  0.1176
 7823TIP3    H147664   4.000   5.408  11.525  0.1740 -2.1213 -0.6110
 7823TIP3    H247665   4.035   5.364  11.665  1.1320  2.7072  0.8513
 7824TIP3   OH247666   4.282   4.445  11.647  0.5347 -0.0376 -0.3060
 7824TIP3    H147667   4.330   4.411  11.572  1.2791  0.1892  0.0647
 7824TIP3    H247668   4.290   4.378  11.715  1.3224  0.5038  0.1502
 7825TIP3   OH247669   6.380   0.370  11.127  0.1593  0.0912  0.1045
 7825TIP3    H147670   6.366   0.280  11.097 -0.0536 -0.8041  2.6131
 7825TIP3    H247671   6.475   0.379  11.132  0.1871 -0.7776  1.8157
 7826TIP3   OH247672   5.571   4.365  10.403  0.5389 -0.0319 -0.5225
 7826TIP3    H147673   5.592   4.452  10.369  2.3686 -0.1880  0.0723
 7826TIP3    H247674   5.518   4.324  10.335  1.4142  0.8020 -1.7465
 7827TIP3   OH247675   7.374   7.404  11.999  0.5871  0.6259 -0.1108
 7827TIP3    H147676   7.432   7.474  12.029 -0.4087  2.2279 -1.7345
 7827TIP3    H247677   7.352   7.427  11.909 -1.9383 -0.3154  0.1648
 7828TIP3   OH247678   6.792   2.599   9.970 -0.1400 -0.1838 -0.1783
 7828TIP3    H147679   6.783   2.684   9.928  1.4619 -0.1081 -0.4177
 7828TIP3    H247680   6.823   2.619  10.058 -0.7866 -0.4816  0.1258
 7829TIP3   OH247681   1.657   0.370  10.033  0.2508  0.1116 -0.6382
 7829TIP3    H147682   1.707   0.449  10.013  0.3977  0.4427  0.9029
 7829TIP3    H247683   1.571   0.403  10.062 -0.1384 -0.3645 -1.2201
 7830TIP3   OH247684   5.455   6.405  10.763 -0.1893  0.6919 -0.1596
 7830TIP3    H147685   5.467   6.384  10.855 -0.5726  1.9774  0.2123
 7830TIP3    H247686   5.360   6.402  10.750 -0.1438  0.6010 -0.4927
 7831TIP3   OH247687   7.243   4.553  11.349  0.1021 -0.5228 -0.2888
 7831TIP3    H147688   7.161   4.565  11.398  0.6970 -0.9202  0.8215
 7831TIP3    H247689   7.249   4.631  11.294  0.3229  0.8463  1.5840
 7832TIP3   OH247690   2.123   3.944  10.234  0.5351  0.0276  0.6238
 7832TIP3    H147691   2.117   4.028  10.189  1.5273 -0.7750 -1.1339
 7832TIP3    H247692   2.039   3.902  10.217  1.1900 -0.6087 -1.3165
 7833TIP3   OH247693   3.120   5.217  12.224 -0.0006 -0.0241 -0.1124
 7833TIP3    H147694   3.160   5.262  12.150  1.8179  0.2227  0.9664
 7833TIP3    H247695   3.104   5.286  12.289  1.8593 -0.6883  1.1472
 7834TIP3   OH247696   5.298   0.555  11.243  0.0125 -0.9067 -0.1815
 7834TIP3    H147697   5.276   0.462  11.242 -1.0187 -0.6805 -0.1997
 7834TIP3    H247698   5.214   0.600  11.230  0.8498 -0.0182 -3.2277
 7835TIP3   OH247699   6.157   7.149  11.583  0.0636  0.4883 -0.1839
 7835TIP3    H147700   6.211   7.071  11.595  0.4577  0.5041 -1.6121
 7835TIP3    H247701   6.075   7.117  11.545  0.0079  0.6998 -0.2453
 7836TIP3   OH247702   5.051   6.332  11.322  0.5426  0.1243  0.1827
 7836TIP3    H147703   5.144   6.308  11.319  0.1543 -1.6649  1.2734
 7836TIP3    H247704   5.008   6.273  11.261 -0.1010 -0.1932  0.9296
 7837TIP3   OH247705   0.579   2.907  11.108 -0.1272 -0.1336 -0.0422
 7837TIP3    H147706   0.536   2.989  11.131 -0.2586 -0.3560  0.5359
 7837TIP3    H247707   0.673   2.924  11.119 -0.1450 -0.0136 -0.0809
 7838TIP3   OH247708   4.125   7.103  10.474  0.4806  0.0925 -0.2171
 7838TIP3    H147709   4.082   7.019  10.457 -0.2699  0.7694 -1.9595
 7838TIP3    H247710   4.070   7.145  10.539  1.7572 -1.3765  1.9212
 7839TIP3   OH247711   4.425   5.678  10.195 -0.3342 -0.1003 -0.8826
 7839TIP3    H147712   4.454   5.649  10.282 -0.9408  1.6829 -0.0357
 7839TIP3    H247713   4.330   5.668  10.196 -0.5529  1.6464 -0.6101
 7840TIP3   OH247714   1.035   0.094  10.012  0.1407  0.3769 -0.1528
 7840TIP3    H147715   1.029   0.118  10.104 -3.0231  0.0217 -0.1592
 7840TIP3    H247716   0.978   0.018  10.003  2.3448 -1.2183 -1.9907
 7841TIP3   OH247717   0.443   5.009  10.286  0.2512  0.4241  0.1628
 7841TIP3    H147718   0.386   5.066  10.339 -1.8805 -1.2091 -0.2400
 7841TIP3    H247719   0.503   4.969  10.350 -0.7448  0.2397  1.0124
 7842TIP3   OH247720   1.834   3.733  10.294 -0.2854 -0.1593  0.3167
 7842TIP3    H147721   1.831   3.716  10.200  0.4007  0.2467  0.2111
 7842TIP3    H247722   1.896   3.669  10.328 -1.0580 -0.7609  0.6042
 7843TIP3   OH247723   3.616   6.285  11.456  0.2983  0.0397 -0.2265
 7843TIP3    H147724   3.568   6.208  11.488  1.0392 -0.5383 -0.4512
 7843TIP3    H247725   3.564   6.360  11.483  0.1646 -0.4951  1.0427
 7844TIP3   OH247726   2.624   1.978  12.276 -0.5363 -0.1825  0.2340
 7844TIP3    H147727   2.711   1.939  12.271 -0.3182  0.3742 -0.5346
 7844TIP3    H247728   2.568   1.907  12.309  0.2628 -0.4306  1.0974
 7845TIP3   OH247729   0.574   2.961  10.169  0.2872  0.1131 -0.1026
 7845TIP3    H147730   0.569   2.993  10.259  0.1437  0.3284 -0.1878
 7845TIP3    H247731   0.559   3.038  10.115 -1.1421 -0.2657 -0.2972
 7846TIP3   OH247732   4.735   6.825  11.244 -0.1006  0.3354  0.0183
 7846TIP3    H147733   4.770   6.793  11.327  0.1224  1.3366  0.3326
 7846TIP3    H247734   4.688   6.905  11.267 -0.9103  0.0721 -0.6876
 7847TIP3   OH247735   3.823   2.479  10.549 -0.2487 -0.6052 -0.5615
 7847TIP3    H147736   3.839   2.487  10.455 -0.8544 -0.9868 -0.6999
 7847TIP3    H247737   3.731   2.454  10.556 -1.0850  2.2522  0.2346
 7848TIP3   OH247738   2.710   1.806  10.684 -0.1963 -0.1362  0.0506
 7848TIP3    H147739   2.661   1.864  10.743  0.7616  0.0536  0.6710
 7848TIP3    H247740   2.801   1.833  10.693 -0.1053  0.4892 -2.1997
 7849TIP3   OH247741   7.508   1.693   9.770 -0.0512  0.0832 -0.2748
 7849TIP3    H147742   7.549   1.693   9.684 -1.1104 -0.4489 -0.8016
 7849TIP3    H247743   7.578   1.720   9.830  0.8649 -0.1368 -1.2131
 7850TIP3   OH247744   3.889   0.931  11.862 -0.2458 -0.0416  0.4202
 7850TIP3    H147745   3.970   0.963  11.821 -0.1880 -0.6647  0.0342
 7850TIP3    H247746   3.911   0.842  11.891 -0.1566  0.5249  2.2019
 7851TIP3   OH247747   2.678   6.533  10.556 -0.7620  0.0952  0.2702
 7851TIP3    H147748   2.673   6.449  10.510  0.3101  0.6151 -0.8420
 7851TIP3    H247749   2.767   6.537  10.590 -1.1732  0.2632  1.3918
 7852TIP3   OH247750   4.624   2.473  12.242 -0.2369  0.0370 -0.4825
 7852TIP3    H147751   4.696   2.413  12.223  0.0408  0.4089 -0.6103
 7852TIP3    H247752   4.559   2.419  12.288  0.3353 -0.1765  0.0839
 7853TIP3   OH247753   1.893   2.757  10.776  0.7048 -0.1571 -0.6231
 7853TIP3    H147754   1.949   2.799  10.841  0.1756 -1.3235  0.6258
 7853TIP3    H247755   1.895   2.664  10.798 -1.0965 -0.3338 -1.0119
 7854TIP3   OH247756   4.868   1.940  11.166 -0.4907  0.3085 -0.1859
 7854TIP3    H147757   4.941   1.981  11.211 -0.6739  0.2749  0.1383
 7854TIP3    H247758   4.906   1.861  11.126 -0.2365  0.5615 -0.4549
 7855TIP3   OH247759   4.742   0.971  11.155  0.6200  0.5553  0.3992
 7855TIP3    H147760   4.723   1.064  11.151  1.1532  0.6662  0.2741
 7855TIP3    H247761   4.673   0.929  11.103  0.0172  0.8174  0.9826
 7856TIP3   OH247762   2.364   2.609   9.586 -0.0236 -0.5829  0.2431
 7856TIP3    H147763   2.420   2.673   9.631 -0.6327 -1.2349  2.0111
 7856TIP3    H247764   2.367   2.636   9.494 -0.3772  2.0821  0.9173
 7857TIP3   OH247765   2.577   3.769  11.694  0.9043  0.3228  0.7730
 7857TIP3    H147766   2.608   3.753  11.605  0.1679  0.6382  0.4457
 7857TIP3    H247767   2.492   3.726  11.698  0.0307  1.9462  0.6738
 7858TIP3   OH247768   4.495   5.567  11.378 -0.3252  0.1265 -0.3502
 7858TIP3    H147769   4.426   5.501  11.386  1.9111 -2.6715 -1.7730
 7858TIP3    H247770   4.548   5.557  11.457  0.6785 -0.7432 -1.0861
 7859TIP3   OH247771   2.541   1.640  11.705 -0.7342 -0.3571  0.5180
 7859TIP3    H147772   2.570   1.559  11.662 -0.2263 -1.2677  2.4700
 7859TIP3    H247773   2.563   1.709  11.643 -0.4016 -1.6186 -0.8429
 7860TIP3   OH247774   3.668   0.760  11.202  0.1804  0.2383 -0.2487
 7860TIP3    H147775   3.590   0.811  11.181 -0.1584  0.4054  1.2756
 7860TIP3    H247776   3.643   0.669  11.184 -0.9630  0.1063  1.7459
 7861TIP3   OH247777   5.184   7.319  12.334 -0.2518  0.3176  0.4368
 7861TIP3    H147778   5.256   7.322  12.271  0.7083  0.4291  1.4999
 7861TIP3    H247779   5.164   7.226  12.344 -0.9934  0.3445 -0.6497
 7862TIP3   OH247780   3.432   2.170  10.098  0.1521 -0.7829 -0.3566
 7862TIP3    H147781   3.526   2.154  10.104 -0.1031 -1.8619  1.4514
 7862TIP3    H247782   3.413   2.231  10.169 -0.7392 -1.8031  0.3043
 7863TIP3   OH247783   6.650   4.887  10.629  0.0643 -0.8257 -0.0604
 7863TIP3    H147784   6.599   4.959  10.592  0.7346 -0.1379  0.3237
 7863TIP3    H247785   6.708   4.860  10.558 -1.0367 -1.8543 -0.6215
 7864TIP3   OH247786   3.228   5.675  11.801  0.2115  0.2084  0.0422
 7864TIP3    H147787   3.260   5.765  11.788 -0.3066  0.1388 -2.1851
 7864TIP3    H247788   3.290   5.621  11.752 -0.3117 -0.4925  0.1434
 7865TIP3   OH247789   4.391   7.094   9.984 -0.0005 -0.0345 -0.7211
 7865TIP3    H147790   4.321   7.079  10.047  0.7936  0.3160  0.2671
 7865TIP3    H247791   4.346   7.102   9.900 -0.9889 -1.6430 -0.3962
 7866TIP3   OH247792   5.585   4.715  11.450 -0.5841 -0.8739 -0.7461
 7866TIP3    H147793   5.627   4.631  11.469 -0.6846 -1.3255 -2.3751
 7866TIP3    H247794   5.609   4.733  11.360 -0.6249  0.8395 -0.4417
 7867TIP3   OH247795   6.666   3.951  10.721 -0.1150 -0.3014  0.0108
 7867TIP3    H147796   6.722   3.873  10.722 -0.6618 -0.7408 -1.5441
 7867TIP3    H247797   6.718   4.018  10.676  0.2013  0.1469  1.0027
 7868TIP3   OH247798   1.843   2.653  11.016 -0.5245 -0.0643  0.9696
 7868TIP3    H147799   1.872   2.563  11.028  0.9954  0.0914 -0.9772
 7868TIP3    H247800   1.747   2.648  11.012 -0.4219 -1.7743 -0.2955
 7869TIP3   OH247801   0.054   1.987  12.230 -0.7367  0.5501  0.4856
 7869TIP3    H147802   0.011   1.950  12.307 -1.2957  2.0043  0.8903
 7869TIP3    H247803   0.030   2.079  12.230 -0.7202  0.6009 -1.4178
 7870TIP3   OH247804   3.073   4.164  11.023  0.4754  0.2339  0.5980
 7870TIP3    H147805   3.005   4.224  11.056 -0.0345 -0.3856  0.6910
 7870TIP3    H247806   3.065   4.170  10.928  0.1727  0.0310  0.6102
 7871TIP3   OH247807   1.003   1.738  11.629  0.0830 -0.1781 -0.3521
 7871TIP3    H147808   0.961   1.731  11.543  0.4627  2.4180 -0.8507
 7871TIP3    H247809   1.097   1.741  11.610  0.4090 -2.6936  0.4841
 7872TIP3   OH247810   3.856   1.129  10.431 -0.3811 -0.4037 -0.2739
 7872TIP3    H147811   3.899   1.110  10.347 -0.5913 -0.3025 -0.4061
 7872TIP3    H247812   3.916   1.094  10.497 -0.0267 -0.1380 -0.4497
 7873TIP3   OH247813   1.207   3.875  11.322  0.0002 -0.0369 -0.1480
 7873TIP3    H147814   1.287   3.826  11.306 -0.5110 -0.9289 -0.0317
 7873TIP3    H247815   1.166   3.883  11.236 -0.0652 -0.0950 -0.1230
 7874TIP3   OH247816   6.305   0.282  12.103  0.5277  0.0074 -0.3275
 7874TIP3    H147817   6.337   0.236  12.180  2.0559  0.9439 -0.3679
 7874TIP3    H247818   6.379   0.283  12.042  0.3707  1.9481 -0.5703
 7875TIP3   OH247819   6.131   0.842   9.941  0.0987  0.2372 -0.0338
 7875TIP3    H147820   6.042   0.859   9.910 -1.2188 -2.2157  1.9603
 7875TIP3    H247821   6.119   0.818  10.033  2.8488 -0.2252  0.2723
 7876TIP3   OH247822   5.536   5.668  11.433 -0.1465 -0.1806 -0.0199
 7876TIP3    H147823   5.579   5.644  11.351  1.5837  2.6962 -0.0666
 7876TIP3    H247824   5.482   5.743  11.411 -1.3143 -0.6537  1.1033
 7877TIP3   OH247825   6.590   4.793  10.177  0.3530 -0.3456  0.4173
 7877TIP3    H147826   6.554   4.707  10.195 -1.6607  0.8344  2.6554
 7877TIP3    H247827   6.558   4.816  10.090  0.3535 -1.5570  0.0904
 7878TIP3   OH247828   1.988   3.958  11.220  0.1682  0.1204  0.0649
 7878TIP3    H147829   2.009   3.870  11.254  2.0047  0.4869 -0.0333
 7878TIP3    H247830   1.992   4.014  11.298 -0.9380  0.1517  0.1152
 7879TIP3   OH247831   1.859   6.381  12.193 -0.1957  0.5017  0.2886
 7879TIP3    H147832   1.884   6.469  12.222 -0.4473  1.5448 -2.3214
 7879TIP3    H247833   1.926   6.323  12.228  0.0324  1.7145  1.9914
 7880TIP3   OH247834   6.894   5.947  10.323  0.0957  0.2074 -0.7256
 7880TIP3    H147835   6.903   6.032  10.364 -1.8968  0.7933 -1.3733
 7880TIP3    H247836   6.951   5.951  10.246 -0.6091  1.3034 -1.2215
 7881TIP3   OH247837   4.925   5.928  11.548  0.4730  0.1855 -0.0391
 7881TIP3    H147838   4.884   5.902  11.465 -1.1781  0.5613  0.6244
 7881TIP3    H247839   4.942   5.845  11.593 -1.4355  0.0575  0.5197
 7882TIP3   OH247840   4.599   4.784  11.191  0.0898 -0.2018  0.2235
 7882TIP3    H147841   4.643   4.869  11.191  1.8081 -1.0376 -0.5147
 7882TIP3    H247842   4.609   4.752  11.101  0.7369 -1.7885  0.8178
 7883TIP3   OH247843   6.306   2.864  11.917 -0.2335  0.3103 -0.4606
 7883TIP3    H147844   6.222   2.861  11.961  0.7743 -0.1391  1.5683
 7883TIP3    H247845   6.357   2.928  11.966  2.1355 -2.7666  1.4957
 7884TIP3   OH247846   0.777   3.643  12.042 -0.1829 -0.1672  0.0471
 7884TIP3    H147847   0.801   3.702  11.970  1.9460  1.6810  2.1094
 7884TIP3    H247848   0.843   3.573  12.038 -0.2594 -0.2356 -0.0062
 7885TIP3   OH247849   3.994   7.536  11.299 -0.6801 -0.4548  0.3823
 7885TIP3    H147850   4.041   7.478  11.239  3.3084  0.8079  1.9453
 7885TIP3    H247851   3.985   7.619  11.252 -0.4281 -0.3928  0.4455
 7886TIP3   OH247852   3.274   1.042  10.954 -0.2761 -0.4557  0.4655
 7886TIP3    H147853   3.228   0.967  10.990 -0.4596 -0.1314  0.9090
 7886TIP3    H247854   3.311   1.087  11.030  1.0869 -0.9060  0.1089
 7887TIP3   OH247855   7.569   4.039  10.047  0.0864  0.0334 -0.0303
 7887TIP3    H147856   7.611   3.997  10.121 -0.5318 -0.2138  0.1895
 7887TIP3    H247857   7.515   3.970  10.007  0.7987  0.0281 -1.0116
 7888TIP3   OH247858   4.202   6.433  12.552  0.1171 -0.4805  0.0543
 7888TIP3    H147859   4.294   6.437  12.578  0.2023 -2.1519  0.0886
 7888TIP3    H247860   4.158   6.494  12.612  1.1303  0.0663  0.2747
 7889TIP3   OH247861   0.168   2.552  10.058 -0.1241 -0.4020 -0.0479
 7889TIP3    H147862   0.101   2.561  10.126 -0.6373 -3.2162 -0.0801
 7889TIP3    H247863   0.181   2.641  10.026 -1.7410  0.6403  1.9382
 7890TIP3   OH247864   6.228   5.562  11.267 -0.3660  0.0913 -0.0668
 7890TIP3    H147865   6.271   5.647  11.278 -0.8778  0.4046 -0.4543
 7890TIP3    H247866   6.265   5.526  11.187 -1.2479  0.6352 -0.7415
 7891TIP3   OH247867   5.371   0.298  10.694  0.3547  0.6179 -0.1887
 7891TIP3    H147868   5.391   0.373  10.750 -0.6627  0.8214 -0.0735
 7891TIP3    H247869   5.443   0.295  10.631  1.5550  0.3355  1.1624
 7892TIP3   OH247870   7.117   0.800  12.510  0.0264 -0.4486  0.2696
 7892TIP3    H147871   7.211   0.808  12.525 -0.5358  0.5205  4.1694
 7892TIP3    H247872   7.093   0.715  12.546 -0.5182 -1.1666 -1.6526
 7893TIP3   OH247873   1.884   2.111  11.157  0.5143  0.0752  0.1058
 7893TIP3    H147874   1.951   2.060  11.112 -0.5477  0.5387 -2.1326
 7893TIP3    H247875   1.931   2.156  11.227  2.2151 -0.8840 -0.3743
 7894TIP3   OH247876   5.425   5.793  10.162  0.0228 -0.0060 -0.5129
 7894TIP3    H147877   5.337   5.821  10.186 -0.1639 -2.0882  1.5968
 7894TIP3    H247878   5.439   5.712  10.211  3.5953  0.8709  0.2511
 7895TIP3   OH247879   4.390   6.778  11.762  0.2513  0.7535 -0.2971
 7895TIP3    H147880   4.429   6.802  11.678 -1.5991 -0.3984 -1.5752
 7895TIP3    H247881   4.317   6.839  11.772  0.8401  1.3087  0.8425
 7896TIP3   OH247882   1.749   3.855  11.876  0.3769 -0.6036  0.4044
 7896TIP3    H147883   1.679   3.850  11.810 -1.0157  0.6619  1.7073
 7896TIP3    H247884   1.826   3.882  11.827 -0.8084  1.0867 -0.6515
 7897TIP3   OH247885   6.519   2.190  10.386  0.0511  0.5548 -0.2587
 7897TIP3    H147886   6.539   2.181  10.293 -0.9812  0.2224 -0.4697
 7897TIP3    H247887   6.519   2.285  10.401  1.6437  0.5808 -0.2391
 7898TIP3   OH247888   0.595   0.098  12.414 -0.2399  0.0965 -0.1689
 7898TIP3    H147889   0.530   0.036  12.449 -0.6713  1.4687  1.6722
 7898TIP3    H247890   0.672   0.085  12.468 -0.0119  0.4956 -0.3913
 7899TIP3   OH247891   5.686   5.093  11.146  0.3755  0.2015 -0.4574
 7899TIP3    H147892   5.669   5.118  11.055 -2.5756  2.5167  0.5561
 7899TIP3    H247893   5.754   5.154  11.174 -0.2515  0.9923 -0.5784
 7900TIP3   OH247894   6.116   3.501  11.144  0.5475  0.2116  0.3881
 7900TIP3    H147895   6.122   3.585  11.098  1.0736  0.2170  0.4567
 7900TIP3    H247896   6.132   3.523  11.236  0.3471  0.0839  0.4531
 7901TIP3   OH247897   1.578   2.369  10.388  0.1837 -0.2502  0.3210
 7901TIP3    H147898   1.637   2.312  10.338 -0.0051  0.8471 -1.2148
 7901TIP3    H247899   1.529   2.309  10.444  1.2201 -1.4063  0.0360
 7902TIP3   OH247900   1.684   7.546  10.178  0.4221  0.5685 -0.0058
 7902TIP3    H147901   1.627   7.622  10.164 -0.3510  0.2097  1.0539
 7902TIP3    H247902   1.771   7.575  10.152 -0.1169  1.3533 -0.9900
 7903TIP3   OH247903   0.711   6.947  11.555  0.1159 -0.0709 -0.4760
 7903TIP3    H147904   0.771   7.008  11.514  0.6115  0.3072  0.7569
 7903TIP3    H247905   0.632   6.998  11.573 -1.4736 -1.0393 -3.9062
 7904TIP3   OH247906   1.774   5.798  11.007 -0.1495 -0.5083  0.3537
 7904TIP3    H147907   1.734   5.857  11.072  1.3181  1.0782 -0.1089
 7904TIP3    H247908   1.865   5.791  11.035  0.4356 -0.0428 -1.3229
 7905TIP3   OH247909   4.537   5.502  11.103 -0.6695 -0.7082 -0.2398
 7905TIP3    H147910   4.534   5.533  11.193 -1.9760 -1.2130 -0.1020
 7905TIP3    H247911   4.500   5.574  11.052 -1.4815 -1.0795 -0.1825
 7906TIP3   OH247912   3.262   0.305  11.538 -0.0291  0.0298 -0.0042
 7906TIP3    H147913   3.306   0.387  11.517  2.2652 -1.5982 -2.2297
 7906TIP3    H247914   3.201   0.290  11.466  0.5275 -0.8114 -0.3201
 7907TIP3   OH247915   3.568   7.186  16.093 -0.6256  0.0799 -0.0931
 7907TIP3    H147916   3.488   7.236  16.109  0.7196  1.6496  2.2110
 7907TIP3    H247917   3.592   7.208  16.002 -2.7436 -0.4282 -0.8280
 7908TIP3   OH247918   0.131   5.085  10.039 -0.3819  0.1667 -0.0946
 7908TIP3    H147919   0.110   5.164   9.989  0.6357  0.9080  0.6167
 7908TIP3    H247920   0.045   5.051  10.066 -0.8489  0.8614 -0.6483
 7909TIP3   OH247921   5.761   2.400  11.765 -0.2735 -0.3046  0.4226
 7909TIP3    H147922   5.686   2.421  11.709 -0.1224  0.7813  0.6184
 7909TIP3    H247923   5.796   2.484  11.792  3.6484 -0.4730 -3.0478
 7910TIP3   OH247924   2.942   2.502  11.188 -0.1315 -0.3159 -0.1214
 7910TIP3    H147925   3.008   2.458  11.135  0.8108 -2.2617  2.4912
 7910TIP3    H247926   2.984   2.582  11.218 -0.0292 -0.1040 -0.8192
 7911TIP3   OH247927   2.508   5.422  11.863 -0.1847  0.4303  0.0911
 7911TIP3    H147928   2.593   5.403  11.824 -0.2742  3.3043 -1.7255
 7911TIP3    H247929   2.520   5.403  11.956  2.8340  1.8449  0.1003
 7912TIP3   OH247930   0.299   2.544  12.329  0.0198 -0.1403 -0.0895
 7912TIP3    H147931   0.372   2.482  12.330  0.9439  0.8924  1.5329
 7912TIP3    H247932   0.258   2.535  12.415  1.7192  3.1213  1.2601
 7913TIP3   OH247933   0.320   1.968  10.300  0.0137 -0.1181 -0.7335
 7913TIP3    H147934   0.313   1.911  10.223 -0.3269 -0.7997 -0.2154
 7913TIP3    H247935   0.314   2.057  10.265 -2.0334 -0.4361 -1.3361
 7914TIP3   OH247936   1.255   4.624  11.618  0.3768 -0.3327  0.6370
 7914TIP3    H147937   1.249   4.571  11.698  2.2628  1.6529  2.2152
 7914TIP3    H247938   1.344   4.658  11.618  0.4115 -0.1717 -2.3220
 7915TIP3   OH247939   5.213   1.366  12.143 -0.1466 -0.5913 -0.6908
 7915TIP3    H147940   5.191   1.323  12.226 -0.7747  1.7105  0.4127
 7915TIP3    H247941   5.231   1.456  12.167  2.5644 -0.4785 -2.7162
 7916TIP3   OH247942   4.063   6.327  10.107 -0.0135  0.4567  0.1315
 7916TIP3    H147943   3.986   6.344  10.162 -1.1013  4.6178 -2.2400
 7916TIP3    H247944   4.047   6.241  10.069 -3.9247  1.3526 -0.6788
 7917TIP3   OH247945   2.309   2.547  10.818 -0.1640  0.2158  0.2916
 7917TIP3    H147946   2.275   2.633  10.791 -0.3903  0.1050  0.2265
 7917TIP3    H247947   2.231   2.493  10.829  0.0554 -0.5118 -1.4601
 7918TIP3   OH247948   2.406   1.397  11.795 -0.2067 -0.1947 -0.1599
 7918TIP3    H147949   2.310   1.394  11.791 -0.2060  0.6324 -1.1394
 7918TIP3    H247950   2.428   1.489  11.786  0.6645 -0.2158  1.2965
 7919TIP3   OH247951   5.002   0.904  10.008  0.0361  0.3169 -0.0884
 7919TIP3    H147952   4.976   0.996  10.018  0.2547  0.3665  0.0255
 7919TIP3    H247953   4.926   0.862   9.969 -0.4856  0.3167  0.8906
 7920TIP3   OH247954   7.128   0.371  10.479  0.9240 -0.5716 -0.2415
 7920TIP3    H147955   7.071   0.300  10.449  0.7711 -1.2191  1.4648
 7920TIP3    H247956   7.159   0.413  10.398  1.0095 -2.5648 -1.3144
 7921TIP3   OH247957   4.725   6.114  10.414  0.2148 -0.1547  0.1485
 7921TIP3    H147958   4.791   6.182  10.414  0.3548 -0.2848  0.7595
 7921TIP3    H247959   4.648   6.155  10.454  0.5058 -0.5358  1.1387
 7922TIP3   OH247960   3.801   0.517  10.108  0.5488 -0.2321  0.0747
 7922TIP3    H147961   3.725   0.459  10.118 -0.4774  1.2197  1.0704
 7922TIP3    H247962   3.765   0.598  10.074  1.8063  0.2080 -0.2637
 7923TIP3   OH247963   0.672   1.931  11.763  0.5220 -0.3615 -0.2413
 7923TIP3    H147964   0.597   1.923  11.822  1.6524 -0.4083  1.2433
 7923TIP3    H247965   0.698   2.023  11.770  0.0637 -0.1212 -1.4652
 7924TIP3   OH247966   3.248   4.660   9.766  0.2106 -0.1164  0.4728
 7924TIP3    H147967   3.251   4.584   9.708 -1.5753  1.0497 -1.3130
 7924TIP3    H247968   3.338   4.674   9.794  1.5347  0.2249 -3.4313
 7925TIP3   OH247969   1.043   0.392   9.949  0.3276  0.4692  0.5559
 7925TIP3    H147970   1.040   0.304   9.985  0.0173 -0.1770 -0.9581
 7925TIP3    H247971   0.963   0.434   9.981 -0.0826 -0.1796  0.4106
 7926TIP3   OH247972   6.127   1.859  10.693  0.2403 -0.4850 -0.6815
 7926TIP3    H147973   6.046   1.840  10.645  0.9343 -0.1544 -2.0167
 7926TIP3    H247974   6.186   1.896  10.627  1.2458 -0.0692  0.4218
 7927TIP3   OH247975   3.997   4.207  10.080 -0.0011  0.5437 -0.0354
 7927TIP3    H147976   4.032   4.216   9.991  0.3080 -2.2631 -0.2751
 7927TIP3    H247977   4.054   4.142  10.121 -0.6415  1.1969  1.9780
 7928TIP3   OH247978   0.893   2.287  10.470  0.3226 -0.0245  0.5504
 7928TIP3    H147979   0.840   2.364  10.487  1.9317  1.5279 -0.9832
 7928TIP3    H247980   0.831   2.220  10.440 -0.7177  2.1102 -2.4509
 7929TIP3   OH247981   0.921   1.882  10.900  0.2221 -0.3417  0.1484
 7929TIP3    H147982   0.934   1.788  10.890 -0.4780 -0.5871  1.4370
 7929TIP3    H247983   0.881   1.909  10.817  1.0541 -1.0491 -0.4961
 7930TIP3   OH247984   3.259   6.038  12.087 -0.2638 -0.0207  0.1615
 7930TIP3    H147985   3.263   5.993  12.003 -0.5829  1.1001 -0.4781
 7930TIP3    H247986   3.196   5.988  12.138 -0.7260 -0.2130 -0.5815
 7931TIP3   OH247987   2.928   6.338  11.733 -0.1081  0.3323 -0.0085
 7931TIP3    H147988   2.987   6.375  11.667  1.7462 -1.7931  0.3639
 7931TIP3    H247989   2.986   6.309  11.803 -1.7138 -0.7908  0.8990
 7932TIP3   OH247990   7.624   5.237  10.905 -0.0493 -0.4709  0.7855
 7932TIP3    H147991   7.658   5.320  10.872  1.2425 -1.1003  0.4784
 7932TIP3    H247992   7.693   5.173  10.888 -1.4148 -1.8376  0.0788
 7933TIP3   OH247993   7.115   5.395  12.209  0.3257  0.5100  0.6397
 7933TIP3    H147994   7.082   5.484  12.215 -2.4675 -0.5000  2.1900
 7933TIP3    H247995   7.159   5.391  12.124 -0.8539  2.9137 -0.1749
 7934TIP3   OH247996   1.071   6.667  11.225  0.2767  0.9027  0.0510
 7934TIP3    H147997   1.028   6.641  11.306  1.6914 -3.8269 -0.4068
 7934TIP3    H247998   1.161   6.689  11.250  0.0790  1.8793 -0.0318
 7935TIP3   OH247999   2.855   7.126  11.374 -0.1380  0.5808 -0.4101
 7935TIP3    H148000   2.770   7.157  11.403  0.7490  0.9861  1.9743
 7935TIP3    H248001   2.916   7.196  11.398  0.9764 -0.0575 -1.2921
 7936TIP3   OH248002   6.502   4.518  10.301 -0.3376  0.4325 -0.4950
 7936TIP3    H148003   6.484   4.563  10.383 -1.0034 -0.0586 -0.3614
 7936TIP3    H248004   6.438   4.446  10.298  3.2288 -3.2354  1.3127
 7937TIP3   OH248005   3.432   1.605  11.771  0.6513 -0.3079  0.2169
 7937TIP3    H148006   3.391   1.526  11.736  1.1001  0.2328 -1.6712
 7937TIP3    H248007   3.512   1.574  11.814  1.1773 -0.8678 -1.0920
 7938TIP3   OH248008   3.514   5.832  10.546 -0.0127  0.0588 -0.0267
 7938TIP3    H148009   3.496   5.738  10.543  0.8098 -0.0810 -1.1659
 7938TIP3    H248010   3.552   5.852  10.460  2.1267  0.9762  1.0816
 7939TIP3   OH248011   0.554   4.609  10.254  0.4438  0.3127 -0.0480
 7939TIP3    H148012   0.562   4.680  10.189  2.0055  1.8624  1.7246
 7939TIP3    H248013   0.641   4.603  10.293 -0.1236 -1.4782  1.0168
 7940TIP3   OH248014   1.192   5.705  10.406 -0.2441  0.4187  0.2210
 7940TIP3    H148015   1.100   5.723  10.390 -0.5485 -0.1970  1.1874
 7940TIP3    H248016   1.217   5.767  10.475  0.5129  1.6817 -1.1359
 7941TIP3   OH248017   2.672   6.127  13.016  0.1066 -0.6278  0.0434
 7941TIP3    H148018   2.767   6.126  13.027 -0.1017  0.2417  2.6965
 7941TIP3    H248019   2.658   6.178  12.936  1.8520  0.8243  0.5957
 7942TIP3   OH248020   7.666   3.210  12.006 -0.0618  0.2003 -0.0915
 7942TIP3    H148021   7.676   3.126  12.051 -1.7488  1.2917  2.5283
 7942TIP3    H248022   7.579   3.206  11.967  0.2075  0.4351 -0.7383
 7943TIP3   OH248023   6.870   6.048  11.864  0.2485  0.6521  0.4612
 7943TIP3    H148024   6.881   6.143  11.857 -0.4055  0.8032  1.3870
 7943TIP3    H248025   6.960   6.014  11.866  0.4942  1.3070  0.8136
 7944TIP3   OH248026   2.567   0.222  11.524 -0.1153  0.3924 -0.2881
 7944TIP3    H148027   2.536   0.268  11.446 -2.3478  0.8888  0.7998
 7944TIP3    H248028   2.494   0.164  11.548  0.9619 -0.5616  0.7980
 7945TIP3   OH248029   2.774   1.840  11.779 -0.2435 -0.1106 -0.5087
 7945TIP3    H148030   2.842   1.774  11.770 -1.3910 -1.2015 -1.6586
 7945TIP3    H248031   2.752   1.841  11.872 -0.7933 -2.0055 -0.5846
 7946TIP3   OH248032   0.445   1.558  11.790 -0.3091  0.0594  0.1719
 7946TIP3    H148033   0.410   1.619  11.855 -0.7591  0.9417 -0.8655
 7946TIP3    H248034   0.532   1.593  11.769 -0.4861  0.2385 -0.2745
 7947TIP3   OH248035   7.013   4.437  12.141 -0.5196 -0.1708  0.7541
 7947TIP3    H148036   7.007   4.486  12.058  0.2961 -1.5602 -0.1524
 7947TIP3    H248037   7.072   4.489  12.195 -0.6683  0.4954  0.2981
 7948TIP3   OH248038   0.165   3.984  10.010  0.4924 -0.2470  0.5400
 7948TIP3    H148039   0.192   4.028  10.091  0.6768  1.5640 -0.4440
 7948TIP3    H248040   0.080   4.024   9.990  0.2638 -0.9755  0.0395
 7949TIP3   OH248041   4.151   6.348  12.279 -0.1328  0.1698 -0.2004
 7949TIP3    H148042   4.057   6.367  12.280  0.0810  1.2740  0.3435
 7949TIP3    H248043   4.183   6.380  12.364  1.2241  2.5903 -1.5089
 7950TIP3   OH248044   7.323   5.715   9.942  0.2845  0.0681  0.6893
 7950TIP3    H148045   7.365   5.798   9.922 -1.7428  0.8644 -0.6213
 7950TIP3    H248046   7.290   5.726  10.031  1.1882  0.1238  1.0286
 7951TIP3   OH248047   7.206   4.123   9.700 -0.3269 -0.5667  0.2986
 7951TIP3    H148048   7.116   4.129   9.669 -0.5614 -0.3776  1.0001
 7951TIP3    H248049   7.205   4.165   9.786  0.8773  1.3975 -0.5842
 7952TIP3   OH248050   4.708   5.847  10.299 -0.6035  0.0267  0.6236
 7952TIP3    H148051   4.733   5.908  10.368  0.6701 -1.2549  1.3360
 7952TIP3    H248052   4.638   5.794  10.337  1.0509 -1.6252  1.5152
 7953TIP3   OH248053   0.373   2.326   9.988  0.1442  0.0069  0.2047
 7953TIP3    H148054   0.425   2.406  10.002  1.7472 -0.6050 -1.6812
 7953TIP3    H248055   0.290   2.358   9.953  0.8438  0.9060 -0.7473
 7954TIP3   OH248056   0.734   2.759  10.038  0.2323 -0.1937 -0.1135
 7954TIP3    H148057   0.827   2.772  10.024  0.4979 -0.4277  1.2508
 7954TIP3    H248058   0.706   2.837  10.085 -0.5573  0.4678 -1.6094
 7955TIP3   OH248059   1.213   1.938  10.533  0.0360 -0.0395  0.0038
 7955TIP3    H148060   1.152   1.894  10.474  1.0306  0.1265 -1.1911
 7955TIP3    H248061   1.160   2.005  10.576 -0.8627 -0.6001 -0.1878
 7956TIP3   OH248062   6.450   3.259   9.924  0.0286  0.4287  0.3531
 7956TIP3    H148063   6.535   3.232   9.889  0.2476  1.4082  0.1045
 7956TIP3    H248064   6.410   3.310   9.853 -0.3618  0.7822  0.8234
 7957TIP3   OH248065   1.324   0.583  12.373  0.2503  0.1389  0.1657
 7957TIP3    H148066   1.414   0.573  12.405  0.4382 -0.4833 -0.5284
 7957TIP3    H248067   1.311   0.677  12.367  1.6497  0.2702 -1.8140
 7958TIP3   OH248068   0.535   2.278  10.756  0.3932 -0.1237  0.4079
 7958TIP3    H148069   0.497   2.307  10.673  0.6330  0.7405  0.5900
 7958TIP3    H248070   0.553   2.185  10.743  0.2389 -0.0445 -0.4370
 7959TIP3   OH248071   2.651   4.110  11.097  0.4502  0.7511 -0.6956
 7959TIP3    H148072   2.697   4.038  11.056 -1.0342  0.6504 -2.3176
 7959TIP3    H248073   2.579   4.068  11.145  0.4162  1.0532 -0.4795
 7960TIP3   OH248074   0.875   0.802  10.700 -0.0964  0.4684  0.2069
 7960TIP3    H148075   0.940   0.782  10.632  0.2665 -1.3971  1.0513
 7960TIP3    H248076   0.899   0.747  10.774 -1.7129  0.9287  1.1350
 7961TIP3   OH248077   6.052   3.107  10.099  0.3697  0.1476 -0.8496
 7961TIP3    H148078   6.130   3.162  10.102  0.0939  0.5177 -0.0171
 7961TIP3    H248079   5.990   3.152  10.157 -0.2531 -0.4533 -1.0401
 7962TIP3   OH248080   2.030   5.489  10.543 -0.4141  0.1615 -0.4525
 7962TIP3    H148081   2.023   5.575  10.500  0.2383 -0.5592 -2.1109
 7962TIP3    H248082   2.110   5.496  10.595 -0.8167  0.8186  0.1013
 7963TIP3   OH248083   2.159   6.975   9.882 -0.1031  0.2909  0.3637
 7963TIP3    H148084   2.129   7.059   9.916  1.8977  1.3262 -0.2316
 7963TIP3    H248085   2.079   6.927   9.861 -1.3273  1.3573  2.2937
 7964TIP3   OH248086   6.522   5.901  11.456 -0.2679 -0.4054 -0.0897
 7964TIP3    H148087   6.579   5.918  11.530  0.3867  0.5701 -0.7971
 7964TIP3    H248088   6.573   5.928  11.380 -1.6354  0.4298 -0.7462
 7965TIP3   OH248089   6.989   3.047  12.108  0.0782  0.5399  0.5547
 7965TIP3    H148090   6.935   2.974  12.077 -0.6047  1.6020 -0.9568
 7965TIP3    H248091   7.078   3.014  12.109 -0.5431 -1.3510  3.3578
 7966TIP3   OH248092   0.543   1.386  10.897 -0.3283 -0.0426 -0.5477
 7966TIP3    H148093   0.546   1.393  10.992  2.2879 -1.6790 -0.4166
 7966TIP3    H248094   0.493   1.306  10.880 -0.3174 -0.0528 -0.5316
 7967TIP3   OH248095   0.656   3.403  10.750  0.6241  0.3099 -0.3368
 7967TIP3    H148096   0.716   3.463  10.795 -2.4057  1.7322  2.2400
 7967TIP3    H248097   0.670   3.318  10.793  0.4203  0.7755  0.6852
 7968TIP3   OH248098   6.325   1.633  12.461  0.5430  0.3343  0.8452
 7968TIP3    H148099   6.374   1.562  12.502  0.4622 -0.6262 -0.6377
 7968TIP3    H248100   6.246   1.592  12.426  0.7087  1.0290 -0.4365
 7969TIP3   OH248101   6.188   5.677  10.515 -0.1401 -0.4280 -0.3891
 7969TIP3    H148102   6.174   5.590  10.477 -1.3630  0.0838 -1.1711
 7969TIP3    H248103   6.101   5.714  10.522  0.4528  1.2462 -1.3094
 7970TIP3   OH248104   5.862   5.912  10.476 -0.2289 -0.0692  0.1905
 7970TIP3    H148105   5.897   5.848  10.538  1.6472  0.4796 -0.2378
 7970TIP3    H248106   5.783   5.871  10.441  0.3540 -1.6955  0.6833
 7971TIP3   OH248107   0.847   3.171  11.460 -0.0254 -1.1637  0.4225
 7971TIP3    H148108   0.812   3.124  11.535 -0.0371  0.3119  1.3840
 7971TIP3    H248109   0.894   3.245  11.497 -0.1776 -0.2914 -1.0186
 7972TIP3   OH248110   6.456   4.658  10.539  0.4129 -0.2881 -0.3076
 7972TIP3    H148111   6.374   4.669  10.587  0.3050 -1.9273 -0.0543
 7972TIP3    H248112   6.518   4.623  10.604  0.5257 -1.6414 -1.1108
 7973TIP3   OH248113   1.123   2.475  10.229 -0.6845 -0.0840 -0.6123
 7973TIP3    H148114   1.066   2.401  10.245 -2.2600  0.5943 -2.5789
 7973TIP3    H248115   1.071   2.552  10.253  0.5886  0.4636  0.5439
 7974TIP3   OH248116   0.446   5.564  10.063 -0.1859  0.2467 -0.5092
 7974TIP3    H148117   0.459   5.563   9.968 -2.6138  1.1277 -0.9482
 7974TIP3    H248118   0.429   5.473  10.086  2.3345 -0.2950 -0.5156
 7975TIP3   OH248119   3.136   0.849   9.985 -0.2804 -0.9499 -0.1816
 7975TIP3    H148120   3.163   0.800  10.064  1.3081 -0.2698 -0.2580
 7975TIP3    H248121   3.146   0.785   9.914  0.7407 -0.8673 -0.1378
 7976TIP3   OH248122   3.631   1.626  12.466  0.3012 -0.0189  0.0468
 7976TIP3    H148123   3.673   1.709  12.488 -1.1630  0.1009  2.7488
 7976TIP3    H248124   3.538   1.648  12.460  0.0514 -1.2072 -0.7339
 7977TIP3   OH248125   3.383   7.036  11.891 -0.3143  0.1329 -0.3634
 7977TIP3    H148126   3.465   7.080  11.914 -0.3459 -0.0015  0.0152
 7977TIP3    H248127   3.323   7.107  11.867 -0.6210  0.3695  1.0445
 7978TIP3   OH248128   2.992   2.631  12.585  0.3888 -0.2303 -0.1178
 7978TIP3    H148129   2.913   2.682  12.569  0.1773 -0.5698 -0.1552
 7978TIP3    H248130   2.969   2.541  12.560  0.4019 -0.5604  1.0257
 7979TIP3   OH248131   2.596   2.296  12.139  0.1119 -0.0106  0.7437
 7979TIP3    H148132   2.585   2.205  12.169 -0.9072 -0.2216 -0.2245
 7979TIP3    H248133   2.537   2.304  12.065  0.7945  1.2241  0.3095
 7980TIP3   OH248134   1.631   0.733  11.258 -0.7533 -0.5780  0.2874
 7980TIP3    H148135   1.699   0.692  11.311 -0.5713 -1.5668 -0.6631
 7980TIP3    H248136   1.649   0.827  11.262  1.2044 -0.8722 -0.6489
 7981TIP3   OH248137   5.223   4.874  12.314  0.2275  0.1524 -0.2511
 7981TIP3    H148138   5.248   4.912  12.230 -0.7243 -1.8003 -1.4875
 7981TIP3    H248139   5.128   4.883  12.317  0.2027 -0.2595  0.3864
 7982TIP3   OH248140   3.451   5.486  10.230 -0.5320 -0.2203 -0.1010
 7982TIP3    H148141   3.510   5.495  10.305 -1.3569 -2.8785  0.9937
 7982TIP3    H248142   3.493   5.420  10.174 -0.8262  0.3718 -1.0454
 7983TIP3   OH248143   3.853   5.508  12.062 -0.0276 -0.6861  0.3369
 7983TIP3    H148144   3.868   5.600  12.039 -0.9220 -0.5185  0.3798
 7983TIP3    H248145   3.914   5.491  12.133 -0.5725  0.1908  1.0355
 7984TIP3   OH248146   0.698   1.553  11.332  0.2127 -0.6707 -1.0290
 7984TIP3    H148147   0.747   1.478  11.298  0.6102 -0.8808 -0.0266
 7984TIP3    H248148   0.608   1.522  11.338  0.0600 -0.5181 -2.1804
 7985TIP3   OH248149   1.503   5.795  10.158  0.1410  0.4648  0.4639
 7985TIP3    H148150   1.511   5.724  10.221  1.6542 -1.1916 -1.4627
 7985TIP3    H248151   1.431   5.768  10.100  1.3135 -0.0193 -0.8281
 7986TIP3   OH248152   1.189   2.581  11.882 -0.5344 -0.2047  0.1764
 7986TIP3    H148153   1.161   2.620  11.799 -2.1298 -0.8059  0.4042
 7986TIP3    H248154   1.268   2.531  11.860 -0.2089  0.6625 -0.7104
 7987TIP3   OH248155   4.596   4.469  10.074 -0.4163  0.4984 -0.4859
 7987TIP3    H148156   4.618   4.515  10.154 -1.9568 -1.2466  1.0423
 7987TIP3    H248157   4.676   4.473  10.021  0.5425  1.9483  0.9727
 7988TIP3   OH248158   6.858   5.193  10.685 -0.0556  0.1207  0.1988
 7988TIP3    H148159   6.921   5.228  10.749 -0.1802 -0.4591  0.6422
 7988TIP3    H248160   6.866   5.098  10.693 -0.4365  0.0451 -0.2963
 7989TIP3   OH248161   2.094   1.496  10.778 -0.3265 -0.3817 -0.3108
 7989TIP3    H148162   2.144   1.416  10.795  0.8266  0.9233  3.2157
 7989TIP3    H248163   2.019   1.491  10.837 -0.0511  1.2834  0.2136
 7990TIP3   OH248164   7.458   4.842  10.517 -0.8486 -0.6580  0.7865
 7990TIP3    H148165   7.463   4.804  10.429 -1.7827  2.0883 -0.5344
 7990TIP3    H248166   7.549   4.866  10.537 -0.9148  0.7262 -0.4267
 7991TIP3   OH248167   5.584   0.609  12.608  0.1891  0.5777 -0.1845
 7991TIP3    H148168   5.676   0.616  12.583  0.1530  0.7286 -0.2756
 7991TIP3    H248169   5.547   0.544  12.547 -0.2452  2.0139 -1.5124
 7992TIP3   OH248170   2.874   0.574  11.686  0.3060 -0.1917 -0.3265
 7992TIP3    H148171   2.913   0.492  11.718  0.1042 -0.0582  0.2654
 7992TIP3    H248172   2.946   0.636  11.687 -0.1977  0.4798  2.2572
 7993TIP3   OH248173   7.155   1.987  12.050  0.1420 -0.4668  0.8558
 7993TIP3    H148174   7.092   1.917  12.069  1.3173 -1.5225  1.0327
 7993TIP3    H248175   7.196   2.006  12.134 -1.6966  2.0981  1.3057
 7994TIP3   OH248176   2.786   0.888  12.521 -0.6200 -0.2058  0.5362
 7994TIP3    H148177   2.815   0.950  12.454  2.1758 -1.3172  0.6130
 7994TIP3    H248178   2.767   0.808  12.472 -0.6185 -0.3924  0.8394
 7995TIP3   OH248179   6.819   6.890  10.089  0.4553 -0.1611 -0.1204
 7995TIP3    H148180   6.803   6.798  10.068  0.2461 -0.3826  0.9430
 7995TIP3    H248181   6.894   6.889  10.149 -1.1143  0.0919  1.9687
 7996TIP3   OH248182   0.290   7.352  11.287  0.0420  0.3191 -0.0918
 7996TIP3    H148183   0.324   7.338  11.198  1.2269  1.9347  0.0617
 7996TIP3    H248184   0.250   7.268  11.311 -0.6976 -0.0267 -2.3058
 7997TIP3   OH248185   6.035   4.354  11.548  0.1105  0.3816 -0.5263
 7997TIP3    H148186   5.978   4.324  11.619  0.8634  0.0780 -0.0369
 7997TIP3    H248187   6.014   4.295  11.475 -0.3413  0.4005 -0.4161
 7998TIP3   OH248188   3.512   6.459  10.606  0.4651 -0.3181 -0.0339
 7998TIP3    H148189   3.449   6.435  10.675  2.3387 -2.7475  0.9670
 7998TIP3    H248190   3.587   6.494  10.654  1.4241 -1.1465 -0.9031
 7999TIP3   OH248191   4.878   0.551   9.999 -0.2705 -0.0630 -0.2916
 7999TIP3    H148192   4.802   0.493   9.994  0.3250 -0.8767 -0.1321
 7999TIP3    H248193   4.867   0.612   9.926 -0.6681 -0.6740 -0.7493
 8000TIP3   OH248194   5.913   4.212  11.331 -0.4213  0.2544 -0.4961
 8000TIP3    H148195   5.889   4.121  11.346  1.8520 -0.5989 -1.5209
 8000TIP3    H248196   5.830   4.257  11.315 -1.5048 -1.9096 -1.2926
 8001TIP3   OH248197   7.635   1.557  11.938  0.3358 -0.0956  0.0334
 8001TIP3    H148198   7.706   1.493  11.935  1.0383  0.6954 -0.9514
 8001TIP3    H248199   7.665   1.629  11.882 -0.9023  0.6129  0.2398
 8002TIP3   OH248200   1.500   6.170  10.466  0.0310  0.3719  0.2488
 8002TIP3    H148201   1.569   6.123  10.420 -2.2662 -0.9709 -2.0927
 8002TIP3    H248202   1.508   6.261  10.434 -0.4916 -0.2000 -1.6759
 8003TIP3   OH248203   7.002   6.636  10.474  0.5840  0.6168  0.1264
 8003TIP3    H148204   7.077   6.632  10.535  1.0341  0.6595 -0.4195
 8003TIP3    H248205   6.933   6.588  10.519  1.1616 -0.0479  0.3355
 8004TIP3   OH248206   6.294   5.093  11.257 -0.3266  0.4034  0.3796
 8004TIP3    H148207   6.318   5.011  11.300 -0.1948  0.6914  0.8623
 8004TIP3    H248208   6.376   5.142  11.250 -0.1303 -0.0948 -1.2252
 8005TIP3   OH248209   5.378   4.080  11.368 -0.0455  0.0936 -0.4873
 8005TIP3    H148210   5.308   4.104  11.307 -0.4321  0.1599 -0.0293
 8005TIP3    H248211   5.394   4.160  11.419 -0.5777 -0.2937  0.3131
 8006TIP3   OH248212   3.537   4.272  11.520  0.1827 -0.0452  0.1870
 8006TIP3    H148213   3.604   4.324  11.566  0.5504 -0.2419 -0.1185
 8006TIP3    H248214   3.545   4.298  11.429 -0.7142  0.5232  0.2597
 8007TIP3   OH248215   1.165   2.454  11.114  0.7901  0.2042 -0.0208
 8007TIP3    H148216   1.233   2.434  11.050  0.2231  0.8489 -0.8451
 8007TIP3    H248217   1.085   2.466  11.062  0.4886  1.5698  0.6949
 8008TIP3   OH248218   4.914   6.306  10.485  0.2230 -0.3943 -0.0907
 8008TIP3    H148219   4.953   6.260  10.560 -1.8713 -2.4561 -0.1498
 8008TIP3    H248220   4.956   6.267  10.408 -0.0577 -0.7402 -0.0725
 8009TIP3   OH248221   0.644   0.252  10.165 -0.3336  0.2928 -0.0480
 8009TIP3    H148222   0.630   0.336  10.121 -1.1516  0.1134 -0.1340
 8009TIP3    H248223   0.565   0.239  10.217  1.4080  1.5176  3.1891
 8010TIP3   OH248224   0.370   1.182  10.872 -0.3375  0.3197  0.3939
 8010TIP3    H148225   0.348   1.089  10.878  0.0273  0.1523 -0.6608
 8010TIP3    H248226   0.286   1.225  10.857 -0.3795  0.0419 -0.1901
 8011TIP3   OH248227   4.956   1.587  10.789  0.2286 -0.3432 -0.2434
 8011TIP3    H148228   4.866   1.556  10.784 -0.2933  0.6323  1.9194
 8011TIP3    H248229   5.009   1.508  10.792 -0.7775 -1.0015  1.2325
 8012TIP3   OH248230   2.994   6.878  11.453 -0.1528  0.2245 -0.3750
 8012TIP3    H148231   3.039   6.901  11.371 -0.5365  1.2990 -0.2941
 8012TIP3    H248232   2.956   6.960  11.484 -0.6439 -0.3169  0.5044
 8013TIP3   OH248233   3.452   7.095  12.454  0.0751 -0.2854  0.0638
 8013TIP3    H148234   3.400   7.045  12.517  0.3169 -1.4943 -0.6657
 8013TIP3    H248235   3.390   7.117  12.385 -0.2863  1.3888  0.8833
 8014TIP3   OH248236   1.454   3.731  11.264 -0.8580 -0.0815  0.5404
 8014TIP3    H148237   1.489   3.794  11.200  0.2244 -0.6335  0.5778
 8014TIP3    H248238   1.526   3.716  11.325 -0.7084 -2.1847 -0.0915
 8015TIP3   OH248239   6.691   7.660  11.314  0.4439  0.4002 -0.2516
 8015TIP3    H148240   6.602   7.698  11.317 -0.6664 -1.9470 -1.1246
 8015TIP3    H248241   6.714   7.648  11.406 -1.0909 -0.9075  0.0170
 8016TIP3   OH248242   1.135   0.074  12.218 -0.3183  0.1749 -0.2162
 8016TIP3    H148243   1.169   0.018  12.288  0.3347 -0.6905 -1.2110
 8016TIP3    H248244   1.205   0.138  12.204 -0.8065  0.8876  0.4898
 8017TIP3   OH248245   2.190   0.493  11.605 -0.6285  0.0396 -0.2069
 8017TIP3    H148246   2.168   0.579  11.641 -0.8740  0.8145 -2.0977
 8017TIP3    H248247   2.283   0.500  11.582  0.1574 -1.2010  2.1838
 8018TIP3   OH248248   2.906   2.678  10.430 -0.4287  0.3749  0.0641
 8018TIP3    H148249   2.889   2.748  10.493  0.6104  1.1884 -0.5318
 8018TIP3    H248250   3.001   2.667  10.432 -0.6032 -1.2898  0.4156
 8019TIP3   OH248251   4.535   1.124  11.515  0.1082  0.2253 -0.5447
 8019TIP3    H148252   4.545   1.161  11.603 -0.4410 -1.8647  0.4630
 8019TIP3    H248253   4.620   1.085  11.495 -0.2607 -0.7952 -0.1824
 8020TIP3   OH248254   0.953   1.383  10.801 -0.6188 -0.3085  0.2826
 8020TIP3    H148255   0.874   1.343  10.763 -1.1677  1.9674 -1.2011
 8020TIP3    H248256   1.020   1.371  10.734  0.4641 -2.5020  1.6656
 8021TIP3   OH248257   1.245   3.570  11.442  0.0785  0.5367 -0.1109
 8021TIP3    H148258   1.233   3.649  11.493 -0.1293  1.1168 -1.0268
 8021TIP3    H248259   1.281   3.600  11.359 -0.2869 -0.2883 -0.5884
 8022TIP3   OH248260   6.932   7.514  11.322  0.3540  0.0975 -0.1635
 8022TIP3    H148261   6.854   7.559  11.289 -0.0384 -0.1752  0.3725
 8022TIP3    H248262   6.936   7.537  11.415  0.7862 -0.0692 -0.1383
 8023TIP3   OH248263   1.679   4.938  10.723 -0.2445 -0.0403 -0.2917
 8023TIP3    H148264   1.658   4.938  10.629 -1.4933 -2.5107 -0.0969
 8023TIP3    H248265   1.772   4.917  10.727 -0.1145  0.3632 -0.9749
 8024TIP3   OH248266   2.395   3.005  11.908  0.2816  0.0716 -0.3233
 8024TIP3    H148267   2.397   3.044  11.820  2.0610  0.0439 -0.3185
 8024TIP3    H248268   2.318   2.948  11.907  0.3655 -0.0487 -1.9075
 8025TIP3   OH248269   5.069   6.057  10.001 -0.1058  0.0952 -0.0106
 8025TIP3    H148270   5.027   5.973  10.018  0.5084 -0.6158 -1.7470
 8025TIP3    H248271   5.151   6.054  10.051  0.2216 -0.6357 -0.5678
 8026TIP3   OH248272   1.639   4.566  12.188 -0.0045 -0.4238 -0.2079
 8026TIP3    H148273   1.544   4.555  12.193  0.1192 -1.3356  0.2381
 8026TIP3    H248274   1.674   4.479  12.203  0.9058 -0.1330 -0.5905
 8027TIP3   OH248275   0.504   0.383  11.715  0.1873  0.3278 -0.6253
 8027TIP3    H148276   0.518   0.364  11.808 -1.7683  0.4220 -0.2617
 8027TIP3    H248277   0.463   0.469  11.714  1.2972  0.8635 -1.6894
 8028TIP3   OH248278   4.948   6.586  11.313  0.2430 -0.0389 -0.6127
 8028TIP3    H148279   4.993   6.502  11.310 -0.2913 -0.3238 -0.6191
 8028TIP3    H248280   4.994   6.635  11.382  1.3756  0.1407 -1.4697
 8029TIP3   OH248281   4.121   3.732   9.962  0.4782 -0.1128 -0.1216
 8029TIP3    H148282   4.049   3.707   9.904  0.3391  0.2627 -0.1105
 8029TIP3    H248283   4.127   3.660  10.025 -0.4771  0.2646  0.4201
 8030TIP3   OH248284   0.864   4.983   9.816  0.3088 -0.4501 -0.3169
 8030TIP3    H148285   0.812   4.909   9.785 -0.3254 -0.3411  0.4436
 8030TIP3    H248286   0.803   5.056   9.817  0.8903  0.0506 -0.9062
 8031TIP3   OH248287   0.666   5.762  11.005  0.1427  0.3203  0.3524
 8031TIP3    H148288   0.757   5.736  11.020  0.1607  1.3367  2.4176
 8031TIP3    H248289   0.617   5.680  11.015  0.8725 -0.5236 -2.2109
 8032TIP3   OH248290   4.989   6.140  10.699  0.5199  0.4620  0.0957
 8032TIP3    H148291   5.014   6.212  10.758 -0.3538  1.0339 -0.2114
 8032TIP3    H248292   4.977   6.065  10.758  0.2698  0.8712  0.5800
 8033TIP3   OH248293   1.679   6.281  12.028  0.5596  0.0479  0.6174
 8033TIP3    H148294   1.624   6.245  12.097 -1.0406  1.7326  0.2962
 8033TIP3    H248295   1.752   6.322  12.074  0.5826 -0.5911  1.1633
 8034TIP3   OH248296   0.677   3.853   9.915  0.4810  0.1314 -0.2416
 8034TIP3    H148297   0.603   3.903   9.949 -0.1518 -0.5025 -0.6602
 8034TIP3    H248298   0.750   3.876   9.973  0.7877  3.1837 -1.6270
 8035TIP3   OH248299   0.545   5.306  12.221 -0.0005 -0.3499  0.5427
 8035TIP3    H148300   0.472   5.261  12.179 -0.6750  1.1258  0.0588
 8035TIP3    H248301   0.572   5.248  12.292 -0.9468 -1.4080  0.0561
 8036TIP3   OH248302   3.341   6.361  11.237  0.2551  0.2978 -0.5013
 8036TIP3    H148303   3.398   6.298  11.194 -0.3743 -1.4388  1.0430
 8036TIP3    H248304   3.265   6.369  11.179 -0.6085 -2.0369  0.1732
 8037TIP3   OH248305   0.836   3.327   9.812  0.5061  0.4955  0.2674
 8037TIP3    H148306   0.914   3.299   9.763  0.3442  2.4955 -1.2272
 8037TIP3    H248307   0.856   3.416   9.841 -1.5201  1.3816 -0.8888
 8038TIP3   OH248308   5.722   2.650  11.914 -0.1554  0.3780 -0.0193
 8038TIP3    H148309   5.759   2.631  12.000 -0.5766 -2.3626 -0.3363
 8038TIP3    H248310   5.632   2.677  11.932 -0.5015 -0.9712  0.4215
 8039TIP3   OH248311   6.013   5.472  11.928 -0.0881 -0.1042 -0.1317
 8039TIP3    H148312   6.064   5.499  12.004 -1.6969  1.9804  0.2795
 8039TIP3    H248313   6.062   5.508  11.853  0.6279 -0.7537  0.0110
 8040TIP3   OH248314   0.632   0.608  10.425 -0.7484  0.1242  0.2899
 8040TIP3    H148315   0.545   0.580  10.397 -1.5664  3.1620 -0.6321
 8040TIP3    H248316   0.688   0.532  10.411 -3.3069 -2.0951  1.4080
 8041TIP3   OH248317   2.224   4.117  10.546 -0.0597 -0.5371 -0.2891
 8041TIP3    H148318   2.287   4.187  10.565 -0.0105 -1.0549  1.5882
 8041TIP3    H248319   2.278   4.043  10.520 -0.0241 -0.3833 -0.6671
 8042TIP3   OH248320   0.854   5.943   9.994 -0.0988 -0.1529 -0.6426
 8042TIP3    H148321   0.875   6.007  10.062  0.3443 -2.0976  1.1830
 8042TIP3    H248322   0.932   5.941   9.938  1.1275 -1.1103  0.9997
 8043TIP3   OH248323   3.214   2.322  12.367 -0.4332  0.5714  0.2000
 8043TIP3    H148324   3.172   2.239  12.344 -0.4143  0.0512  1.9081
 8043TIP3    H248325   3.299   2.319  12.321 -1.6166  1.0489 -2.1930
 8044TIP3   OH248326   1.271   1.284  10.368 -0.0118 -0.6576  0.1851
 8044TIP3    H148327   1.292   1.193  10.346 -2.1384 -0.7788 -1.7226
 8044TIP3    H248328   1.222   1.316  10.292  0.6502  2.1030  0.8281
 8045TIP3   OH248329   3.273   3.957  11.062  0.1694 -0.4043  0.3031
 8045TIP3    H148330   3.207   4.015  11.022 -0.7372 -0.1970  2.0186
 8045TIP3    H248331   3.356   4.002  11.049 -0.3593  0.6338  0.4183
 8046TIP3   OH248332   1.051   4.534  10.267 -0.5634  0.2397 -0.8931
 8046TIP3    H148333   1.146   4.529  10.275 -0.7173 -0.5098  0.7751
 8046TIP3    H248334   1.036   4.601  10.200  1.1442 -0.4346 -2.0235
 8047TIP3   OH248335   7.601   5.999  11.993  0.1534  0.2755 -0.2317
 8047TIP3    H148336   7.642   5.957  12.069 -1.8288  0.2034  0.8564
 8047TIP3    H248337   7.668   6.059  11.960  1.3537 -0.2808  1.0648
 8048TIP3   OH248338   5.793   2.854  12.157  0.0168  0.3063 -0.6808
 8048TIP3    H148339   5.829   2.765  12.162 -0.9242 -0.0503  0.1038
 8048TIP3    H248340   5.843   2.904  12.220  0.6608  0.3802 -1.2427
 8049TIP3   OH248341   2.160   3.740  11.970 -0.0277  0.3152  0.5588
 8049TIP3    H148342   2.088   3.763  11.911 -0.0582 -1.0326  0.0291
 8049TIP3    H248343   2.125   3.667  12.022  1.6594 -2.0112 -1.3372
 8050TIP3   OH248344   3.554   4.460   9.435 -0.0221 -0.0452 -0.0034
 8050TIP3    H148345   3.560   4.365   9.430 -0.1913 -0.0380 -0.4468
 8050TIP3    H248346   3.463   4.479   9.411 -0.4997  0.1214  1.8201
 8051TIP3   OH248347   0.971   5.785  11.087 -0.0867  0.4021 -0.2691
 8051TIP3    H148348   0.914   5.860  11.070  0.8557  1.5823  1.4073
 8051TIP3    H248349   1.033   5.818  11.152  2.5003 -0.8312 -1.9822
 8052TIP3   OH248350   0.049   4.987  11.468 -1.2651  0.2727 -0.1748
 8052TIP3    H148351   0.042   4.893  11.485 -1.5468  0.6251  1.8840
 8052TIP3    H248352   0.140   5.008  11.491 -1.4927  0.6766  0.3689
 8053TIP3   OH248353   5.177   3.656  12.379 -0.8073  0.2364 -0.4096
 8053TIP3    H148354   5.153   3.582  12.324  0.0369  0.2742 -0.8412
 8053TIP3    H248355   5.174   3.622  12.469  0.2926 -0.5206 -0.6578
 8054TIP3   OH248356   4.002   5.946  10.081  0.6232 -0.2289  0.2645
 8054TIP3    H148357   4.002   6.005  10.156 -0.6145 -1.6075  1.4192
 8054TIP3    H248358   3.909   5.939  10.058  0.9140 -0.5227 -0.8475
 8055TIP3   OH248359   6.585   2.090  11.080 -0.5425  0.1639  0.3483
 8055TIP3    H148360   6.672   2.131  11.074  0.9828 -2.9743 -1.4309
 8055TIP3    H248361   6.563   2.067  10.990 -1.8765 -1.6923  1.0936
 8056TIP3   OH248362   5.390   6.039   9.993 -0.7025  0.0156  0.0524
 8056TIP3    H148363   5.432   5.957  10.019  0.0851  0.2839 -0.3242
 8056TIP3    H248364   5.349   6.071  10.072 -1.5246 -1.0346  0.0659
 8057TIP3   OH248365   0.129   3.201   9.854  0.5625 -0.3609  0.2354
 8057TIP3    H148366   0.069   3.161   9.792  0.3863 -0.4097  0.4348
 8057TIP3    H248367   0.210   3.214   9.805  0.3185 -0.0919 -0.0963
 8058TIP3   OH248368   1.839   7.373   9.747  0.5038  0.1099  0.3010
 8058TIP3    H148369   1.761   7.429   9.753 -0.1943 -0.9114  1.2165
 8058TIP3    H248370   1.911   7.429   9.777 -0.0252  0.7929  0.3285
 8059TIP3   OH248371   1.152   4.857   9.800 -0.1691  0.0932  0.4696
 8059TIP3    H148372   1.057   4.869   9.808 -0.4161 -0.7202 -0.8599
 8059TIP3    H248373   1.164   4.762   9.808  0.3037 -0.0116 -1.1818
 8060TIP3   OH248374   4.823   3.801  10.786 -0.1645 -0.0875  0.3431
 8060TIP3    H148375   4.738   3.765  10.813 -0.5323 -0.3008 -1.0488
 8060TIP3    H248376   4.852   3.851  10.862 -0.7337 -1.4029  1.4825
 8061TIP3   OH248377   1.302   7.179  10.384  0.1458  0.3490  0.4434
 8061TIP3    H148378   1.282   7.096  10.426  1.6279 -0.0445  0.4379
 8061TIP3    H248379   1.220   7.227  10.384 -0.8489 -1.2815  0.0634
 8062TIP3   OH248380   0.608   6.520  11.905 -0.7316  0.2373 -0.2220
 8062TIP3    H148381   0.579   6.430  11.888 -0.1303  0.1599 -0.8927
 8062TIP3    H248382   0.543   6.575  11.860  0.3326  0.0548 -2.0713
 8063TIP3   OH248383   4.760   7.371  12.537 -1.1017 -0.0992  0.4338
 8063TIP3    H148384   4.825   7.347  12.603  0.6127 -0.4716 -1.2973
 8063TIP3    H248385   4.787   7.458  12.507 -0.9190 -0.5635 -0.8210
 8064TIP3   OH248386   6.312   7.239  11.375  0.6086  0.5110  0.0995
 8064TIP3    H148387   6.259   7.192  11.439  3.8614 -3.0651  0.5686
 8064TIP3    H248388   6.289   7.198  11.291  0.8571  0.7052 -0.0636
 8065TIP3   OH248389   5.818   0.172  11.959  0.0780  0.0368  0.4906
 8065TIP3    H148390   5.791   0.082  11.980 -0.0499  0.0543  0.3993
 8065TIP3    H248391   5.744   0.209  11.910  0.1930  0.1416  0.3938
 8066TIP3   OH248392   1.184   6.481  11.537 -0.4502  0.1709 -0.1496
 8066TIP3    H148393   1.166   6.388  11.525 -2.4881  0.7091 -1.9436
 8066TIP3    H248394   1.170   6.496  11.630  0.6627 -1.4328  0.3092
 8067TIP3   OH248395   1.187   5.182  11.511  0.3984 -0.1611 -0.5960
 8067TIP3    H148396   1.246   5.176  11.586 -0.4966 -0.0729  0.1324
 8067TIP3    H248397   1.149   5.270  11.517  2.2608  0.9030 -2.6831
 8068TIP3   OH248398   0.840   5.013  11.962  0.0550 -0.7618 -0.5121
 8068TIP3    H148399   0.805   5.025  12.050  0.5637 -2.9253  0.0332
 8068TIP3    H248400   0.797   4.934  11.929  0.3416 -0.3438 -1.9609
 8069TIP3   OH248401   1.769   3.394  11.446  0.0175 -0.1608 -0.4414
 8069TIP3    H148402   1.699   3.351  11.397 -0.9872  2.0022 -1.0416
 8069TIP3    H248403   1.725   3.463  11.495  1.6867  1.1692 -0.7096
 8070TIP3   OH248404   7.352   7.174  10.178  0.4258  0.0361 -0.4341
 8070TIP3    H148405   7.386   7.160  10.266 -3.4178 -0.6746  1.1372
 8070TIP3    H248406   7.325   7.087  10.148  0.2915  0.4822 -1.6925
 8071TIP3   OH248407   4.817   6.166  11.694  0.1043  0.3806  0.0319
 8071TIP3    H148408   4.811   6.079  11.656 -0.4576  0.9824 -1.3292
 8071TIP3    H248409   4.819   6.151  11.789  0.6438 -1.1207 -0.1944
 8072TIP3   OH248410   4.855   4.394  12.424 -0.0401  0.4836 -0.3924
 8072TIP3    H148411   4.838   4.488  12.417 -1.7992  0.3289  1.2974
 8072TIP3    H248412   4.819   4.358  12.343  0.7699  1.2425 -1.1229
 8073TIP3   OH248413   0.265   6.447   9.762 -0.4814 -0.6413 -0.3683
 8073TIP3    H148414   0.237   6.516   9.822 -0.3234  0.2757 -1.3345
 8073TIP3    H248415   0.195   6.440   9.698 -0.1093 -0.7892 -0.7653
 8074TIP3   OH248416   3.831   4.589  12.369 -0.0560  0.5683 -0.4924
 8074TIP3    H148417   3.802   4.673  12.405  0.5171  0.9669 -0.9383
 8074TIP3    H248418   3.756   4.557  12.320 -0.1171  1.0581 -0.7244
 8075TIP3   OH248419   3.836   2.255  10.085  0.2582  0.1871 -0.1342
 8075TIP3    H148420   3.905   2.302  10.037  1.0339 -0.7789  0.0131
 8075TIP3    H248421   3.761   2.256  10.025  0.4500  1.0656 -0.3825
 8076TIP3   OH248422   2.364   7.362  10.048 -0.4885 -0.2882  0.4825
 8076TIP3    H148423   2.384   7.425   9.979  1.3238  0.6121  1.7673
 8076TIP3    H248424   2.391   7.277  10.013  1.5566  0.3211  0.4860
 8077TIP3   OH248425   0.623   6.061  10.559 -0.4262 -0.0408  0.1604
 8077TIP3    H148426   0.540   6.013  10.557 -0.8449  0.6849 -0.3263
 8077TIP3    H248427   0.640   6.084  10.468 -1.1389  2.2363  0.5329
 8078TIP3   OH248428   6.862   7.469  12.098 -0.5048 -0.7953 -0.1563
 8078TIP3    H148429   6.925   7.398  12.084 -0.0695 -0.8137  1.7171
 8078TIP3    H248430   6.784   7.426  12.133 -0.3863 -0.4171  0.5914
 8079TIP3   OH248431   5.645   2.810   9.694  0.3386 -0.3365 -0.6474
 8079TIP3    H148432   5.580   2.825   9.626 -1.0697 -1.5501  0.3925
 8079TIP3    H248433   5.626   2.876   9.761 -0.5638 -1.3755  0.1547
 8080TIP3   OH248434   0.368   2.166  12.757 -0.7284 -0.0053 -0.2598
 8080TIP3    H148435   0.309   2.190  12.829 -0.8116  1.9496 -0.9276
 8080TIP3    H248436   0.383   2.248  12.710  0.8272 -0.8834 -1.3767
 8081TIP3   OH248437   5.857   4.420  11.020 -0.4219  0.6966  0.0709
 8081TIP3    H148438   5.849   4.484  11.091  1.3220 -0.0093  0.9663
 8081TIP3    H248439   5.768   4.388  11.006 -1.0800  2.2012  0.6511
 8082TIP3   OH248440   5.744   2.995  11.918  0.2476 -0.1966  0.8638
 8082TIP3    H148441   5.669   2.945  11.885 -0.8022  0.9375  1.4824
 8082TIP3    H248442   5.752   2.968  12.010  0.6944 -0.4337  0.7547
 8083TIP3   OH248443   3.828   1.177  11.751  0.5982  0.1723  0.0522
 8083TIP3    H148444   3.838   1.104  11.813 -0.9016  0.4725  0.7005
 8083TIP3    H248445   3.884   1.246  11.787 -0.1341  0.2892  1.0245
 8084TIP3   OH248446   0.093   4.073  12.529  0.0412 -0.0928 -0.3868
 8084TIP3    H148447   0.156   4.014  12.487  0.8202  0.4387  0.0170
 8084TIP3    H248448   0.051   4.119  12.456 -0.0089 -0.5677 -0.6646
 8085TIP3   OH248449   0.092   5.677  11.798  0.4806  0.5095 -0.1776
 8085TIP3    H148450   0.030   5.655  11.868  0.8546  2.6579  0.8895
 8085TIP3    H248451   0.142   5.597  11.785 -0.1743 -0.1992  1.4115
 8086TIP3   OH248452   1.970   2.137  12.188  0.2670  0.2522  0.3640
 8086TIP3    H148453   1.923   2.126  12.105  0.0597 -1.6642  0.7021
 8086TIP3    H248454   1.906   2.116  12.256  0.8095  0.4626  0.9544
 8087TIP3   OH248455   4.165   0.399  12.003  0.2397  0.1637  0.4497
 8087TIP3    H148456   4.131   0.392  12.092 -1.3533  0.4748 -0.1167
 8087TIP3    H248457   4.187   0.492  11.993  1.2300 -0.0232  0.7890
 8088TIP3   OH248458   1.613   6.781  10.657 -0.0318  0.2894  0.1318
 8088TIP3    H148459   1.545   6.804  10.721 -1.5622 -0.4486 -1.1603
 8088TIP3    H248460   1.582   6.818  10.575  1.9101  1.2425 -0.2364
 8089TIP3   OH248461   1.738   0.834  11.508 -0.3780 -0.1606  0.5935
 8089TIP3    H148462   1.809   0.876  11.555 -0.2599 -0.8518  1.0498
 8089TIP3    H248463   1.718   0.755  11.559 -2.6487  0.8839  1.4779
 8090TIP3   OH248464   3.464   2.051  10.581  0.3291 -0.3608  0.4523
 8090TIP3    H148465   3.424   1.967  10.560 -1.0046  1.0588 -3.7560
 8090TIP3    H248466   3.391   2.113  10.581  1.7638  1.7285 -3.6037
 8091TIP3   OH248467   2.062   6.624  10.275  0.4885  0.3676  0.2028
 8091TIP3    H148468   2.064   6.552  10.211 -1.4654  1.1789 -0.8274
 8091TIP3    H248469   1.976   6.618  10.315  1.1303  0.8180  1.7161
 8092TIP3   OH248470   0.477   6.493   9.933  0.1667 -0.3201 -0.1195
 8092TIP3    H148471   0.425   6.486   9.854  0.2517 -0.7873 -0.1371
 8092TIP3    H248472   0.416   6.526   9.999  0.3906  1.2898 -0.6589
 8093TIP3   OH248473   0.229   5.333  10.800 -0.3225 -0.0884 -0.3368
 8093TIP3    H148474   0.229   5.412  10.853 -0.1461 -0.3275  0.0256
 8093TIP3    H248475   0.248   5.363  10.711 -0.9003  0.3437 -0.3184
 8094TIP3   OH248476   7.129   5.955  11.946 -0.4539 -0.5286 -0.5395
 8094TIP3    H148477   7.220   5.932  11.964 -0.7223 -2.3233 -1.3248
 8094TIP3    H248478   7.086   5.949  12.032  0.6058  3.0898  0.4412
 8095TIP3   OH248479   7.470   1.652  11.490  0.4896 -0.4122  0.2726
 8095TIP3    H148480   7.406   1.587  11.518  0.3479 -0.1042  0.6760
 8095TIP3    H248481   7.461   1.723  11.553 -0.1050  0.4749 -0.7801
 8096TIP3   OH248482   7.566   5.496   9.688 -0.7686 -0.1132 -0.2971
 8096TIP3    H148483   7.471   5.490   9.702 -0.8324 -1.8554 -1.1195
 8096TIP3    H248484   7.594   5.405   9.678  1.2058  0.2829  1.0653
 8097TIP3   OH248485   2.996   7.485  10.156 -0.0748  0.7218  0.2408
 8097TIP3    H148486   3.085   7.520  10.163 -0.2131  0.7794  2.2631
 8097TIP3    H248487   3.007   7.390  10.164 -0.0616  0.5598 -1.3649
 8098TIP3   OH248488   5.716   1.120  11.138 -0.3956 -0.0931  0.2099
 8098TIP3    H148489   5.801   1.085  11.111 -0.9326 -0.4961 -1.0706
 8098TIP3    H248490   5.657   1.096  11.066 -1.8295 -0.7452  1.5457
 8099TIP3   OH248491   6.227   1.251  10.300 -0.1322  0.3261 -0.2232
 8099TIP3    H148492   6.303   1.195  10.320  0.8333  1.7004  0.1305
 8099TIP3    H248493   6.260   1.312  10.234 -0.6556  1.5263  0.6030
 8100TIP3   OH248494   2.449   4.817  12.127 -0.3072  0.8343  0.4475
 8100TIP3    H148495   2.410   4.795  12.212 -0.0404  0.9213  0.5969
 8100TIP3    H248496   2.537   4.777  12.131 -0.8453 -0.5232 -0.4054
 8101TIP3   OH248497   3.008   3.497  11.924  0.4180  0.3142  0.5698
 8101TIP3    H148498   3.025   3.581  11.967 -1.2537  0.7578  0.4159
 8101TIP3    H248499   2.949   3.452  11.984  1.6117 -0.9658  0.8506
 8102TIP3   OH248500   4.903   2.071  10.471  0.1635 -0.3805  0.4769
 8102TIP3    H148501   4.963   2.135  10.508  0.5215 -0.5963  0.2697
 8102TIP3    H248502   4.879   2.107  10.385 -0.7736  0.1877  0.9597
 8103TIP3   OH248503   6.736   1.493  10.686 -0.1293  0.3604  0.2155
 8103TIP3    H148504   6.701   1.408  10.659  0.6234 -0.0416  0.4601
 8103TIP3    H248505   6.786   1.474  10.766 -0.0534  1.0526  0.3416
 8104TIP3   OH248506   0.975   4.799  10.840 -0.0029 -0.5942 -0.0599
 8104TIP3    H148507   0.973   4.805  10.936  0.1291 -0.1667 -0.0836
 8104TIP3    H248508   0.883   4.804  10.814  0.0456  3.7236 -0.2056
 8105TIP3   OH248509   4.154   6.977  10.916 -0.0820 -0.4664 -0.5315
 8105TIP3    H148510   4.206   6.964  10.995 -1.1505  0.8361  0.4363
 8105TIP3    H248511   4.219   6.983  10.845  0.8389 -2.6757  0.0402
 8106TIP3   OH248512   5.441   5.892  11.289  0.3960 -0.2191 -0.6611
 8106TIP3    H148513   5.347   5.902  11.306  0.2863 -2.5181  0.5967
 8106TIP3    H248514   5.445   5.838  11.210  0.6742  0.3415 -1.0316
 8107TIP3   OH248515   5.913   3.959  11.501 -0.9372  0.3216  0.4157
 8107TIP3    H148516   5.878   3.875  11.473 -0.3368  0.1126  0.2706
 8107TIP3    H248517   5.872   3.975  11.586 -0.6098 -0.4124  0.7239
 8108TIP3   OH248518   5.619   0.279  10.547  0.1631 -0.4840 -0.1065
 8108TIP3    H148519   5.579   0.233  10.473  0.6870 -0.1533 -0.5976
 8108TIP3    H248520   5.629   0.369  10.517 -0.9210 -0.0085  0.8769
 8109TIP3   OH248521   6.073   2.341  11.507 -0.3797  0.2017 -0.1815
 8109TIP3    H148522   6.103   2.399  11.437  0.0272 -0.5194 -0.6087
 8109TIP3    H248523   6.076   2.395  11.586  1.0153  0.4532 -0.3917
 8110TIP3   OH248524   6.517   0.332  12.654 -0.0265 -0.2506  0.0227
 8110TIP3    H148525   6.541   0.288  12.736  0.4683 -0.3223 -0.1571
 8110TIP3    H248526   6.496   0.421  12.680  1.0717 -0.0009  0.1091
 8111TIP3   OH248527   4.463   0.708  12.376  0.1820 -0.3893 -0.5476
 8111TIP3    H148528   4.409   0.747  12.308  1.2381  1.4906 -0.3668
 8111TIP3    H248529   4.553   0.729  12.351  0.7160 -1.4503  0.3610
 8112TIP3   OH248530   0.288   3.832  12.691  0.2775  0.3499  0.0132
 8112TIP3    H148531   0.247   3.788  12.616  0.6802  2.0690 -1.2785
 8112TIP3    H248532   0.215   3.857  12.747 -0.0497 -0.7181  0.0863
 8113TIP3   OH248533   2.735   2.757  10.211  0.0357 -0.1887 -0.0787
 8113TIP3    H148534   2.811   2.747  10.153  0.2369 -0.9229  0.2984
 8113TIP3    H248535   2.770   2.739  10.298 -0.3618  0.4697  0.2232
 8114TIP3   OH248536   3.128   3.952  10.539  0.2253  0.1302  0.5062
 8114TIP3    H148537   3.171   3.935  10.456  1.3764 -2.7165  1.5529
 8114TIP3    H248538   3.199   3.983  10.597  0.0383 -0.5673  1.1259
 8115TIP3   OH248539   0.035   3.966  10.312 -0.2472 -0.0560  0.2115
 8115TIP3    H148540   0.039   3.879  10.350  1.3589  0.3220  0.9581
 8115TIP3    H248541   0.105   4.015  10.354  0.7652  0.7872 -2.2442
 8116TIP3   OH248542   0.502   6.542  12.233  0.6743  0.2216  0.0859
 8116TIP3    H148543   0.571   6.608  12.227 -0.4060  1.4116  0.4333
 8116TIP3    H248544   0.514   6.488  12.155  0.9090  1.5176 -0.8040
 8117TIP3   OH248545   5.363   7.030  10.279 -0.1235  0.3419 -0.0003
 8117TIP3    H148546   5.314   7.092  10.225 -1.0014 -0.2033  0.1681
 8117TIP3    H248547   5.435   7.083  10.315  0.5871  0.6840 -1.8040
 8118TIP3   OH248548   6.195   3.885  12.385 -0.2113 -0.4017 -0.6522
 8118TIP3    H148549   6.274   3.923  12.346  0.3307 -1.2194 -0.3882
 8118TIP3    H248550   6.197   3.794  12.356 -0.6368 -0.6249  0.0065
 8119TIP3   OH248551   0.309   1.510  12.468  0.1802 -0.2719 -0.2971
 8119TIP3    H148552   0.228   1.459  12.459 -0.5545  0.7170  0.4244
 8119TIP3    H248553   0.281   1.601  12.459  1.1969  0.1010  0.1432
 8120TIP3   OH248554   2.122   4.124  10.048 -0.4602  0.2171 -0.0187
 8120TIP3    H148555   2.164   4.167   9.973 -1.0211  0.2863 -0.2977
 8120TIP3    H248556   2.050   4.074  10.009 -0.2417 -0.4084  0.3865
 8121TIP3   OH248557   6.052   5.555  12.468 -0.4162  0.3602  0.4833
 8121TIP3    H148558   6.051   5.546  12.372 -0.3384  1.5040  0.3632
 8121TIP3    H248559   6.053   5.465  12.500  3.6995 -0.1959 -0.6394
 8122TIP3   OH248560   7.679   0.366  18.941 -0.5957 -0.1668 -0.5572
 8122TIP3    H148561   7.749   0.376  18.876  0.1641 -2.4479 -0.1705
 8122TIP3    H248562   7.625   0.445  18.930  1.9863  1.6980 -0.8689
 8123TIP3   OH248563   7.604   6.189  10.219 -0.2778 -0.0849  0.5677
 8123TIP3    H148564   7.597   6.233  10.303 -0.1298  1.2326 -0.0804
 8123TIP3    H248565   7.691   6.149  10.220 -0.3464 -0.2290  1.0964
 8124TIP3   OH248566   6.366   1.752  11.651 -0.6105 -0.4499 -0.9682
 8124TIP3    H148567   6.356   1.789  11.738 -0.7412  0.2709 -1.2867
 8124TIP3    H248568   6.423   1.676  11.664 -1.5838 -1.0645 -0.0732
 8125TIP3   OH248569   0.261   1.630  10.553 -0.1022 -0.2804  0.8137
 8125TIP3    H148570   0.275   1.724  10.544 -2.5062  0.0350 -0.6653
 8125TIP3    H248571   0.242   1.617  10.646 -1.0672  0.9631  0.8286
 8126TIP3   OH248572   7.586   1.004  10.798  0.0291  0.4047  0.3029
 8126TIP3    H148573   7.599   1.065  10.725  2.4083 -0.3423  0.0227
 8126TIP3    H248574   7.605   1.056  10.876  0.3204  0.4828  0.1827
 8127TIP3   OH248575   3.016   5.424  12.386  0.4830  0.3998  0.5376
 8127TIP3    H148576   3.026   5.485  12.459  1.3518  0.9529 -0.0282
 8127TIP3    H248577   2.967   5.350  12.423 -0.5079  1.3796  1.2590
 8128TIP3   OH248578   6.691   1.779   9.943  0.2668 -0.6354 -0.2940
 8128TIP3    H148579   6.783   1.770   9.969  0.7845  0.2591 -1.6731
 8128TIP3    H248580   6.641   1.752  10.020  1.6868 -0.6953  0.6402
 8129TIP3   OH248581   4.970   5.473  11.793  0.5747  0.3143 -0.1316
 8129TIP3    H148582   4.922   5.398  11.827  0.4515  0.6124  0.3610
 8129TIP3    H248583   4.992   5.449  11.703  1.1597 -0.6136  0.2424
 8130TIP3   OH248584   6.517   0.576  10.917  0.5416  0.3889  0.2968
 8130TIP3    H148585   6.488   0.656  10.961  1.0215 -0.2209  1.7916
 8130TIP3    H248586   6.532   0.602  10.826 -0.9026  1.6015  0.3791
 8131TIP3   OH248587   3.888   3.082  11.732  0.4090 -0.5116 -0.1315
 8131TIP3    H148588   3.938   3.146  11.682 -0.0566  2.3455  2.6958
 8131TIP3    H248589   3.801   3.082  11.692  0.7794 -0.3353 -0.9421
 8132TIP3   OH248590   7.046   2.940  11.506 -0.4816 -0.2760  0.3333
 8132TIP3    H148591   7.090   2.980  11.582 -0.4292  1.3134 -0.5035
 8132TIP3    H248592   7.102   2.866  11.483  0.8508  0.6953  0.3482
 8133TIP3   OH248593   3.845   0.574  11.042  0.6931 -0.4782 -0.0521
 8133TIP3    H148594   3.882   0.622  10.968 -0.8537 -1.1706 -1.3395
 8133TIP3    H248595   3.832   0.485  11.009 -1.5869 -0.4022  0.4672
 8134TIP3   OH248596   0.703   5.185  17.698  0.0466  0.3127  0.0771
 8134TIP3    H148597   0.765   5.244  17.655  0.4472 -0.0016  0.2107
 8134TIP3    H248598   0.661   5.239  17.765  0.2862  0.4907  0.0865
 8135TIP3   OH248599   1.340   6.212  11.502 -0.2715 -0.2006 -0.0919
 8135TIP3    H148600   1.379   6.148  11.442 -1.0755 -0.5214 -0.2972
 8135TIP3    H248601   1.407   6.278  11.514  1.3684 -2.0795  1.7558
 8136TIP3   OH248602   4.305   7.630  11.480 -0.2410  0.7206 -0.2356
 8136TIP3    H148603   4.275   7.720  11.470  1.0656  1.4152  1.6022
 8136TIP3    H248604   4.350   7.629  11.565 -0.3174 -1.6924 -0.1670
 8137TIP3   OH248605   4.705   5.178  10.875 -0.2336 -0.1707 -0.1691
 8137TIP3    H148606   4.635   5.195  10.937 -0.3133  0.8539 -0.5182
 8137TIP3    H248607   4.784   5.171  10.928 -0.2439  1.0700  0.0293
 8138TIP3   OH248608   1.445   7.359   9.925 -0.3253 -0.4626  0.4297
 8138TIP3    H148609   1.361   7.340   9.965 -0.1575 -0.3600  0.8339
 8138TIP3    H248610   1.507   7.299   9.967 -0.0529  0.0069  0.7056
 8139TIP3   OH248611   4.270   7.357  10.946 -0.4953 -0.2805  0.8681
 8139TIP3    H148612   4.210   7.426  10.916  0.6317  1.1463  1.7842
 8139TIP3    H248613   4.275   7.297  10.872 -3.2441 -0.6071  0.8596
 8140TIP3   OH248614   1.585   4.109  12.123  0.4578  0.1814 -0.0339
 8140TIP3    H148615   1.634   4.159  12.188 -0.6024 -0.6812  1.4980
 8140TIP3    H248616   1.648   4.047  12.087  1.5983  2.0160 -1.4212
 8141TIP3   OH248617   0.212   5.431  12.147  0.3293  0.2920  0.4368
 8141TIP3    H148618   0.160   5.359  12.183 -2.6194  1.9539 -0.1100
 8141TIP3    H248619   0.227   5.408  12.056 -0.6430  0.3563  0.2522
 8142TIP3   OH248620   2.202   5.069  11.577 -0.1405 -0.4144  0.6679
 8142TIP3    H148621   2.254   5.086  11.499  2.7046  1.4258  2.7420
 8142TIP3    H248622   2.135   5.139  11.578 -0.2170 -0.4772 -0.1184
 8143TIP3   OH248623   0.408   1.036  11.344 -0.1598 -0.5033 -0.2947
 8143TIP3    H148624   0.494   0.998  11.325  0.6531  0.1167  1.7623
 8143TIP3    H248625   0.381   0.993  11.425 -1.3276  0.0390 -0.3786
 8144TIP3   OH248626   2.445   1.800  11.028 -0.1726 -0.0384  0.1355
 8144TIP3    H148627   2.438   1.729  11.091 -0.2735  0.5756  0.8268
 8144TIP3    H248628   2.384   1.777  10.958 -0.4691 -0.4474  0.5306
 8145TIP3   OH248629   7.193   4.934  10.841  0.0488 -0.0637  0.5134
 8145TIP3    H148630   7.114   4.916  10.891  1.9130 -1.7062  3.1603
 8145TIP3    H248631   7.198   5.029  10.838 -2.1444  0.0802 -0.0095
 8146TIP3   OH248632   0.056   5.217  12.230 -0.0139  0.0829  0.1741
 8146TIP3    H148633   0.090   5.139  12.187  1.9343  0.2320  1.3413
 8146TIP3    H248634  -0.026   5.189  12.270 -0.4544 -0.7576 -1.2607
 8147TIP3   OH248635   6.462   2.479  10.410 -0.2200  0.6090 -0.2890
 8147TIP3    H148636   6.543   2.527  10.428  0.6795 -0.2175 -1.9144
 8147TIP3    H248637   6.398   2.548  10.390  0.4924  1.2369 -0.4896
 8148TIP3   OH248638   7.434   1.464  10.123  0.2444  0.4685 -0.7913
 8148TIP3    H148639   7.368   1.503  10.066  0.0134 -0.1197 -0.9324
 8148TIP3    H248640   7.408   1.491  10.211 -0.1179  0.3383 -0.8566
 8149TIP3   OH248641   5.514   2.877  10.685 -0.5725  0.1263  0.3251
 8149TIP3    H148642   5.546   2.933  10.756  0.9705 -0.8677  0.4642
 8149TIP3    H248643   5.537   2.788  10.712 -0.5096 -0.3300 -1.1374
 8150TIP3   OH248644   2.808   0.557   9.911  0.1939  0.4634 -0.0896
 8150TIP3    H148645   2.854   0.592   9.835 -0.2836  0.4087 -0.3995
 8150TIP3    H248646   2.875   0.505   9.956  0.9571  1.8415  0.4505
 8151TIP3   OH248647   5.076   1.956  10.188  0.2157 -0.4132  0.1081
 8151TIP3    H148648   5.049   1.935  10.277  0.7817 -0.3181  0.3108
 8151TIP3    H248649   5.123   2.040  10.197  1.0561 -0.8472 -0.1351
 8152TIP3   OH248650   6.601   1.222  10.830  0.3576 -0.2073 -0.0326
 8152TIP3    H148651   6.528   1.263  10.877  0.3981  0.6583 -0.6970
 8152TIP3    H248652   6.579   1.235  10.738 -0.2393 -2.7595 -0.3299
 8153TIP3   OH248653   3.747   4.399  11.637  0.2198  0.1937 -0.4785
 8153TIP3    H148654   3.784   4.462  11.574 -0.7165 -0.4568 -1.7175
 8153TIP3    H248655   3.824   4.358  11.677  0.8433  0.4674 -1.3576
 8154TIP3   OH248656   5.962   5.955  11.317 -0.0278  0.0403 -0.1273
 8154TIP3    H148657   5.879   5.913  11.341 -0.8967  1.6855 -0.1333
 8154TIP3    H248658   5.954   6.045  11.350  0.9676  0.7895 -1.8063
 8155TIP3   OH248659   2.503   2.330  11.258  0.5633 -0.3212  0.1058
 8155TIP3    H148660   2.433   2.268  11.236  1.0118 -0.2161 -1.8598
 8155TIP3    H248661   2.583   2.278  11.252  0.7542 -0.1554  1.1140
 8156TIP3   OH248662   6.282   1.111  12.037 -0.3518 -0.1507  0.3432
 8156TIP3    H148663   6.251   1.164  12.110  0.9098 -0.1407  0.9012
 8156TIP3    H248664   6.309   1.174  11.971  0.2512 -0.0976  0.6277
 8157TIP3   OH248665   2.911   3.137  11.892 -0.2596  0.8770 -0.0721
 8157TIP3    H148666   3.005   3.155  11.879 -0.0897  0.6163  0.7537
 8157TIP3    H248667   2.897   3.153  11.985 -1.3554  2.3286 -0.4616
 8158TIP3   OH248668   0.656   5.120  11.202  0.2906 -0.3550  0.0283
 8158TIP3    H148669   0.640   5.186  11.134 -0.0602  1.5532  1.8544
 8158TIP3    H248670   0.749   5.130  11.224  0.5486 -1.3719 -0.5412
 8159TIP3   OH248671   3.452   6.534  11.775 -0.3472 -0.0127  0.1200
 8159TIP3    H148672   3.531   6.571  11.735 -1.0521 -0.0914 -1.4222
 8159TIP3    H248673   3.409   6.609  11.816  0.9318 -0.1155  1.7598
 8160TIP3   OH248674   7.420   0.924  11.866 -0.7096 -0.4160  0.3084
 8160TIP3    H148675   7.357   0.963  11.927 -0.5959  0.7154 -0.2749
 8160TIP3    H248676   7.498   0.909  11.919 -0.2084  1.6390  0.2124
 8161TIP3   OH248677   2.075   7.494  10.346  0.0209  0.3986  0.1846
 8161TIP3    H148678   2.163   7.458  10.330  0.0017  0.4836 -0.1158
 8161TIP3    H248679   2.086   7.550  10.423  0.2841  0.5938  0.0092
 8162TIP3   OH248680   1.028   5.124  10.611 -0.9457 -0.1192 -0.0285
 8162TIP3    H148681   1.092   5.119  10.681 -0.3076  0.2865 -0.5709
 8162TIP3    H248682   0.978   5.204  10.629  0.9188  1.4599 -1.4181
 8163TIP3   OH248683   2.205   0.670  10.606 -0.6114 -0.3754 -0.4578
 8163TIP3    H148684   2.298   0.656  10.621 -0.5878  1.1215  1.1080
 8163TIP3    H248685   2.202   0.734  10.534 -0.4420 -0.4011 -0.4881
 8164TIP3   OH248686   3.631   1.486  10.809 -0.5638 -0.0356 -0.3183
 8164TIP3    H148687   3.536   1.490  10.823 -0.2827  0.1141  1.7802
 8164TIP3    H248688   3.643   1.525  10.722 -2.3791  0.3295 -0.4556
 8165TIP3   OH248689   1.921   5.055  10.166  0.5713  0.0474 -0.0938
 8165TIP3    H148690   1.997   5.003  10.190  0.1791 -0.5449 -0.1102
 8165TIP3    H248691   1.956   5.125  10.111  1.2314  0.3758  0.7413
 8166TIP3   OH248692   6.128   3.195  10.620  0.4702  0.0757  0.0434
 8166TIP3    H148693   6.132   3.261  10.689  0.5735  1.2089 -1.0004
 8166TIP3    H248694   6.040   3.159  10.627  0.1250  0.9037  0.1329
 8167TIP3   OH248695   1.321   2.114   9.846 -0.6531  0.2933 -0.3720
 8167TIP3    H148696   1.376   2.192   9.836  1.6206 -0.6809  2.6758
 8167TIP3    H248697   1.249   2.143   9.902  0.0414  0.3522  0.5332
 8168TIP3   OH248698   2.186   3.432   9.699  0.2615  0.1686 -0.0877
 8168TIP3    H148699   2.102   3.430   9.746  0.7408  0.2748  0.7944
 8168TIP3    H248700   2.174   3.373   9.625  0.3449 -2.1686  1.6486
 8169TIP3   OH248701   6.099   6.398  11.900 -0.1191  0.8304 -0.0746
 8169TIP3    H148702   6.062   6.320  11.941 -0.9600  2.3770  2.2902
 8169TIP3    H248703   6.052   6.471  11.939  0.9901  2.5991 -1.8231
 8170TIP3   OH248704   7.374   5.337  11.668 -0.3490  0.2624 -0.5768
 8170TIP3    H148705   7.342   5.317  11.580  0.5440 -1.2044 -0.6052
 8170TIP3    H248706   7.409   5.426  11.661  0.2697 -0.0469 -1.8937
 8171TIP3   OH248707   2.899   1.329  11.423  0.1116 -0.8700 -0.8887
 8171TIP3    H148708   2.921   1.293  11.509 -0.6135 -0.3940 -0.4848
 8171TIP3    H248709   2.978   1.318  11.371  0.8895 -0.3030  0.1300
 8172TIP3   OH248710   3.420   0.871   9.945 -0.1462  0.1781  0.0874
 8172TIP3    H148711   3.398   0.915  10.027 -0.0213  0.8360 -0.2287
 8172TIP3    H248712   3.340   0.876   9.893  0.3247  1.3880 -0.5413
 8173TIP3   OH248713   1.388   2.681  12.042 -0.2364 -0.1334 -0.4338
 8173TIP3    H148714   1.363   2.728  12.121 -1.7747 -1.6789  0.0631
 8173TIP3    H248715   1.306   2.671  11.993 -0.7512 -4.8743  0.9439
 8174TIP3   OH248716   6.864   3.396  10.823  0.4560 -0.1947 -0.6897
 8174TIP3    H148717   6.929   3.457  10.857  1.3621 -1.0307 -0.8991
 8174TIP3    H248718   6.866   3.408  10.728 -0.1325  0.1999 -0.6587
 8175TIP3   OH248719   6.795   1.951  10.264 -0.1333 -0.1100  0.2143
 8175TIP3    H148720   6.748   2.011  10.206  0.5210  0.4685  0.2623
 8175TIP3    H248721   6.749   1.956  10.347 -0.2532  0.1145  0.1339
 8176TIP3   OH248722   0.466   0.991  10.000 -0.4082 -0.0601 -0.0410
 8176TIP3    H148723   0.552   1.034  10.003 -1.6224  2.4824  0.9534
 8176TIP3    H248724   0.421   1.023  10.078 -2.6057 -0.5741 -1.0333
 8177TIP3   OH248725   6.910   1.073  10.601 -0.4359 -0.4420  0.1432
 8177TIP3    H148726   6.952   1.113  10.677 -0.7572 -0.4474  0.3250
 8177TIP3    H248727   6.940   1.126  10.527  0.7518 -1.0976  0.1285
 8178TIP3   OH248728   5.161   6.066  11.567  0.4786  0.1559 -0.6021
 8178TIP3    H148729   5.220   5.993  11.549  2.1609  1.1218  0.5851
 8178TIP3    H248730   5.075   6.026  11.578  1.3407 -1.6507  0.0049
 8179TIP3   OH248731   1.505   0.043  10.809 -0.2022 -0.1147 -0.4690
 8179TIP3    H148732   1.431  -0.018  10.811  0.3154 -0.7752 -1.1104
 8179TIP3    H248733   1.580  -0.009  10.838  0.0799  0.4600 -0.1543
 8180TIP3   OH248734   1.391   3.381   9.961 -0.2577 -0.3589 -0.2430
 8180TIP3    H148735   1.317   3.437   9.985 -1.2476 -0.9571 -1.7146
 8180TIP3    H248736   1.426   3.349  10.044 -2.3231 -0.8774  0.4794
 8181TIP3   OH248737   1.603   4.336  11.625  0.1922  0.7393  0.1941
 8181TIP3    H148738   1.663   4.262  11.623  0.3151  0.8503 -0.5052
 8181TIP3    H248739   1.646   4.400  11.683  2.7677  2.4533 -3.2044
 8182TIP3   OH248740   4.777   0.817  11.925  0.2140 -0.4651 -0.2986
 8182TIP3    H148741   4.809   0.787  12.010 -1.9434 -2.9308 -0.2480
 8182TIP3    H248742   4.726   0.895  11.946  2.3796  0.9299  0.1531
 8183TIP3   OH248743   0.019   5.732   9.796 -0.0526  0.1586  0.3383
 8183TIP3    H148744  -0.054   5.786   9.824 -0.8803  0.5804 -2.3168
 8183TIP3    H248745  -0.022   5.656   9.755  1.0558 -0.5880  0.5597
 8184TIP3   OH248746   7.330   3.515  10.056 -0.0606  0.4285 -0.2379
 8184TIP3    H148747   7.290   3.482  10.137 -1.5035  0.8864 -0.7452
 8184TIP3    H248748   7.386   3.443  10.026  0.0745  0.0460  0.8713
 8185TIP3   OH248749   2.715   7.196   9.896 -0.7550  0.0980  0.2919
 8185TIP3    H148750   2.628   7.180   9.860 -0.7233  1.0930 -0.2466
 8185TIP3    H248751   2.726   7.291   9.892  0.2907 -0.0029  0.5031
 8186TIP3   OH248752   7.026   4.516  11.734  0.3365  0.1196 -0.2348
 8186TIP3    H148753   7.008   4.572  11.809  0.6799 -0.5947  0.3932
 8186TIP3    H248754   7.120   4.527  11.718  0.0723  1.0909 -1.2505
 8187TIP3   OH248755   3.504   7.366  10.958  0.5122  0.1761  0.2189
 8187TIP3    H148756   3.521   7.298  10.893  0.5418 -1.0988  1.5296
 8187TIP3    H248757   3.559   7.344  11.033  1.1755  2.1359  0.3866
 8188TIP3   OH248758   1.358   3.811  11.969 -0.1145 -0.2101 -0.2197
 8188TIP3    H148759   1.293   3.742  11.979  1.4720 -1.5369  1.5171
 8188TIP3    H248760   1.443   3.767  11.977  1.0158  1.6473 -1.0795
 8189TIP3   OH248761   0.460   0.789  12.113  0.0676  0.0640 -0.0301
 8189TIP3    H148762   0.474   0.877  12.079 -0.4522  0.3351  0.4369
 8189TIP3    H248763   0.449   0.802  12.208  2.4322 -0.7657  0.4408
 8190TIP3   OH248764   5.697   2.401  10.743  0.6482 -0.5380  0.0011
 8190TIP3    H148765   5.663   2.407  10.832  0.6438 -2.7997  0.2146
 8190TIP3    H248766   5.778   2.349  10.751  0.3436 -1.2880 -1.3543
 8191TIP3   OH248767   2.084   3.496  12.111 -0.0981 -0.3011 -0.1102
 8191TIP3    H148768   1.992   3.483  12.091 -0.0046 -1.1730  0.0142
 8191TIP3    H248769   2.095   3.460  12.199 -0.5127  3.4840  1.6895
 8192TIP3   OH248770   6.544   5.261  11.735 -0.1884  0.0498  0.3729
 8192TIP3    H148771   6.629   5.304  11.725 -0.7454  1.3685  1.1033
 8192TIP3    H248772   6.542   5.235  11.827 -1.0096  1.0206  0.6469
 8193TIP3   OH248773   6.688   3.408  11.253 -0.2607  0.4811  0.0980
 8193TIP3    H148774   6.740   3.353  11.312  1.4024  1.5621 -0.3042
 8193TIP3    H248775   6.639   3.345  11.199  1.1844 -0.6200 -0.0034
 8194TIP3   OH248776   7.237   7.502  11.287 -0.2289  0.6726  0.0899
 8194TIP3    H148777   7.149   7.533  11.265 -1.3720 -1.8586  0.7252
 8194TIP3    H248778   7.263   7.448  11.212  1.3438  2.3094 -0.6195
 8195TIP3   OH248779   5.838   3.601  10.958  0.4338  0.3849  0.0582
 8195TIP3    H148780   5.845   3.688  10.996  0.1688  0.5734 -0.3230
 8195TIP3    H248781   5.746   3.593  10.932  0.5858  0.2135 -0.4338
 8196TIP3   OH248782   2.118   1.962  10.309 -0.3160  0.2815  0.2453
 8196TIP3    H148783   2.209   1.987  10.325  0.1615 -0.6946 -0.8349
 8196TIP3    H248784   2.101   1.893  10.374 -0.7768  1.4677  1.4243
 8197TIP3   OH248785   7.641   2.599  10.267 -0.2206  0.0395 -0.4718
 8197TIP3    H148786   7.577   2.668  10.249 -0.4761 -0.3072 -0.9335
 8197TIP3    H248787   7.709   2.641  10.319 -1.1976  0.2454  0.7004
 8198TIP3   OH248788   4.061   5.561  10.782 -0.0307  0.0016  0.7346
 8198TIP3    H148789   3.971   5.552  10.751 -0.0745  0.1153  0.8235
 8198TIP3    H248790   4.113   5.506  10.724 -0.2430 -0.5811  1.0833
 8199TIP3   OH248791   6.458   2.346  11.181  0.8671 -0.2162 -0.4738
 8199TIP3    H148792   6.509   2.267  11.164  0.9602 -0.6679  1.6896
 8199TIP3    H248793   6.372   2.314  11.207  0.7430  0.3997 -0.1167
 8200TIP3   OH248794   7.087   1.615  12.423  0.0671 -0.1960 -0.1852
 8200TIP3    H148795   7.054   1.589  12.509 -0.6296  1.8534  0.2224
 8200TIP3    H248796   7.154   1.550  12.403 -1.3733 -2.1063  0.8203
 8201TIP3   OH248797   4.220   4.511  10.979  0.3068  0.4778 -0.6753
 8201TIP3    H148798   4.215   4.493  11.073 -0.3457  0.4131 -0.7120
 8201TIP3    H248799   4.163   4.587  10.966 -0.3035 -0.0423 -1.1409
 8202TIP3   OH248800   4.273   5.765  10.507 -0.5697 -0.0019  0.4060
 8202TIP3    H148801   4.301   5.806  10.425 -1.5099 -1.9966 -0.9986
 8202TIP3    H248802   4.184   5.798  10.522 -0.2171  0.7423  0.9214
 8203TIP3   OH248803   0.503   7.630  11.537 -0.2831  0.6460  0.2385
 8203TIP3    H148804   0.481   7.557  11.479 -1.7831 -0.7644  2.4436
 8203TIP3    H248805   0.476   7.708  11.488  2.4569 -0.0330 -2.6761
 8204TIP3   OH248806   6.157   5.493  12.195 -0.8610  0.0166  0.1996
 8204TIP3    H148807   6.089   5.430  12.220 -0.7736 -0.3529 -0.4645
 8204TIP3    H248808   6.235   5.439  12.181 -1.1527  0.0410 -1.8727
 8205TIP3   OH248809   7.038   3.169  10.790  0.0937 -0.2389  0.6642
 8205TIP3    H148810   7.101   3.226  10.746 -0.8509 -0.2679 -0.8148
 8205TIP3    H248811   6.986   3.227  10.845 -0.4587  0.2426 -0.3518
 8206TIP3   OH248812   6.710   1.858  10.643 -1.0031  0.7363 -1.0524
 8206TIP3    H148813   6.740   1.804  10.717 -0.0246  1.3359 -0.9938
 8206TIP3    H248814   6.706   1.797  10.569  1.1773  0.7725 -1.2480
 8207TIP3   OH248815   1.779   4.686  11.745  0.8808  0.4011 -0.4898
 8207TIP3    H148816   1.793   4.642  11.661 -1.4147  0.7561 -1.1279
 8207TIP3    H248817   1.741   4.619  11.801  1.3469  0.4680 -0.0898
 8208TIP3   OH248818   5.242   6.945  11.549  0.3152  0.6470 -0.1613
 8208TIP3    H148819   5.329   6.986  11.542  1.3975 -1.5803 -0.6622
 8208TIP3    H248820   5.245   6.873  11.487 -0.9820 -1.0042  1.5834
 8209TIP3   OH248821   1.695   4.285  12.302 -0.4124 -0.3042  0.3707
 8209TIP3    H148822   1.758   4.337  12.352 -0.3536 -0.4864  0.4857
 8209TIP3    H248823   1.649   4.232  12.367 -2.3401  1.5108  0.6175
 8210TIP3   OH248824   4.255   1.488  10.579  0.0018 -0.4589 -0.4418
 8210TIP3    H148825   4.318   1.470  10.648  1.7747 -0.7837 -2.0811
 8210TIP3    H248826   4.246   1.405  10.533 -1.4421 -0.3416 -0.4232
 8211TIP3   OH248827   6.325   5.425  11.071 -0.2878 -0.2012 -0.0590
 8211TIP3    H148828   6.406   5.385  11.102 -0.4479 -0.2962  0.2392
 8211TIP3    H248829   6.279   5.355  11.025  0.3550  0.1673 -1.2977
 8212TIP3   OH248830   6.330   6.927  11.580  0.2714  0.0522  0.3509
 8212TIP3    H148831   6.387   6.880  11.641  0.0008 -1.7238 -0.6967
 8212TIP3    H248832   6.390   6.957  11.511  0.1382 -0.8777 -0.1948
 8213TIP3   OH248833   2.203   1.251  10.826 -0.2670  0.2280  0.3605
 8213TIP3    H148834   2.295   1.249  10.854 -0.6635  1.3434  1.8356
 8213TIP3    H248835   2.154   1.224  10.904 -1.2105 -0.4239 -0.4389
 8214TIP3   OH248836   0.533   3.061  10.419  0.3350 -0.6203 -0.2398
 8214TIP3    H148837   0.510   3.002  10.491  1.9035  2.2563  2.9436
 8214TIP3    H248838   0.455   3.116  10.409 -0.1436 -1.4715 -1.2997
 8215TIP3   OH248839   7.506   0.426  10.424  0.2005  0.3344 -0.2110
 8215TIP3    H148840   7.501   0.501  10.483  0.3239 -0.5637  0.9936
 8215TIP3    H248841   7.530   0.463  10.339 -0.2021  1.6924  0.2392
 8216TIP3   OH248842   3.206   6.501  12.773 -0.0397  0.5265 -0.4057
 8216TIP3    H148843   3.288   6.549  12.762  0.9929 -0.2983  2.6106
 8216TIP3    H248844   3.233   6.409  12.777 -1.4768 -0.0040 -1.8056
 8217TIP3   OH248845   0.822   0.625  11.666  0.0561 -0.0801 -0.7273
 8217TIP3    H148846   0.909   0.663  11.676 -0.7757  2.3019 -1.5856
 8217TIP3    H248847   0.778   0.645  11.748  0.1366 -0.8013 -0.5024
 8218TIP3   OH248848   1.925   1.121  12.113 -0.1949 -0.7350 -0.2641
 8218TIP3    H148849   2.004   1.164  12.079 -0.5715 -0.6528 -1.0835
 8218TIP3    H248850   1.857   1.189  12.106 -0.4535 -0.9769 -0.0970
 8219TIP3   OH248851   7.075   0.991  11.946 -0.0777 -0.1824 -0.0170
 8219TIP3    H148852   7.057   1.080  11.976 -0.1027 -0.2886  0.2880
 8219TIP3    H248853   7.169   0.980  11.960  0.0289 -0.0083 -0.5821
 8220TIP3   OH248854   2.038   0.570  10.099  0.4349  0.4349 -0.2108
 8220TIP3    H148855   2.122   0.563  10.144  0.6844 -0.0648 -0.7420
 8220TIP3    H248856   1.974   0.574  10.169  0.6711 -1.9806  0.2321
 8221TIP3   OH248857   0.551   6.846  11.262 -0.6621 -0.5946  0.5112
 8221TIP3    H148858   0.627   6.842  11.205  0.8201  0.1412  2.3376
 8221TIP3    H248859   0.501   6.922  11.231 -1.1708 -1.5779 -1.2300
 8222TIP3   OH248860   6.006   4.859  10.266 -0.4150  0.1822  0.3407
 8222TIP3    H148861   5.950   4.930  10.295  0.9929  0.4682  2.5936
 8222TIP3    H248862   5.946   4.787  10.245 -1.6733  0.8555  1.5316
 8223TIP3   OH248863   1.381   0.225  11.481  0.3305  0.4256 -0.4459
 8223TIP3    H148864   1.452   0.241  11.418  0.6043  1.5542  0.1292
 8223TIP3    H248865   1.384   0.131  11.496 -0.4479 -0.0697 -2.9318
 8224TIP3   OH248866   3.422   0.577  10.243  0.2265  0.0483  0.1023
 8224TIP3    H148867   3.492   0.641  10.242  2.1854 -1.9022 -2.5607
 8224TIP3    H248868   3.441   0.521  10.318  0.5192  0.5752  0.4192
 8225TIP3   OH248869   1.896   6.030  12.082 -0.1631  0.4577 -0.0380
 8225TIP3    H148870   1.931   6.088  12.149  1.4125 -0.7898  0.3081
 8225TIP3    H248871   1.824   6.079  12.042  1.3021  2.7670 -0.0301
 8226TIP3   OH248872   1.407   7.174  12.605  0.4119  0.1098 -0.0418
 8226TIP3    H148873   1.500   7.174  12.627  1.0231  1.2963 -2.3409
 8226TIP3    H248874   1.384   7.267  12.598 -0.9509 -0.1673  0.3848
 8227TIP3   OH248875   3.080   2.207  11.721 -0.0247 -0.0460  0.1139
 8227TIP3    H148876   3.175   2.216  11.708 -0.1206  2.0883  0.4932
 8227TIP3    H248877   3.072   2.151  11.798  0.8949 -0.9362 -0.4102
 8228TIP3   OH248878   6.096   6.758  10.487  0.0172 -0.5570 -0.3250
 8228TIP3    H148879   6.087   6.712  10.403 -0.7918 -1.6751  0.3401
 8228TIP3    H248880   6.173   6.720  10.528  0.7663  0.4132 -0.7987
 8229TIP3   OH248881   4.256   7.548  11.946 -0.0582  0.4297 -1.0323
 8229TIP3    H148882   4.209   7.476  11.987 -0.0302  0.9024 -0.1424
 8229TIP3    H248883   4.329   7.566  12.005 -0.3698  1.5308 -0.9418
 8230TIP3   OH248884   1.407   3.143   9.798 -0.1780  0.1080  0.0189
 8230TIP3    H148885   1.331   3.110   9.845 -1.2361 -0.8831 -2.2389
 8230TIP3    H248886   1.409   3.236   9.818 -2.3972  0.2934 -0.3671
 8231TIP3   OH248887   6.036   4.787  11.011 -0.1449  0.0392 -0.2262
 8231TIP3    H148888   5.943   4.796  10.992 -0.2821  0.4442  0.5925
 8231TIP3    H248889   6.057   4.863  11.064  0.2752 -0.8950  0.9867
 8232TIP3   OH248890   3.991   7.406  12.040 -0.0618  0.2684 -0.1918
 8232TIP3    H148891   3.973   7.402  12.134 -0.6718 -1.4574 -0.3480
 8232TIP3    H248892   4.069   7.352  12.028  2.1458  3.2195 -0.2971
 8233TIP3   OH248893   3.365   1.934  11.426  0.1054  0.2347 -0.1846
 8233TIP3    H148894   3.348   1.930  11.332 -0.6119 -2.2555 -0.0145
 8233TIP3    H248895   3.430   1.865  11.441  1.0085  1.3110  1.0213
 8234TIP3   OH248896   3.329   7.223  12.206 -0.2190 -0.1973 -0.3732
 8234TIP3    H148897   3.402   7.245  12.149  0.2850 -0.9261 -0.0236
 8234TIP3    H248898   3.282   7.306  12.218  0.8415  0.3886 -0.1770
 8235TIP3   OH248899   2.167   6.958  10.760 -0.3718  0.4064 -0.4405
 8235TIP3    H148900   2.228   6.912  10.702  0.7760  0.9134  0.3165
 8235TIP3    H248901   2.129   6.890  10.815  1.9607  0.3673  1.2626
 8236TIP3   OH248902   3.791   0.227  12.040 -0.3101 -0.1793  0.4604
 8236TIP3    H148903   3.878   0.196  12.065 -0.3449  0.4774  1.4326
 8236TIP3    H248904   3.765   0.286  12.110 -1.6804 -0.6058  0.3398
 8237TIP3   OH248905   4.216   4.952  11.652 -0.4186  0.4591 -0.0802
 8237TIP3    H148906   4.236   5.038  11.689  0.4343  1.4389 -2.6246
 8237TIP3    H248907   4.129   4.961  11.614 -0.0567  0.4080 -0.9332
 8238TIP3   OH248908   2.432   1.708  11.403  0.4944  0.3171  0.0753
 8238TIP3    H148909   2.511   1.757  11.379  0.2625  0.9258  0.5085
 8238TIP3    H248910   2.425   1.719  11.498 -1.3351  2.2243 -0.1905
 8239TIP3   OH248911   1.872   0.072  11.064  0.1004 -0.2374  0.0430
 8239TIP3    H148912   1.894  -0.010  11.108 -0.1984  0.7991  2.2875
 8239TIP3    H248913   1.776   0.072  11.060  0.1131 -0.1624 -0.2992
 8240TIP3   OH248914   5.330   6.570  11.688 -0.4867  0.3049 -0.4220
 8240TIP3    H148915   5.389   6.644  11.671 -0.3137  0.1267 -0.5857
 8240TIP3    H248916   5.368   6.527  11.765 -1.9031  1.8013  1.2275
 8241TIP3   OH248917   2.741   6.126  10.045 -0.1621  0.0960  0.0787
 8241TIP3    H148918   2.682   6.068  10.093 -0.3616 -0.7394 -1.1359
 8241TIP3    H248919   2.764   6.194  10.108 -0.5882 -0.8395  1.2811
 8242TIP3   OH248920   2.711   0.154  11.731 -0.7745  0.1224  0.1061
 8242TIP3    H148921   2.640   0.200  11.686 -1.3220 -1.9634 -1.3193
 8242TIP3    H248922   2.773   0.223  11.756 -2.7422  1.8826  0.4089
 8243TIP3   OH248923   0.544   3.806  10.663  0.1949  0.2019  0.7766
 8243TIP3    H148924   0.624   3.779  10.618 -1.0057 -1.2018 -0.6063
 8243TIP3    H248925   0.500   3.863  10.600 -0.5555 -0.1636  0.9662
 8244TIP3   OH248926   3.545   2.916  12.009 -0.6992 -0.2062 -0.7836
 8244TIP3    H148927   3.460   2.946  11.977 -0.2753  0.2498 -1.5394
 8244TIP3    H248928   3.585   2.872  11.933 -0.1723 -0.2258 -0.5041
 8245TIP3   OH248929   2.547   5.370  10.319 -0.5023  0.0150 -0.2176
 8245TIP3    H148930   2.559   5.461  10.347  0.7177 -0.1462 -0.1372
 8245TIP3    H248931   2.561   5.373  10.224  0.5810 -0.2347 -0.0767
 8246TIP3   OH248932   3.019   1.171  10.635  0.2528 -0.2944  0.4204
 8246TIP3    H148933   3.036   1.150  10.543 -0.3113 -1.6781  0.5950
 8246TIP3    H248934   2.954   1.241  10.632  2.2322  1.5960 -0.2174
 8247TIP3   OH248935   0.797   5.243  11.650 -0.0809  0.3366  0.0288
 8247TIP3    H148936   0.745   5.202  11.581  0.0635 -2.4823  1.4220
 8247TIP3    H248937   0.734   5.264  11.719  0.0306  1.3316 -0.1611
 8248TIP3   OH248938   3.076   2.037  10.431 -0.9565  0.4785  0.6925
 8248TIP3    H148939   3.074   2.076  10.343 -2.9820 -0.1916  0.3765
 8248TIP3    H248940   3.092   1.944  10.414 -0.9439  0.4140  1.0630
 8249TIP3   OH248941   1.480   2.429  12.380 -0.0724  0.0554  0.6374
 8249TIP3    H148942   1.495   2.432  12.285 -0.1141 -1.0091  0.5865
 8249TIP3    H248943   1.566   2.448  12.418 -0.5846  3.2219  0.4455
 8250TIP3   OH248944   5.718   5.390  11.535  0.0774  0.1661  0.3028
 8250TIP3    H148945   5.665   5.460  11.574  0.5542 -0.4037  2.0320
 8250TIP3    H248946   5.808   5.421  11.541  0.1209  0.3663 -1.0345
 8251TIP3   OH248947   6.303   1.926  10.265  0.0889  0.4301 -0.1567
 8251TIP3    H148948   6.249   1.852  10.240 -1.3658  1.4316 -0.0948
 8251TIP3    H248949   6.256   2.003  10.231 -0.1128  1.5680  2.4530
 8252TIP3   OH248950   2.828   5.110  11.687  0.0243  0.4867  0.1896
 8252TIP3    H148951   2.821   5.130  11.780 -0.9451  0.5542  0.1126
 8252TIP3    H248952   2.772   5.174  11.643 -1.5087 -1.0374 -0.2194
 8253TIP3   OH248953   4.021   5.889  10.494  0.0315 -0.0126  0.0995
 8253TIP3    H148954   3.996   5.938  10.416 -0.1414 -1.3504 -0.7217
 8253TIP3    H248955   4.028   5.955  10.563  0.3641  1.2293 -1.0756
 8254TIP3   OH248956   2.152   0.741  11.698  0.3368 -0.0449  0.0183
 8254TIP3    H148957   2.116   0.778  11.778  1.0392 -1.3739  0.9865
 8254TIP3    H248958   2.181   0.816  11.647 -0.5658  0.8508  0.7759
 8255TIP3   OH248959   2.583   3.461  11.182 -0.7243 -0.0888 -0.2795
 8255TIP3    H148960   2.623   3.383  11.220  0.7660  0.6271 -0.2893
 8255TIP3    H248961   2.588   3.446  11.087 -0.2259  0.1069 -0.2875
 8256TIP3   OH248962   6.066   7.626  10.541 -0.5841  0.0057 -0.4892
 8256TIP3    H148963   6.151   7.583  10.533 -0.3785  0.1280  0.7438
 8256TIP3    H248964   6.069   7.669  10.627 -1.8499  0.0970 -0.4678
 8257TIP3   OH248965   0.997   2.631  10.641  0.4443  0.1135 -0.4971
 8257TIP3    H148966   1.066   2.608  10.578  2.5270 -0.5539  1.8601
 8257TIP3    H248967   1.010   2.724  10.658 -0.8726  0.5777 -1.8407
 8258TIP3   OH248968   3.575   2.051  11.118  0.0132  0.1499 -0.4493
 8258TIP3    H148969   3.563   2.058  11.023 -1.0030  0.7259 -0.2938
 8258TIP3    H248970   3.501   1.998  11.148  0.7892 -0.7430 -0.0659
 8259TIP3   OH248971   4.410   1.826  10.817  0.0949 -0.1076 -0.0268
 8259TIP3    H148972   4.454   1.909  10.836 -0.6551  0.2243  0.2717
 8259TIP3    H248973   4.349   1.814  10.889  0.4851 -1.1379  0.1517
 8260TIP3   OH248974   1.911   4.860  10.828 -0.3773  0.1763  0.1161
 8260TIP3    H148975   1.961   4.779  10.840 -0.7002 -0.1555 -0.7592
 8260TIP3    H248976   1.854   4.865  10.905  0.3644  0.1058  0.6812
 8261TIP3   OH248977   7.130   7.307  12.132 -0.3371 -0.8340  0.6199
 8261TIP3    H148978   7.098   7.230  12.179  0.9608 -1.7845  0.0172
 8261TIP3    H248979   7.215   7.327  12.172 -0.4543  0.0119  0.4651
 8262TIP3   OH248980   5.217   1.052  11.673  0.0026 -0.0464 -0.2886
 8262TIP3    H148981   5.252   0.963  11.661 -0.1701 -0.4690  1.9541
 8262TIP3    H248982   5.129   1.048  11.634 -0.1925 -1.0160  0.2136
 8263TIP3   OH248983   0.200   2.705  10.397  0.0381 -0.1178  0.5305
 8263TIP3    H148984   0.292   2.697  10.370  0.5887  1.2585  1.8181
 8263TIP3    H248985   0.182   2.799  10.391 -2.0217 -0.5660 -1.8229
 8264TIP3   OH248986   2.129   1.733  11.817 -0.2724 -0.3050 -0.1751
 8264TIP3    H148987   2.176   1.709  11.897 -1.0797 -1.7391 -0.0869
 8264TIP3    H248988   2.117   1.828  11.824 -2.0522 -0.6086  2.4248
 8265TIP3   OH248989   7.593   3.056  11.230 -0.4069  0.3914 -0.3436
 8265TIP3    H148990   7.608   3.116  11.158 -1.6016 -0.4262 -1.3158
 8265TIP3    H248991   7.587   2.970  11.189 -0.5885 -0.1614  0.7969
 8266TIP3   OH248992   7.553   4.234  11.761  0.0526 -0.1522  0.4163
 8266TIP3    H148993   7.537   4.233  11.855 -0.7500  0.3821  0.2912
 8266TIP3    H248994   7.472   4.203  11.722  0.0438  0.5407 -0.1372
 8267TIP3   OH248995   5.907   0.969   9.863 -0.0320  0.2487  0.0577
 8267TIP3    H148996   5.922   1.059   9.892 -0.3517 -0.0372  1.1813
 8267TIP3    H248997   5.939   0.967   9.773 -0.8076  1.7040 -0.2801
 8268TIP3   OH248998   3.293   4.336  10.471  0.1242  0.1887  0.1998
 8268TIP3    H148999   3.386   4.324  10.486 -0.2185 -3.7543  0.1835
 8268TIP3    H249000   3.263   4.385  10.548  1.7170 -1.4932  2.0041
 8269TIP3   OH249001   0.542   6.508  10.834  0.4182  0.4865 -0.4551
 8269TIP3    H149002   0.637   6.519  10.829  0.2051  2.4637 -0.8557
 8269TIP3    H249003   0.512   6.581  10.887 -0.4861 -2.8383  4.2353
 8270TIP3   OH249004   4.002   3.460  11.108  0.2134 -0.1393 -0.1982
 8270TIP3    H149005   4.034   3.412  11.032 -2.7934 -0.1171 -1.6403
 8270TIP3    H249006   3.951   3.533  11.072 -1.5729 -0.2958  1.7508
 8271TIP3   OH249007   2.883   6.501  10.733 -0.5203  0.6783  0.5123
 8271TIP3    H149008   2.827   6.559  10.784 -0.3148 -0.6822  2.4353
 8271TIP3    H249009   2.846   6.413  10.748  0.5271  0.0538 -0.3917
 8272TIP3   OH249010   6.580   3.006  11.324  0.4215 -0.7513 -0.1742
 8272TIP3    H149011   6.633   2.976  11.398 -1.1454  0.7955  1.6866
 8272TIP3    H249012   6.490   3.002  11.357 -0.1510  2.0931 -1.1674
 8273TIP3   OH249013   0.925   2.866  12.010  0.4234 -0.5994  0.7992
 8273TIP3    H149014   0.993   2.914  12.057 -0.0229  2.1826 -1.1711
 8273TIP3    H249015   0.935   2.891  11.919 -2.8115 -0.5619  0.3197
 8274TIP3   OH249016   2.614   6.293  12.270  0.2310 -0.2790  0.3429
 8274TIP3    H149017   2.537   6.341  12.237  0.8967 -0.0500 -0.9549
 8274TIP3    H249018   2.675   6.292  12.196  1.0704 -1.3552  1.0167
 8275TIP3   OH249019   2.722   4.922  12.756  0.7114 -0.7820  0.0994
 8275TIP3    H149020   2.631   4.909  12.783  1.3894 -0.7188  2.7229
 8275TIP3    H249021   2.716   4.976  12.677 -1.4904  1.7846  1.8385
 8276TIP3   OH249022   6.850   2.859  12.685 -0.5108  0.0580  0.1708
 8276TIP3    H149023   6.850   2.796  12.613 -0.8521 -0.5846  0.7123
 8276TIP3    H249024   6.938   2.853  12.722  0.3779  1.9649 -1.4985
 8277TIP3   OH249025   5.377   5.277  11.641  0.7826 -0.1696 -0.0502
 8277TIP3    H149026   5.443   5.230  11.590  0.1690 -1.7193  0.5315
 8277TIP3    H249027   5.299   5.277  11.586  0.6592 -0.1998  0.1236
 8278TIP3   OH249028   0.594   0.691  10.724  0.3521 -0.4203  0.0634
 8278TIP3    H149029   0.604   0.629  10.797 -0.3768  0.7018  1.1783
 8278TIP3    H249030   0.517   0.660  10.677  0.4889 -0.8451  0.1189
 8279TIP3   OH249031   5.392   7.586  10.447  0.0616 -0.1045 -0.6533
 8279TIP3    H149032   5.475   7.575  10.493  0.2690 -0.1040 -1.0278
 8279TIP3    H249033   5.416   7.610  10.358 -0.3546  0.5880 -0.5839
 8280TIP3   OH249034   2.004   1.271  11.030  0.6649  0.1840  0.2809
 8280TIP3    H149035   1.908   1.276  11.025  0.6066  0.1163  1.2645
 8280TIP3    H249036   2.023   1.177  11.025  0.5079 -0.0216  2.5813
 8281TIP3   OH249037   0.039   1.570  11.432  0.2530  0.1688  0.3133
 8281TIP3    H149038  -0.001   1.656  11.442 -1.5841 -0.5160 -0.5576
 8281TIP3    H249039  -0.029   1.508  11.460  1.4036 -1.0048  0.6072
 8282TIP3   OH249040   2.210   6.844  11.528 -0.2029 -0.5984 -0.1916
 8282TIP3    H149041   2.299   6.817  11.550 -0.7308 -1.9108  0.4350
 8282TIP3    H249042   2.171   6.870  11.611 -0.1773  0.7522 -0.5775
 8283TIP3   OH249043   0.820   3.251  10.438  0.0900 -0.0744  0.4639
 8283TIP3    H149044   0.856   3.330  10.397  1.2030 -0.2186  1.1200
 8283TIP3    H249045   0.879   3.233  10.511 -0.6711 -1.0030  0.8734
 8284TIP3   OH249046   0.481   6.369  11.624  0.1902 -0.5140 -0.6530
 8284TIP3    H149047   0.572   6.386  11.601  0.4029 -0.8488 -0.0795
 8284TIP3    H249048   0.455   6.295  11.569  0.9391 -1.8336  0.6892
 8285TIP3   OH249049   0.789   3.591   9.939 -0.0163  0.0151 -0.5665
 8285TIP3    H149050   0.852   3.611  10.008  0.4897  0.1803 -1.0651
 8285TIP3    H249051   0.780   3.674   9.891 -0.4924 -0.0517 -0.5980
 8286TIP3   OH249052   6.952   7.034  12.748  0.6948 -0.1685  0.1701
 8286TIP3    H149053   6.861   7.048  12.721  0.5865  0.2618  0.7512
 8286TIP3    H249054   7.003   7.095  12.696  0.8067 -1.3099 -1.1053
 8287TIP3   OH249055   6.087   0.086  12.302  0.0903 -0.0608 -0.1268
 8287TIP3    H149056   6.112   0.070  12.393  2.1300  0.9226 -0.4839
 8287TIP3    H249057   6.028   0.161  12.306 -0.8287 -0.7782  0.4600
 8288TIP3   OH249058   7.083   6.500   9.927  0.3873 -0.1535  0.2518
 8288TIP3    H149059   7.027   6.426   9.949  0.7457 -0.4037  0.3193
 8288TIP3    H249060   7.021   6.571   9.908 -0.0086 -0.8828 -1.3990
 8289TIP3   OH249061   7.077   5.681  12.171 -0.2023  0.0586 -0.9957
 8289TIP3    H149062   7.005   5.705  12.230  0.5021  0.2108 -0.1743
 8289TIP3    H249063   7.128   5.760  12.162 -0.3583  0.0677 -1.9299
 8290TIP3   OH249064   6.022   0.746  11.859  0.2416 -0.7167 -0.3453
 8290TIP3    H149065   6.096   0.699  11.898  0.7334 -1.5272 -2.1478
 8290TIP3    H249066   5.945   0.697  11.887  0.4907 -0.6929  0.3988
 8291TIP3   OH249067   0.632   5.846  11.304  0.0749 -0.4088  0.1360
 8291TIP3    H149068   0.626   5.829  11.210 -1.0055  1.8507 -0.2544
 8291TIP3    H249069   0.544   5.875  11.329  0.7144  0.4063  1.5477
 8292TIP3   OH249070   6.791   6.549  10.640 -0.8064  0.5627 -0.3955
 8292TIP3    H149071   6.826   6.492  10.709 -2.0832  0.0151 -0.1837
 8292TIP3    H249072   6.718   6.500  10.603 -1.1357  1.5409 -1.0684
 8293TIP3   OH249073   3.660   1.467  11.848  0.1309 -0.5741 -0.6730
 8293TIP3    H149074   3.690   1.527  11.917 -0.9801  0.3886 -0.9877
 8293TIP3    H249075   3.679   1.380  11.883 -0.2052 -0.1050  0.7698
 8294TIP3   OH249076   0.347   6.528  12.456 -0.2346 -0.4630  0.0243
 8294TIP3    H149077   0.396   6.543  12.375 -1.8034  0.0759 -0.8660
 8294TIP3    H249078   0.333   6.433  12.458  3.3252 -1.1507  1.8649
 8295TIP3   OH249079   2.037   6.903  11.850 -0.0455  0.0730  0.0831
 8295TIP3    H149080   2.023   6.961  11.925 -0.9219 -1.5695  1.2360
 8295TIP3    H249081   2.025   6.960  11.774  1.1976  1.8518  1.1447
 8296TIP3   OH249082   0.132   6.019  11.254 -0.0502 -0.1686 -0.0254
 8296TIP3    H149083   0.071   6.085  11.289  0.7568  1.2439 -1.1531
 8296TIP3    H249084   0.133   6.034  11.160 -0.4680 -2.4010 -0.4268
 8297TIP3   OH249085   1.913   0.276   9.640 -0.4596  0.4286  0.0566
 8297TIP3    H149086   1.984   0.337   9.621  0.3862  0.0365  1.7381
 8297TIP3    H249087   1.931   0.200   9.584  1.4850 -0.3782  1.6362
 8298TIP3   OH249088   0.600   3.047  12.213  0.3114  0.1212  0.2428
 8298TIP3    H149089   0.584   3.033  12.120  0.7202  2.4599 -0.2231
 8298TIP3    H249090   0.584   2.961  12.253 -0.0325 -0.8875 -1.9359
 8299TIP3   OH249091   5.279   4.305  10.032  0.2788  0.2768 -0.2697
 8299TIP3    H149092   5.266   4.394   9.999  0.6525  0.4606  0.0732
 8299TIP3    H249093   5.267   4.312  10.126 -1.4508 -0.3721 -0.4068
 8300TIP3   OH249094   5.369   0.188  12.647  0.1314  0.0152  0.0409
 8300TIP3    H149095   5.319   0.261  12.684  2.3487  1.0070  1.3041
 8300TIP3    H249096   5.347   0.113  12.702  0.1631  0.4787  0.7046
 8301TIP3   OH249097   5.097   6.971  10.936  0.2348  0.5741 -0.7031
 8301TIP3    H149098   5.006   6.955  10.959 -0.5952  2.1937 -2.5191
 8301TIP3    H249099   5.098   6.970  10.840  1.9067  1.6114 -0.7417
 8302TIP3   OH249100   4.327   0.746  10.268 -0.5153 -0.2796  0.0791
 8302TIP3    H149101   4.366   0.771  10.351 -1.6602  2.6582 -0.1541
 8302TIP3    H249102   4.399   0.708  10.218  0.0684 -2.7633  2.5475
 8303TIP3   OH249103   2.270   0.244  10.664  0.1781  0.8740 -0.2973
 8303TIP3    H149104   2.350   0.295  10.655  1.2692 -0.9565 -1.6716
 8303TIP3    H249105   2.254   0.240  10.758  0.9486  2.3379 -0.0805
 8304TIP3   OH249106   6.475   0.310  10.806 -0.1922  0.4148  0.1216
 8304TIP3    H149107   6.563   0.311  10.769 -0.1851 -1.7050 -0.0185
 8304TIP3    H249108   6.483   0.359  10.888  1.3617 -0.5717  0.5917
 8305TIP3   OH249109   0.172   5.717  10.484 -0.3607 -0.4330  0.0462
 8305TIP3    H149110   0.217   5.763  10.414 -0.6517 -0.1825  0.0218
 8305TIP3    H249111   0.202   5.626  10.477  2.6302  0.2348  1.9611
 8306TIP3   OH249112   1.610   1.702  10.531 -0.3811 -0.2943  0.3248
 8306TIP3    H149113   1.641   1.739  10.448 -0.1184  0.3033  0.6811
 8306TIP3    H249114   1.672   1.734  10.596 -0.5587 -0.7981  0.7520
 8307TIP3   OH249115   5.495   0.772  11.752 -0.2940  0.4825 -0.1229
 8307TIP3    H149116   5.584   0.738  11.744 -0.2012  0.9783 -1.4480
 8307TIP3    H249117   5.450   0.742  11.673 -1.4042 -0.0097  0.6722
 8308TIP3   OH249118   5.227   0.587  10.364  0.5363 -0.2603 -0.2733
 8308TIP3    H149119   5.284   0.546  10.300  0.8001  0.8242 -0.7512
 8308TIP3    H249120   5.196   0.667  10.322  3.0957  2.1137  1.9733
 8309TIP3   OH249121   1.549   2.975  11.510 -0.0259 -0.2235  0.0757
 8309TIP3    H149122   1.583   2.957  11.598  1.4433  1.1317 -0.1810
 8309TIP3    H249123   1.538   2.888  11.471  1.0359 -0.7888  0.9700
 8310TIP3   OH249124   4.599   2.661  11.467  0.6343  0.1985  0.1459
 8310TIP3    H149125   4.618   2.638  11.376  3.2371  1.1140  0.3607
 8310TIP3    H249126   4.557   2.583  11.503  0.9924 -0.7699 -1.4430
 8311TIP3   OH249127   2.558   3.409  11.470  0.0636  0.2817  0.6450
 8311TIP3    H149128   2.549   3.430  11.563 -0.0957 -0.2124  0.7431
 8311TIP3    H249129   2.557   3.313  11.467  1.5260  0.2471  0.2906
 8312TIP3   OH249130   2.272   5.686  10.264  0.2474  0.4351 -0.0849
 8312TIP3    H149131   2.286   5.730  10.180  0.1094  0.8150  0.0905
 8312TIP3    H249132   2.177   5.675  10.270  0.3280 -0.7693 -0.5709
 8313TIP3   OH249133   2.608   2.632  10.660 -0.2236 -0.4448 -0.8345
 8313TIP3    H149134   2.621   2.581  10.740  2.6567  0.2823 -0.7597
 8313TIP3    H249135   2.679   2.606  10.602 -0.5257  1.1846 -2.0223
 8314TIP3   OH249136   7.667   2.135  11.351  0.2364 -0.0882 -0.6555
 8314TIP3    H149137   7.728   2.202  11.382  0.1057 -0.1982 -0.1470
 8314TIP3    H249138   7.616   2.111  11.429 -1.1570  0.7376 -1.2740
 8315TIP3   OH249139   1.523   1.003  10.141  0.3754  0.0784 -1.0226
 8315TIP3    H149140   1.554   1.087  10.105  0.0505  0.1862 -1.0481
 8315TIP3    H249141   1.601   0.948  10.141  0.7892  0.6389 -0.2373
 8316TIP3   OH249142   0.038   2.151  11.775  0.1271  0.0248 -0.2607
 8316TIP3    H149143   0.007   2.149  11.684 -0.7848  0.3814  0.0359
 8316TIP3    H249144  -0.041   2.161  11.827  0.7558  1.1889  0.5125
 8317TIP3   OH249145   6.666   5.648  10.578  0.1445 -0.4922 -0.1846
 8317TIP3    H149146   6.604   5.581  10.605 -0.4856  0.1361 -0.0549
 8317TIP3    H249147   6.654   5.719  10.641  0.3430  0.0119 -0.7054
 8318TIP3   OH249148   2.525   3.129  12.285  0.7643  0.4865  0.1670
 8318TIP3    H149149   2.539   3.043  12.245 -1.2522  0.4891 -0.6648
 8318TIP3    H249150   2.496   3.109  12.374 -0.0461  0.2811 -0.1375
 8319TIP3   OH249151   3.976   6.952   9.732  0.3683  0.4098  0.8999
 8319TIP3    H149152   4.070   6.935   9.722  0.3680  0.9989 -0.3027
 8319TIP3    H249153   3.971   7.046   9.754 -0.0088  0.9777 -1.3522
 8320TIP3   OH249154   7.364   6.648  12.232  0.3257 -0.0009 -0.4290
 8320TIP3    H149155   7.307   6.694  12.171  1.4842  0.7021 -1.0000
 8320TIP3    H249156   7.304   6.591  12.281 -0.8393  0.5819 -1.1200
 8321TIP3   OH249157   3.869   2.765  10.657  0.0208  0.0621  0.0635
 8321TIP3    H149158   3.822   2.726  10.730  1.8856 -2.2503  0.1330
 8321TIP3    H249159   3.866   2.700  10.587  3.9788 -0.8255  0.4715
 8322TIP3   OH249160   1.878   6.417  12.508  1.0112 -0.8026 -0.0619
 8322TIP3    H149161   1.902   6.500  12.467  1.8974 -0.1287  1.7124
 8322TIP3    H249162   1.821   6.442  12.581  1.2463 -1.7444  0.4628
 8323TIP3   OH249163   5.736   3.054  11.099  0.1936  0.2726 -0.0082
 8323TIP3    H149164   5.791   3.001  11.156  0.9475 -0.1544 -1.1028
 8323TIP3    H249165   5.774   3.142  11.104  1.2592 -0.1045 -1.0731
 8324TIP3   OH249166   3.114   5.053  11.078 -0.0874  0.1046  0.4850
 8324TIP3    H149167   3.089   4.971  11.122  0.3439 -0.1279  0.3086
 8324TIP3    H249168   3.210   5.054  11.082 -0.1134  0.9107  1.0290
 8325TIP3   OH249169   5.129   1.508  12.403  0.2531  0.3052  0.1936
 8325TIP3    H149170   5.183   1.586  12.401  0.7650 -0.0618 -0.4399
 8325TIP3    H249171   5.039   1.541  12.399  0.4826  0.8253 -1.3286
 8326TIP3   OH249172   0.991   2.458  11.572  0.1742  0.5609 -0.1127
 8326TIP3    H149173   1.046   2.537  11.577  3.1600 -1.3832  0.4270
 8326TIP3    H249174   1.020   2.404  11.646 -4.1186  0.2195  1.5813
 8327TIP3   OH249175   6.709   4.505  10.147 -0.4199  0.2873 -0.8242
 8327TIP3    H149176   6.641   4.506  10.214  1.2432  0.5571  0.9534
 8327TIP3    H249177   6.684   4.432  10.089 -0.6676 -1.5890  1.4834
 8328TIP3   OH249178   2.552   0.611  11.062 -0.6331 -0.3190  0.1311
 8328TIP3    H149179   2.586   0.603  11.151 -0.8469  1.9129  0.4573
 8328TIP3    H249180   2.457   0.615  11.072 -0.6950 -0.6325 -0.2646
 8329TIP3   OH249181   6.084   4.885  10.549  0.5212 -0.2028  0.1282
 8329TIP3    H149182   6.064   4.884  10.455 -2.1833 -0.5632  0.6325
 8329TIP3    H249183   6.097   4.792  10.571 -0.4668 -0.2962  0.3749
 8330TIP3   OH249184   5.140   0.792  11.553  0.2004 -0.3214 -0.7955
 8330TIP3    H149185   5.102   0.825  11.471  1.8020  0.7473 -1.1533
 8330TIP3    H249186   5.072   0.736  11.590 -0.5018 -0.9920 -2.9432
 8331TIP3   OH249187   1.363   5.596  10.006  0.4436 -0.0935 -0.0555
 8331TIP3    H149188   1.316   5.524  10.047  0.1697  0.2251  0.1962
 8331TIP3    H249189   1.455   5.569  10.008  0.4087 -0.1687  0.5888
 8332TIP3   OH249190   1.372   0.011  10.406 -0.5297 -0.8426 -1.1289
 8332TIP3    H149191   1.382   0.092  10.356  2.2194 -1.6863 -2.1764
 8332TIP3    H249192   1.323  -0.047  10.347 -1.7870 -0.2532 -0.7031
 8333TIP3   OH249193   5.027   6.629  10.070 -0.3939 -0.0224  0.4410
 8333TIP3    H149194   4.976   6.559  10.111  0.8248 -0.3004  1.5931
 8333TIP3    H249195   5.053   6.593   9.985  1.8308 -1.8385  1.7676
 8334TIP3   OH249196   1.373   0.996  11.328 -0.2646 -0.0371 -0.7524
 8334TIP3    H149197   1.412   0.909  11.337  0.2916  0.1395 -1.3457
 8334TIP3    H249198   1.280   0.983  11.341 -0.0751 -0.5642  0.1345
 8335TIP3   OH249199   1.038   5.396  11.627  0.2468 -0.2062  0.2010
 8335TIP3    H149200   1.110   5.415  11.687  0.9525 -0.0877 -0.6628
 8335TIP3    H249201   0.974   5.349  11.680  0.5524  0.5016  1.2104
 8336TIP3   OH249202   6.068   2.133  16.324 -0.3293  0.6251 -0.3167
 8336TIP3    H149203   5.989   2.081  16.338  0.8711 -1.4062 -0.7296
 8336TIP3    H249204   6.098   2.156  16.412  0.2274 -1.1851  0.0060
 8337TIP3   OH249205   7.543   3.558  11.897 -0.0865  0.2743 -0.7210
 8337TIP3    H149206   7.517   3.524  11.811  3.0335  0.3149 -1.7831
 8337TIP3    H249207   7.583   3.643  11.878  0.1325  0.5463  0.8640
 8338TIP3   OH249208   1.188   4.476  11.085 -0.0996  0.1108 -0.3506
 8338TIP3    H149209   1.178   4.516  11.172 -2.2047 -0.2205 -0.4054
 8338TIP3    H249210   1.130   4.400  11.087  1.4824 -1.1811 -1.3305
 8339TIP3   OH249211   1.481   3.577  12.021 -0.2527  0.0320 -0.0190
 8339TIP3    H149212   1.447   3.527  12.095  0.0760 -0.4777 -0.2101
 8339TIP3    H249213   1.539   3.517  11.975 -0.0222  0.5177 -0.3803
 8340TIP3   OH249214   5.165   3.033  10.390  0.0269 -0.0085  0.6600
 8340TIP3    H149215   5.182   3.127  10.391  0.7333 -0.1320  0.4497
 8340TIP3    H249216   5.249   2.993  10.410  0.1463 -0.6433 -0.9565
 8341TIP3   OH249217   7.181   0.681  10.838 -0.2422  0.1238  0.1453
 8341TIP3    H149218   7.141   0.767  10.848  0.5957  0.2527  3.0953
 8341TIP3    H249219   7.175   0.641  10.925  0.9884 -2.0919 -0.7049
 8342TIP3   OH249220   0.833   4.437  11.297  0.2194  0.0487 -0.1181
 8342TIP3    H149221   0.793   4.508  11.248 -0.3838 -1.0092 -1.2216
 8342TIP3    H249222   0.916   4.472  11.328  0.2732  0.9895 -1.2901
 8343TIP3   OH249223   5.850   0.374  10.096  0.4196 -0.2008  0.3395
 8343TIP3    H149224   5.820   0.453  10.141  1.2496  0.0510  0.4563
 8343TIP3    H249225   5.930   0.349  10.142  1.0993 -0.1299 -0.7668
 8344TIP3   OH249226   4.497   5.237  11.048  0.4910 -0.0303 -0.0308
 8344TIP3    H149227   4.535   5.207  11.131 -0.3091 -0.2151  0.2813
 8344TIP3    H249228   4.484   5.331  11.060  0.2435 -0.0818  0.1085
 8345TIP3   OH249229   2.517   7.093  10.755 -0.1623  0.3582  0.7598
 8345TIP3    H149230   2.460   7.142  10.695  0.3290  0.8717  0.6957
 8345TIP3    H249231   2.483   7.004  10.753 -1.1477  0.7182  0.9600
 8346TIP3   OH249232   5.695   4.508  11.572 -0.0582  0.0643 -0.2905
 8346TIP3    H149233   5.724   4.562  11.645 -1.9953 -0.5839  1.0289
 8346TIP3    H249234   5.694   4.419  11.606 -0.8668 -0.2722 -1.1338
 8347TIP3   OH249235   1.141   6.553  10.071  0.1079 -0.5831 -0.0222
 8347TIP3    H149236   1.121   6.596  10.154  2.7870 -0.1032  0.4535
 8347TIP3    H249237   1.228   6.516  10.082  0.8458  0.0279 -2.8072
 8348TIP3   OH249238   5.031   0.123  16.589 -0.8746 -0.8242  0.3054
 8348TIP3    H149239   5.057   0.184  16.520  0.8619  0.0781  1.6737
 8348TIP3    H249240   5.100   0.057  16.590  0.6395  0.6289  2.8188
 8349TIP3   OH249241   4.249   3.307  10.458 -0.3851  0.0548  0.3485
 8349TIP3    H149242   4.167   3.336  10.418 -0.2785  0.1195  0.1781
 8349TIP3    H249243   4.308   3.293  10.384 -0.3034 -0.1846  0.4575
 8350TIP3   OH249244   3.763   1.809  10.602 -0.6433  0.7870 -0.0991
 8350TIP3    H149245   3.839   1.812  10.544  0.4188  1.2133  1.2324
 8350TIP3    H249246   3.702   1.750  10.560  0.7707 -0.1986 -0.8448
 8351TIP3   OH249247   0.906   6.224  10.010  0.3177 -0.3881 -0.4585
 8351TIP3    H149248   0.945   6.258   9.929 -0.9949 -0.5389 -1.1903
 8351TIP3    H249249   0.813   6.245  10.002  0.2508  0.1621  1.3202
 8352TIP3   OH249250   5.040   2.252   9.983  0.4434 -0.3048 -0.1132
 8352TIP3    H149251   5.004   2.169   9.954 -0.6627  0.3666 -0.7513
 8352TIP3    H249252   5.060   2.299   9.902  0.2419  0.3763  0.2203
 8353TIP3   OH249253   7.612   3.540  10.306 -0.4070  0.5183 -0.1353
 8353TIP3    H149254   7.696   3.580  10.327 -0.7009  1.7597 -1.1645
 8353TIP3    H249255   7.622   3.510  10.215 -0.9174  0.2640 -0.1116
 8354TIP3   OH249256   6.502   5.276  11.278  0.4626  0.2567 -0.2295
 8354TIP3    H149257   6.532   5.366  11.268 -0.3495  0.4726 -0.8894
 8354TIP3    H249258   6.434   5.281  11.346  0.5690  0.1049 -0.1114
 8355TIP3   OH249259   6.987   7.022  10.494 -0.7885 -0.2932 -0.5360
 8355TIP3    H149260   7.077   7.008  10.465  0.4144  1.7241  1.9327
 8355TIP3    H249261   6.969   7.114  10.472 -1.3140  0.0450  1.1836
 8356TIP3   OH249262   6.560   3.808  11.753  0.3948  0.1124 -0.1614
 8356TIP3    H149263   6.524   3.888  11.717  0.6402  0.9368  1.3464
 8356TIP3    H249264   6.599   3.763  11.678  0.1503  1.3354 -1.0483
 8357TIP3   OH249265   2.604   5.368  10.029  0.2042  0.2039 -0.1337
 8357TIP3    H149266   2.676   5.396   9.972 -0.8881  0.8414 -1.2647
 8357TIP3    H249267   2.527   5.366   9.971 -0.5826 -1.0305  0.9006
 8358TIP3   OH249268   1.634   2.142  11.391  0.4466  0.0522  1.1478
 8358TIP3    H149269   1.545   2.174  11.405 -0.0635 -1.0740  0.5547
 8358TIP3    H249270   1.690   2.211  11.428 -0.5965  1.6742 -0.1909
 8359TIP3   OH249271   4.917   5.355  10.314 -1.0499 -0.3645 -0.1772
 8359TIP3    H149272   4.980   5.413  10.272 -0.4681 -1.0908 -0.3386
 8359TIP3    H249273   4.832   5.387  10.286 -0.8241  1.3743  0.9958
 8360TIP3   OH249274   1.309   0.357   9.830  0.0411 -0.4185 -0.0106
 8360TIP3    H149275   1.218   0.361   9.859  0.3188  0.4443  0.7901
 8360TIP3    H249276   1.332   0.265   9.836 -0.3144 -0.4365  1.2577
 8361TIP3   OH249277   3.013   5.296  10.914  0.1829 -0.6199  0.5233
 8361TIP3    H149278   3.107   5.293  10.935  0.0009  0.4462  1.6605
 8361TIP3    H249279   2.970   5.297  11.000 -0.7544  1.2836  0.0854
 8362TIP3   OH249280   2.131   4.291  12.190  0.0568  0.0777 -0.0190
 8362TIP3    H149281   2.206   4.237  12.213  0.3421  1.4382  2.6647
 8362TIP3    H249282   2.166   4.380  12.185 -1.3894  0.8292  1.9012
 8363TIP3   OH249283   0.650   3.819  10.996  0.5534  0.1786 -0.2674
 8363TIP3    H149284   0.678   3.728  10.991  0.0854 -0.0488  0.8645
 8363TIP3    H249285   0.671   3.845  11.086 -0.0458  0.9350 -0.3419
 8364TIP3   OH249286   0.495   0.817  11.667  0.1625  0.0410 -0.3208
 8364TIP3    H149287   0.533   0.871  11.736  1.0874  0.8293 -1.3851
 8364TIP3    H249288   0.424   0.870  11.630  1.4713  0.8808 -1.7805
 8365TIP3   OH249289   5.336   7.023  11.110  0.2298  0.1537  1.0333
 8365TIP3    H149290   5.245   7.038  11.082  0.7742  0.2385 -0.8830
 8365TIP3    H249291   5.365   7.109  11.141  0.0489  0.4739  0.3570
 8366TIP3   OH249292   0.622   3.962  11.970  0.0904  0.2214 -0.0025
 8366TIP3    H149293   0.601   3.980  12.062 -1.4604 -0.4685 -0.1795
 8366TIP3    H249294   0.627   4.049  11.929  1.6574  0.5722  0.8804
 8367TIP3   OH249295   2.780   7.654  12.043  0.3707  0.4126 -0.6068
 8367TIP3    H149296   2.837   7.703  12.102 -0.5251 -0.8250  1.4038
 8367TIP3    H249297   2.839   7.616  11.978  1.6447  0.4677  0.4744
 8368TIP3   OH249298   5.035   2.561  11.239 -0.1153  0.2402  0.0223
 8368TIP3    H149299   5.037   2.597  11.328  0.5820 -0.0961  0.1537
 8368TIP3    H249300   4.943   2.542  11.222 -0.4324  1.5638  0.1555
 8369TIP3   OH249301   3.232   0.380  10.985 -0.2978 -0.1254 -0.0710
 8369TIP3    H149302   3.235   0.353  10.893 -0.5840  1.0902 -0.4503
 8369TIP3    H249303   3.267   0.305  11.033 -0.7965 -1.0446 -1.1104
 8370TIP3   OH249304   1.452   4.535  11.098 -0.1524 -0.5772  0.4964
 8370TIP3    H149305   1.431   4.545  11.191 -1.0076  1.9360  0.1208
 8370TIP3    H249306   1.368   4.518  11.056 -0.6034  2.8150 -0.2484
 8371TIP3   OH249307   5.616   6.184   9.975 -0.0515 -0.0829 -0.0421
 8371TIP3    H149308   5.530   6.150  10.000  0.0618 -0.4588 -0.1558
 8371TIP3    H249309   5.598   6.273   9.944 -0.6148 -0.6446 -1.4083
 8372TIP3   OH249310   7.311   5.636  10.240 -0.1710 -0.2220  0.1278
 8372TIP3    H149311   7.337   5.709  10.297 -0.4638 -0.3945  0.4870
 8372TIP3    H249312   7.225   5.610  10.273 -0.9899  0.5845 -1.2811
 8373TIP3   OH249313   4.319   4.694  12.331  0.2038  0.0581 -0.0242
 8373TIP3    H149314   4.235   4.738  12.340  0.1900  0.4197 -1.7282
 8373TIP3    H249315   4.297   4.601  12.329 -0.4617  0.2077 -2.9083
 8374TIP3   OH249316   1.277   5.354  10.111 -0.2505 -0.1577  0.8110
 8374TIP3    H149317   1.186   5.368  10.137 -1.2883 -1.5114 -1.7578
 8374TIP3    H249318   1.280   5.262  10.083  1.3730  0.4344 -1.1768
 8375TIP3   OH249319   1.962   4.287  12.697  0.3931  0.0275 -0.6006
 8375TIP3    H149320   1.981   4.380  12.707 -0.5976  0.4314 -2.1134
 8375TIP3    H249321   1.874   4.277  12.735  0.0730 -0.0566 -1.3321
 8376TIP3   OH249322   0.470   2.745  10.338  0.3337  0.0387  0.3543
 8376TIP3    H149323   0.453   2.822  10.283  0.4955 -0.7574 -0.8631
 8376TIP3    H249324   0.513   2.779  10.416  0.1503  1.2115 -0.0448
 8377TIP3   OH249325   6.797   6.212  10.914 -0.1561  0.0093  0.0101
 8377TIP3    H149326   6.861   6.267  10.871 -0.8178 -0.1390 -1.2037
 8377TIP3    H249327   6.811   6.228  11.008  0.1566  1.6675 -0.2851
 8378TIP3   OH249328   5.618   6.935  11.301 -0.3127 -0.0590  0.1381
 8378TIP3    H149329   5.712   6.950  11.288 -0.2726  0.0687  0.5601
 8378TIP3    H249330   5.608   6.840  11.296 -0.0283 -0.1371  0.9174
 8379TIP3   OH249331   3.861   5.049  11.828  0.1821 -0.4420 -0.3235
 8379TIP3    H149332   3.870   4.965  11.874  1.2402 -0.5534 -0.7159
 8379TIP3    H249333   3.846   5.113  11.898  0.9462 -0.7342  0.1265
 8380TIP3   OH249334   0.395   5.907  11.557 -0.7462  0.1781  0.4290
 8380TIP3    H149335   0.365   5.869  11.474  2.4233 -0.6283 -0.4903
 8380TIP3    H249336   0.394   6.001  11.542 -0.1039  0.0344 -0.6174
 8381TIP3   OH249337   3.086   4.918  12.507  0.3570  0.2587 -0.5486
 8381TIP3    H149338   3.011   4.973  12.530 -0.8191 -1.8025  0.7618
 8381TIP3    H249339   3.120   4.887  12.590  0.7495 -1.2829 -1.2536
 8382TIP3   OH249340   0.033   4.684  10.050  0.0337 -0.3832  0.3287
 8382TIP3    H149341  -0.029   4.726   9.990  0.6549 -0.6137 -0.5020
 8382TIP3    H249342   0.094   4.754  10.074 -0.4988 -0.1709  1.0994
 8383TIP3   OH249343   7.552   1.941  10.648 -0.2273  0.0037  0.2962
 8383TIP3    H149344   7.480   2.003  10.637 -0.4235 -0.2213  0.3123
 8383TIP3    H249345   7.573   1.946  10.742  0.5338  0.9031  0.1001
 8384TIP3   OH249346   0.306   4.752  11.739 -0.8792 -0.4409 -0.0379
 8384TIP3    H149347   0.255   4.760  11.819  0.3694  0.1458  0.7457
 8384TIP3    H249348   0.242   4.734  11.670 -2.1060  0.1997  0.9001
 8385TIP3   OH249349   4.788   6.536  10.506  0.1950 -0.3598  0.6245
 8385TIP3    H149350   4.734   6.505  10.579 -1.7253 -2.6093 -1.5854
 8385TIP3    H249351   4.843   6.462  10.483  0.9875  0.4175 -0.0681
 8386TIP3   OH249352   5.929   1.444  11.603 -0.2328  0.2789 -0.2521
 8386TIP3    H149353   5.994   1.376  11.623 -1.1245 -0.4820  0.1570
 8386TIP3    H249354   5.977   1.509  11.552  0.1735 -1.7476 -2.6827
 8387TIP3   OH249355   5.023   5.590   9.775  0.1375 -0.1621  0.8545
 8387TIP3    H149356   4.962   5.516   9.779 -0.2758 -0.0595 -1.6553
 8387TIP3    H249357   4.968   5.665   9.751  0.6572  0.8618  2.6926
 8388TIP3   OH249358   4.461   2.271  12.329  0.5927  0.3563 -0.4759
 8388TIP3    H149359   4.384   2.327  12.333  0.4869  0.1593  0.9606
 8388TIP3    H249360   4.438   2.202  12.268 -0.0212  0.8010 -0.7505
 8389TIP3   OH249361   3.093   0.989  11.356  0.7609 -0.0993 -0.7116
 8389TIP3    H149362   3.153   1.064  11.361 -0.5911  0.9971  0.1712
 8389TIP3    H249363   3.105   0.954  11.268  2.3201  0.3806 -0.7222
 8390TIP3   OH249364   1.824   7.271  11.100 -0.1523 -0.1283 -0.7581
 8390TIP3    H149365   1.762   7.199  11.114  1.6277 -1.4659  0.8066
 8390TIP3    H249366   1.882   7.240  11.031  0.4086 -0.0695 -0.3245
 8391TIP3   OH249367   7.221   5.959  11.654  0.5669  0.3940  0.3197
 8391TIP3    H149368   7.172   5.950  11.735  0.2507  0.1435  0.1063
 8391TIP3    H249369   7.155   5.951  11.585  0.6258  2.0202  0.0462
 8392TIP3   OH249370   1.288   6.936  12.290 -0.1245 -0.7591 -0.4406
 8392TIP3    H149371   1.283   6.857  12.343 -0.8603 -0.0342  0.6189
 8392TIP3    H249372   1.202   6.977  12.300  1.1113  1.6492  1.4350
 8393TIP3   OH249373   4.341   3.107  10.664  0.3867  0.2679  0.4934
 8393TIP3    H149374   4.400   3.167  10.710 -0.0974 -0.0881  1.5970
 8393TIP3    H249375   4.306   3.160  10.592  1.9684  0.5157 -0.1459
 8394TIP3   OH249376   2.922   2.747  10.002  0.3288  0.3831 -0.4470
 8394TIP3    H149377   2.961   2.833  10.017 -0.4927  0.6663  0.1734
 8394TIP3    H249378   2.855   2.762   9.936 -0.2873  0.3751  0.1583
 8395TIP3   OH249379   4.617   0.086  10.095  0.0632 -0.4269  0.2865
 8395TIP3    H149380   4.606   0.021  10.165 -0.9087  0.5368  1.0792
 8395TIP3    H249381   4.546   0.067  10.034 -0.4010  0.0437  0.6665
 8396TIP3   OH249382   1.378   7.463  10.745 -0.0779 -0.3119 -0.6581
 8396TIP3    H149383   1.404   7.376  10.776 -2.6140 -0.7864  0.3166
 8396TIP3    H249384   1.404   7.463  10.653  2.7792 -0.8752  0.0459
 8397TIP3   OH249385   7.312   1.127  11.199  0.1897  0.2763  0.7005
 8397TIP3    H149386   7.297   1.221  11.205  1.3366  0.6948 -1.9727
 8397TIP3    H249387   7.398   1.114  11.239 -0.2261  0.2437  1.6114
 8398TIP3   OH249388   5.343   4.160  10.927 -0.9094 -0.1464 -0.5000
 8398TIP3    H149389   5.319   4.252  10.940 -0.0147 -0.2011  2.4641
 8398TIP3    H249390   5.302   4.114  11.000 -0.5909 -1.9607 -1.4085
 8399TIP3   OH249391   4.882   0.731  11.688 -0.3175  0.4920 -0.6173
 8399TIP3    H149392   4.810   0.697  11.636  0.5640 -1.9685 -0.3765
 8399TIP3    H249393   4.841   0.775  11.763 -1.5430 -0.3590 -0.7796
 8400TIP3   OH249394   7.469   1.912  10.169 -0.4489 -0.7036 -0.0836
 8400TIP3    H149395   7.517   1.995  10.172  0.2911 -1.0327 -1.5549
 8400TIP3    H249396   7.497   1.865  10.247  0.6371 -0.3433 -0.2286
 8401TIP3   OH249397   6.210   1.495  10.980  0.2378 -0.2623 -0.7340
 8401TIP3    H149398   6.149   1.437  11.025  0.6755  0.4873  0.8992
 8401TIP3    H249399   6.163   1.524  10.902 -1.5896  0.4783  0.5913
 8402TIP3   OH249400   5.487   2.797   9.970 -0.6334  0.7025 -0.1867
 8402TIP3    H149401   5.480   2.780  10.064  0.1724  0.1207 -0.2219
 8402TIP3    H249402   5.581   2.794   9.953 -0.7225  1.5332 -0.8825
 8403TIP3   OH249403   2.368   1.586  11.181 -0.1283  0.1894 -0.2336
 8403TIP3    H149404   2.378   1.596  11.275  1.0165 -2.8419  0.0804
 8403TIP3    H249405   2.285   1.540  11.170 -0.5125  0.9895 -0.7677
 8404TIP3   OH249406   5.773   4.661  11.810  0.3081 -0.0592  0.0395
 8404TIP3    H149407   5.746   4.740  11.858  1.7596  0.4761  0.0223
 8404TIP3    H249408   5.852   4.631  11.855 -0.7483 -2.1019  0.6510
 8405TIP3   OH249409   3.345   1.217  10.387  0.0970 -0.3763 -0.5539
 8405TIP3    H149410   3.431   1.257  10.390 -0.0155 -0.0030 -1.9116
 8405TIP3    H249411   3.350   1.145  10.450  1.3547 -0.2951 -0.5431
 8406TIP3   OH249412   5.901   5.695  10.630 -0.3761 -0.3412  0.5682
 8406TIP3    H149413   5.947   5.628  10.681  1.1371  1.2855  1.4752
 8406TIP3    H249414   5.890   5.768  10.691  0.8495  1.4205 -1.1682
 8407TIP3   OH249415   4.433   0.832  11.675  0.1227 -0.3352 -0.2238
 8407TIP3    H149416   4.373   0.844  11.602 -0.6708 -0.7389  0.3455
 8407TIP3    H249417   4.419   0.909  11.730 -0.6884 -0.9563  0.4629
 8408TIP3   OH249418   6.643   6.213  12.002 -0.1794 -0.0969 -1.0057
 8408TIP3    H149419   6.718   6.160  11.977 -0.1710 -0.6122  0.0241
 8408TIP3    H249420   6.667   6.303  11.980  0.9543 -0.1971 -0.2279
 8409TIP3   OH249421   6.888   5.644  11.714 -0.1627  0.0033 -0.6395
 8409TIP3    H149422   6.915   5.703  11.643 -0.8498  1.5216  0.3153
 8409TIP3    H249423   6.968   5.629  11.764  0.2407 -0.7566 -1.4748
 8410TIP3   OH249424   7.114   6.259  12.026  0.5149 -0.2503 -0.1874
 8410TIP3    H149425   7.056   6.324  12.065 -1.0441 -0.4194 -2.0663
 8410TIP3    H249426   7.057   6.185  12.006  1.0890 -0.0605 -2.9779
 8411TIP3   OH249427   6.950   7.213  11.660 -0.4270  0.2944  0.0207
 8411TIP3    H149428   7.001   7.242  11.736  0.4484  0.0416 -0.4570
 8411TIP3    H249429   6.859   7.225  11.686 -0.3648 -3.1142  2.5556
 8412TIP3   OH249430   3.842   2.638   9.904 -0.0784  0.1193  0.2964
 8412TIP3    H149431   3.907   2.688   9.854 -0.6612  0.7087  0.1140
 8412TIP3    H249432   3.801   2.703   9.961 -0.9368 -0.1233 -0.0333
 8413TIP3   OH249433   7.078   2.641  10.477  0.4247 -0.0887 -0.3494
 8413TIP3    H149434   7.081   2.723  10.527 -0.7240  0.2428 -0.8037
 8413TIP3    H249435   7.045   2.667  10.391 -0.1735 -1.0748 -0.4239
 8414TIP3   OH249436   3.044   1.573  11.519 -0.1633 -0.6356 -0.1291
 8414TIP3    H149437   3.139   1.567  11.508  0.2522  1.4948  1.5353
 8414TIP3    H249438   3.015   1.629  11.447  0.1623  0.2582  0.4140
 8415TIP3   OH249439   3.676   2.177  10.422  0.0334  0.2685  0.0515
 8415TIP3    H149440   3.631   2.111  10.475 -0.8573  0.8218  0.0161
 8415TIP3    H249441   3.619   2.254  10.426  1.6844  1.4855  1.1512
 8416TIP3   OH249442   0.631   0.776  10.155 -0.1870 -0.0891  0.0629
 8416TIP3    H149443   0.591   0.862  10.143 -2.2421 -0.5988  2.3901
 8416TIP3    H249444   0.637   0.765  10.249  0.8256 -2.1643 -0.1868
 8417TIP3   OH249445   3.698   6.003  11.906  0.2042 -0.5050 -0.1433
 8417TIP3    H149446   3.671   6.093  11.889  0.5246 -0.1703  1.0324
 8417TIP3    H249447   3.774   6.011  11.963  0.1661 -1.5274  0.0727
 8418TIP3   OH249448   5.895   6.914  11.252 -0.1964 -0.0781  0.6270
 8418TIP3    H149449   5.873   6.888  11.163 -1.9347 -1.6378  1.4266
 8418TIP3    H249450   5.946   6.841  11.287 -1.5827 -0.6191  1.6210
 8419TIP3   OH249451   1.042   3.588  11.162 -0.2018  0.4472  0.2917
 8419TIP3    H149452   1.072   3.658  11.104  0.3999 -0.1778 -0.1790
 8419TIP3    H249453   1.112   3.522  11.158 -1.2930 -0.7253 -0.2318
 8420TIP3   OH249454   3.638   3.679  10.607  0.1919 -0.3399  0.2615
 8420TIP3    H149455   3.598   3.766  10.603 -0.4821 -0.6338  0.5526
 8420TIP3    H249456   3.731   3.697  10.621 -0.0055  0.3282  0.7698
 8421TIP3   OH249457   2.735   3.230  10.515  0.2519  0.8763  0.3732
 8421TIP3    H149458   2.737   3.321  10.486  2.1451  1.0024  0.7919
 8421TIP3    H249459   2.700   3.234  10.603 -0.8631  1.0351 -0.0580
 8422TIP3   OH249460   4.160   1.263  10.472 -0.4897  0.1739  0.2626
 8422TIP3    H149461   4.076   1.239  10.512 -1.3830  1.0288 -1.0168
 8422TIP3    H249462   4.207   1.180  10.462 -2.0311 -0.6189 -0.8320
 8423TIP3   OH249463   5.792   6.730  12.204  0.0481 -0.3533  0.5026
 8423TIP3    H149464   5.705   6.731  12.162  0.2377  0.8766  0.0940
 8423TIP3    H249465   5.774   6.709  12.296 -0.7768  0.7033  0.6004
 8424TIP3   OH249466   6.669   4.880   9.870 -0.1537  0.6018  0.0014
 8424TIP3    H149467   6.717   4.958   9.842 -0.3434  0.5318 -0.5310
 8424TIP3    H249468   6.735   4.826   9.915 -0.1507  1.3124  0.8625
 8425TIP3   OH249469   7.406   5.902  11.486 -0.1266  0.1715 -0.4656
 8425TIP3    H149470   7.470   5.879  11.554  1.7367  2.0865 -1.4437
 8425TIP3    H249471   7.330   5.934  11.534  1.5929  2.6689  0.8477
 8426TIP3   OH249472   1.546   0.613  12.544  0.3639  0.1235 -0.1164
 8426TIP3    H149473   1.564   0.626  12.637  2.8985  2.9350 -0.8199
 8426TIP3    H249474   1.631   0.627  12.502 -0.5395 -1.8940 -2.8291
 8427TIP3   OH249475   4.733   4.278  10.811 -0.5315 -0.5420 -0.4406
 8427TIP3    H149476   4.739   4.373  10.820 -1.2619 -0.3991 -1.3361
 8427TIP3    H249477   4.677   4.250  10.883 -1.9729 -0.0426 -1.3368
 8428TIP3   OH249478   4.991   5.021  12.601 -0.2373  0.0103  0.0481
 8428TIP3    H149479   4.972   5.063  12.685 -1.1856 -0.6269  0.1642
 8428TIP3    H249480   5.061   5.075  12.563  1.6865 -0.8546  2.1234
 8429TIP3   OH249481   1.854   3.279  11.106 -0.7048  0.8608  0.0717
 8429TIP3    H149482   1.796   3.279  11.030  1.7497  1.0784 -1.9292
 8429TIP3    H249483   1.942   3.292  11.069  0.5739  1.2067  2.9850
 8430TIP3   OH249484   2.519   5.633  10.377  0.0419  0.1599  0.6934
 8430TIP3    H149485   2.436   5.622  10.330  1.1099 -1.8349 -0.8797
 8430TIP3    H249486   2.549   5.721  10.354 -1.3836  0.7482  0.9532
 8431TIP3   OH249487   6.160   2.503  11.308  0.2080  0.0720  0.5743
 8431TIP3    H149488   6.247   2.543  11.306 -0.5722  1.8634  0.2860
 8431TIP3    H249489   6.124   2.521  11.221 -0.5273 -0.4528  0.7602
 8432TIP3   OH249490   1.512   3.222  11.596 -0.1639  0.0609  0.1826
 8432TIP3    H149491   1.511   3.127  11.608  0.3790  0.0321  0.0151
 8432TIP3    H249492   1.522   3.234  11.502  1.2410  0.2786  0.3494
 8433TIP3   OH249493   0.825   2.181  12.175  0.2200  0.4486 -0.0810
 8433TIP3    H149494   0.881   2.137  12.239 -0.5580 -0.7498 -0.1922
 8433TIP3    H249495   0.736   2.163  12.205 -0.1559 -0.1698 -1.5146
 8434TIP3   OH249496   4.398   1.044  11.884  0.8509 -0.5440 -0.2500
 8434TIP3    H149497   4.437   1.130  11.868 -0.5456  0.3792  1.0063
 8434TIP3    H249498   4.455   1.004  11.949  0.6105  0.1549  0.4143
 8435TIP3   OH249499   7.491   6.670  10.119  0.1267  0.1082 -0.4408
 8435TIP3    H149500   7.562   6.683  10.182 -0.5807  0.6141  0.2835
 8435TIP3    H249501   7.526   6.607  10.056 -0.2328 -3.2186  2.3325
 8436TIP3   OH249502   5.095   2.942  11.435 -0.1113 -0.0453  0.2277
 8436TIP3    H149503   5.098   3.014  11.373 -0.4866 -1.4038 -1.4514
 8436TIP3    H249504   5.186   2.922  11.455  0.0033  0.5393  0.2944
 8437TIP3   OH249505   2.408   2.276  10.665 -0.3287 -0.0541  0.9186
 8437TIP3    H149506   2.386   2.365  10.639  3.7581  0.7860 -0.4523
 8437TIP3    H249507   2.359   2.220  10.605 -2.2195  1.2302  1.1726
 8438TIP3   OH249508   4.081   4.743  12.173  0.2233  0.1972 -0.0909
 8438TIP3    H149509   4.060   4.766  12.264 -0.4580  0.2369 -0.2526
 8438TIP3    H249510   4.026   4.667  12.155 -0.0633  0.5349 -0.6552
 8439TIP3   OH249511   5.848   3.756  11.308 -0.0119 -0.0233  0.4168
 8439TIP3    H149512   5.765   3.768  11.263  0.7819  0.9008 -0.8726
 8439TIP3    H249513   5.824   3.721  11.393 -1.8168  1.4298  0.5737
 8440TIP3   OH249514   2.848   2.884  10.626  0.1302  0.1681  0.1188
 8440TIP3    H149515   2.927   2.886  10.679 -0.1159  1.4121  0.4787
 8440TIP3    H249516   2.861   2.954  10.562 -0.4096 -0.0342 -0.2186
 8441TIP3   OH249517   1.735   2.412  12.496  0.0047  0.0539  0.7844
 8441TIP3    H149518   1.822   2.441  12.471 -0.1888 -0.8990 -1.1490
 8441TIP3    H249519   1.745   2.319  12.517 -0.9379 -0.8364 -2.2006
 8442TIP3   OH249520   3.156   0.135  10.398  0.5980 -0.4553 -0.2994
 8442TIP3    H149521   3.226   0.127  10.463  0.3425  1.6342  0.2997
 8442TIP3    H249522   3.116   0.220  10.416 -1.0837 -0.9093 -1.6447
 8443TIP3   OH249523   4.383   5.131  10.314 -0.1435 -0.1999 -0.3470
 8443TIP3    H149524   4.327   5.144  10.391 -1.3443 -1.9984 -0.8416
 8443TIP3    H249525   4.459   5.084  10.348  1.0013  1.9968  0.2794
 8444TIP3   OH249526   0.973   0.027  11.506  0.0918  0.3011  0.5694
 8444TIP3    H149527   1.060  -0.012  11.505 -0.6958 -1.5683 -0.1129
 8444TIP3    H249528   0.985   0.113  11.547  2.4320  0.6028 -0.6166
 8445TIP3   OH249529   3.346   5.532  10.539  0.3892  0.0232  0.1692
 8445TIP3    H149530   3.289   5.499  10.469 -1.5373 -1.3185  2.2664
 8445TIP3    H249531   3.373   5.455  10.587  0.3959  1.0372  1.8533
 8446TIP3   OH249532   7.475   1.409  10.398  0.0894 -0.1373  0.0792
 8446TIP3    H149533   7.568   1.431  10.410  0.3132 -0.8591 -0.2865
 8446TIP3    H249534   7.429   1.467  10.458  0.8012  0.0622  0.4429
 8447TIP3   OH249535   3.676   1.269  11.196 -0.8165 -0.1267 -0.0276
 8447TIP3    H149536   3.701   1.345  11.248 -1.2737  1.7472 -2.3843
 8447TIP3    H249537   3.756   1.217  11.190 -0.4367  0.2250  1.4389
 8448TIP3   OH249538   4.694   4.672  12.625 -0.3258 -0.4121  0.3274
 8448TIP3    H149539   4.756   4.700  12.692  1.0301 -1.1950 -0.5512
 8448TIP3    H249540   4.747   4.661  12.546 -1.6487 -0.7992 -0.5534
 8449TIP3   OH249541   4.944   4.262  10.365 -0.2524 -0.3205  0.0310
 8449TIP3    H149542   4.890   4.227  10.294  0.6418  0.7864 -1.2527
 8449TIP3    H249543   4.887   4.324  10.410 -0.8843 -1.1605  0.4194
 8450TIP3   OH249544   0.409   2.399  12.637  0.2365 -0.1327 -0.0843
 8450TIP3    H149545   0.458   2.412  12.556  1.6315 -2.2040  0.3520
 8450TIP3    H249546   0.471   2.420  12.707 -0.2562 -0.4549  0.4609
 8451TIP3   OH249547   2.551   7.013  11.727  0.5961 -0.4431 -0.3964
 8451TIP3    H149548   2.644   6.990  11.735  0.5448 -0.4758  0.1536
 8451TIP3    H249549   2.519   6.961  11.654  0.4992 -2.0986  0.7853
 8452TIP3   OH249550   2.215   0.535  10.308  0.1115 -0.3092 -0.8190
 8452TIP3    H149551   2.160   0.514  10.383  1.3756  1.0442  0.5663
 8452TIP3    H249552   2.238   0.451  10.270 -0.3778 -1.0409  0.4446
 8453TIP3   OH249553   2.458   5.104  12.234  0.0128  0.3617  0.9966
 8453TIP3    H149554   2.496   5.144  12.156 -0.2893  2.0197  1.6475
 8453TIP3    H249555   2.441   5.013  12.209  1.6559  0.3449 -0.2416
 8454TIP3   OH249556   5.420   7.664  10.757 -0.0588 -0.2494 -0.1830
 8454TIP3    H149557   5.382   7.617  10.683 -0.9238 -0.1776  0.2072
 8454TIP3    H249558   5.424   7.755  10.728 -0.7259 -0.1641 -0.0157
 8455TIP3   OH249559   5.024   0.605  10.553  0.0404  0.3632  0.7587
 8455TIP3    H149560   5.077   0.630  10.628  2.0981  0.2155 -0.5778
 8455TIP3    H249561   5.087   0.579  10.486 -1.7030  0.6269 -1.0885
 8456TIP3   OH249562   1.795   6.215  10.177 -0.5245  0.5447 -0.0479
 8456TIP3    H149563   1.888   6.238  10.181 -0.6261  0.8950  0.3842
 8456TIP3    H249564   1.773   6.186  10.266 -0.2824 -1.7649 -0.6647
 8457TIP3   OH249565   6.760   2.290  11.976 -0.1768  0.5018 -1.0217
 8457TIP3    H149566   6.714   2.211  11.946  1.4499 -0.4536 -1.0982
 8457TIP3    H249567   6.704   2.325  12.045 -0.7605 -0.9325 -0.7286
 8458TIP3   OH249568   3.974   0.394  10.622 -0.1359  0.2337  0.4702
 8458TIP3    H149569   3.989   0.418  10.530  0.8975  0.9739  0.8163
 8458TIP3    H249570   3.921   0.315  10.617  0.1179  0.1139 -0.7776
 8459TIP3   OH249571   6.405   1.352  11.594 -0.0093  0.3916  0.1503
 8459TIP3    H149572   6.359   1.427  11.555  1.7626  1.9752  0.9608
 8459TIP3    H249573   6.462   1.320  11.524  0.5041  0.9223  0.3185
 8460TIP3   OH249574   7.474   5.928  11.230 -0.1342 -0.1435 -0.4630
 8460TIP3    H149575   7.471   5.937  11.325  0.5417 -1.4327 -0.2916
 8460TIP3    H249576   7.387   5.897  11.206 -0.1161 -0.4295 -0.1753
 8461TIP3   OH249577   1.910   2.720  11.645  0.6756 -0.1479 -0.2231
 8461TIP3    H149578   1.906   2.781  11.572  0.8841 -0.7798 -0.7779
 8461TIP3    H249579   1.946   2.640  11.607  0.8799 -0.4569  0.5939
 8462TIP3   OH249580   2.078   5.378  11.153 -0.1611  0.3699 -0.0848
 8462TIP3    H149581   2.139   5.428  11.099 -1.8410  0.7688 -1.7069
 8462TIP3    H249582   2.130   5.305  11.186  0.8943 -0.1241 -2.5922
 8463TIP3   OH249583   0.357   6.858  10.293  0.3574 -0.0922 -0.3061
 8463TIP3    H149584   0.428   6.827  10.349  0.0416  0.7618  0.5839
 8463TIP3    H249585   0.283   6.801  10.314 -0.3761  1.4998  1.7084
 8464TIP3   OH249586   4.801   2.117   9.913 -0.1108  0.2363 -0.4225
 8464TIP3    H149587   4.775   2.025   9.901 -0.1154  0.1549  0.1856
 8464TIP3    H249588   4.855   2.136   9.837 -1.4369  0.2282 -1.3907
 8465TIP3   OH249589   4.002   2.292  10.662 -0.1118  0.0310  0.8497
 8465TIP3    H149590   3.975   2.207  10.628  0.1358  0.0008  0.7270
 8465TIP3    H249591   3.934   2.352  10.633  0.8262  0.2887 -0.9967
 8466TIP3   OH249592   4.232   2.904  12.219 -0.0596 -0.2180 -0.3693
 8466TIP3    H149593   4.228   2.810  12.203  0.6834 -0.0606 -1.6922
 8466TIP3    H249594   4.306   2.916  12.278 -0.9818 -0.5627  0.8862
 8467TIP3   OH249595   7.389   7.348  11.460  0.2041 -0.1733  0.2545
 8467TIP3    H149596   7.342   7.419  11.416 -0.5372 -0.8711 -0.1095
 8467TIP3    H249597   7.375   7.271  11.404 -0.1748 -0.9315  1.3472
 8468TIP3   OH249598   4.260   1.565   9.931 -0.0314 -0.5833  0.6784
 8468TIP3    H149599   4.187   1.543   9.873  0.0837  1.5761 -0.3620
 8468TIP3    H249600   4.248   1.658   9.950  3.4440  0.3703 -1.0293
 8469TIP3   OH249601   7.406   2.464  12.521  0.3343 -0.1739 -0.6926
 8469TIP3    H149602   7.453   2.388  12.555 -1.0450 -1.6466 -1.9480
 8469TIP3    H249603   7.319   2.458  12.561  0.0249  0.4411 -1.2564
 8470TIP3   OH249604   7.069   2.397  10.821  0.3369 -0.0485 -0.3040
 8470TIP3    H149605   7.014   2.372  10.895  0.7318 -0.9006 -0.2876
 8470TIP3    H249606   7.124   2.468  10.854  0.3524 -0.2691  0.1437
 8471TIP3   OH249607   5.936   4.919   9.866  0.5736 -0.0620  0.0002
 8471TIP3    H149608   5.995   4.865   9.920 -1.6546 -0.6381  2.0137
 8471TIP3    H249609   5.958   5.009   9.891  1.4994 -0.1874 -0.2997
 8472TIP3   OH249610   4.718   4.620  10.294 -0.0572 -0.0823  0.6181
 8472TIP3    H149611   4.743   4.562  10.366 -1.5291  0.7001  1.8065
 8472TIP3    H249612   4.631   4.652  10.318  0.9666  3.2413  0.4414
 8473TIP3   OH249613   6.047   6.980  12.949 -0.0269 -0.1868  0.1746
 8473TIP3    H149614   5.971   6.975  13.007  0.2438  3.1783  1.0300
 8473TIP3    H249615   6.050   7.071  12.921  0.8284 -1.2632 -3.9659
 8474TIP3   OH249616   1.624   7.678  12.691  0.4319  0.0856  0.6169
 8474TIP3    H149617   1.541   7.693  12.648 -0.0421 -1.0843  1.0632
 8474TIP3    H249618   1.635   7.751  12.751  0.1556  0.6935 -0.0676
 8475TIP3   OH249619   4.889   7.152  10.690  0.1494 -0.5270 -0.0481
 8475TIP3    H149620   4.961   7.091  10.679  0.9183  0.4587 -0.6300
 8475TIP3    H249621   4.880   7.161  10.785  1.6293  0.2812  0.0442
 8476TIP3   OH249622   5.888   4.972  11.818 -0.2878  0.1595 -0.2632
 8476TIP3    H149623   5.852   4.933  11.897 -0.0680  1.0114  0.2723
 8476TIP3    H249624   5.936   5.049  11.849  0.2204  0.2251 -1.1740
 8477TIP3   OH249625   0.405   3.907  10.426  0.8080 -0.4221  0.9436
 8477TIP3    H149626   0.478   3.965  10.404  0.6671 -0.7401 -0.4222
 8477TIP3    H249627   0.333   3.966  10.447  0.7788 -0.0809 -0.0562
 8478TIP3   OH249628   5.694   3.269  11.814 -0.3448  0.8811 -0.1009
 8478TIP3    H149629   5.724   3.322  11.888 -0.1150  0.2899  0.2305
 8478TIP3    H249630   5.688   3.180  11.849  1.7671  0.1982 -1.3216
 8479TIP3   OH249631   4.032   1.386  11.451  0.4618 -0.0193  0.0404
 8479TIP3    H149632   4.023   1.442  11.374  1.0266 -2.2715 -1.7607
 8479TIP3    H249633   3.955   1.406  11.504 -0.5628  0.7749 -1.6615
 8480TIP3   OH249634   7.226   0.204  11.471  0.2371  0.2020 -0.0047
 8480TIP3    H149635   7.290   0.155  11.523  0.0697 -1.4673 -1.2928
 8480TIP3    H249636   7.278   0.272  11.427  0.5993  0.7602  1.2322
 8481TIP3   OH249637   6.780   5.489   9.978  0.4603 -0.1802 -0.0837
 8481TIP3    H149638   6.849   5.527   9.924 -0.2006 -1.0724 -1.6237
 8481TIP3    H249639   6.825   5.425  10.033  0.9414 -0.4912 -0.8171
 8482TIP3   OH249640   1.165   7.537  11.052  0.1760 -0.0854 -0.0776
 8482TIP3    H149641   1.160   7.556  10.958 -1.2674 -0.4931 -0.0979
 8482TIP3    H249642   1.170   7.623  11.093 -0.5671  0.1468 -0.4576
 8483TIP3   OH249643   4.923   3.340  11.596 -0.2315 -0.0933  0.1909
 8483TIP3    H149644   4.891   3.392  11.670  0.1497  0.0154  0.2807
 8483TIP3    H249645   4.905   3.249  11.621  0.1110 -0.0730  0.5264
 8484TIP3   OH249646   3.018   4.251  11.920  0.0919 -0.1128 -0.5097
 8484TIP3    H149647   3.110   4.264  11.897  0.0355  0.6162 -0.3641
 8484TIP3    H249648   3.009   4.294  12.005  0.6276 -3.8725  1.6673
 8485TIP3   OH249649   3.453   5.291  11.882  0.3137  0.2359  0.2258
 8485TIP3    H149650   3.505   5.224  11.838 -0.0627  0.3882 -0.4716
 8485TIP3    H249651   3.480   5.286  11.974  0.8272 -0.3606  0.0517
 8486TIP3   OH249652   6.570   3.195  11.132  0.3198 -0.1916  0.2433
 8486TIP3    H149653   6.602   3.125  11.190 -0.8611 -2.5113 -1.7407
 8486TIP3    H249654   6.476   3.198  11.148 -0.0094 -0.7843 -1.3833
 8487TIP3   OH249655   1.741   7.652  11.654 -0.4869  0.1657  0.4747
 8487TIP3    H149656   1.777   7.568  11.681 -3.3248 -1.2857  0.1865
 8487TIP3    H249657   1.731   7.701  11.736 -1.1893 -0.8508  1.0265
 8488TIP3   OH249658   1.347   1.804  10.721  0.1665 -0.2479 -0.3626
 8488TIP3    H149659   1.300   1.853  10.654 -0.7528 -1.8741 -0.9754
 8488TIP3    H249660   1.414   1.755  10.673  0.7197 -0.0133  0.1590
 8489TIP3   OH249661   3.634   6.370  12.399 -0.6716  0.0552 -0.0966
 8489TIP3    H149662   3.566   6.364  12.466 -0.8067 -0.1375 -0.2519
 8489TIP3    H249663   3.598   6.427  12.332 -0.6296  0.0566 -0.1183
 8490TIP3   OH249664   1.046   2.848  10.810  0.8303 -0.2302  0.1740
 8490TIP3    H149665   1.043   2.775  10.871  0.6641 -0.3297  0.0461
 8490TIP3    H249666   0.964   2.895  10.823  0.7901 -0.2563  0.0201
 8491TIP3   OH249667   5.608   4.227  10.881 -0.6759  0.0876 -0.4923
 8491TIP3    H149668   5.513   4.233  10.873 -0.6791  1.2170  0.2337
 8491TIP3    H249669   5.641   4.252  10.794 -0.9975  1.8757 -0.1386
 8492TIP3   OH249670   6.009   3.616   9.847 -0.2334  0.4594 -0.2310
 8492TIP3    H149671   6.067   3.648   9.778 -1.2038 -1.5793 -2.1394
 8492TIP3    H249672   5.965   3.694   9.880  2.1351  1.8009 -0.0802
 8493TIP3   OH249673   5.875   5.076  10.397  0.9822  0.3186 -0.1395
 8493TIP3    H149674   5.931   5.126  10.458  0.6774  0.7466 -0.2045
 8493TIP3    H249675   5.786   5.098  10.423  0.8268  1.4665 -1.4773
 8494TIP3   OH249676   6.501   0.351  11.951  0.2949  0.4811 -0.9678
 8494TIP3    H149677   6.558   0.390  12.018  0.7434 -0.3581 -0.8442
 8494TIP3    H249678   6.553   0.278  11.916 -0.0827  0.6810 -1.9704
 8495TIP3   OH249679   4.417   2.953  11.495  0.1526  0.3702  0.3482
 8495TIP3    H149680   4.413   2.932  11.401 -1.6772  0.7324  0.3075
 8495TIP3    H249681   4.326   2.947  11.525  0.7649 -0.1955  2.2251
 8496TIP3   OH249682   2.922   4.025  11.600 -0.6556  0.2956 -0.5423
 8496TIP3    H149683   3.004   4.071  11.587 -0.1509 -0.6252 -0.7156
 8496TIP3    H249684   2.886   4.015  11.512 -0.0176 -0.9454 -0.6888
 8497TIP3   OH249685   7.293   5.371  11.954  0.2189  0.0782 -0.1110
 8497TIP3    H149686   7.298   5.288  11.906  1.8017  0.9944 -1.6376
 8497TIP3    H249687   7.299   5.438  11.886 -0.8339  1.4648  1.1076
 8498TIP3   OH249688   2.967   0.889  12.729 -0.0062 -0.2520 -0.1479
 8498TIP3    H149689   2.972   0.829  12.803  1.0910 -0.5550 -0.4570
 8498TIP3    H249690   2.907   0.847  12.668  0.8295 -1.1000 -0.4072
 8499TIP3   OH249691   6.225   6.450  10.742 -0.4507  0.8200  0.2966
 8499TIP3    H149692   6.210   6.474  10.833  0.9605  0.6873  0.5887
 8499TIP3    H249693   6.280   6.372  10.747 -0.2367  0.8998 -0.6663
 8500TIP3   OH249694   0.328   5.009   9.887  0.2355 -0.4442  1.1065
 8500TIP3    H149695   0.403   5.011   9.946  0.3012  0.6698  1.0030
 8500TIP3    H249696   0.255   5.039   9.941 -0.1153 -1.3471  1.1561
 8501TIP3   OH249697   7.516   4.735   9.780 -0.1112 -0.3234 -0.3267
 8501TIP3    H149698   7.514   4.828   9.760 -0.1629 -0.4851 -1.1154
 8501TIP3    H249699   7.427   4.714   9.809 -0.4105 -0.3448 -1.2260
 8502TIP3   OH249700   0.603   4.910  10.513 -0.6622  0.0113 -0.0197
 8502TIP3    H149701   0.648   4.950  10.588 -2.9137  0.7127  1.0259
 8502TIP3    H249702   0.621   4.817  10.522 -0.0061  0.1972  0.7430
 8503TIP3   OH249703   3.429   5.474  11.678  0.0450 -0.4876 -0.3490
 8503TIP3    H149704   3.400   5.448  11.591 -3.5580  1.4161  0.0883
 8503TIP3    H249705   3.406   5.400  11.734 -1.5829 -0.0835 -0.4480
 8504TIP3   OH249706   0.225   6.226  12.328 -0.0209  0.1986  0.4350
 8504TIP3    H149707   0.218   6.131  12.322 -1.5686  0.1982  1.6690
 8504TIP3    H249708   0.308   6.241  12.375  0.7847 -0.4646 -0.7229
 8505TIP3   OH249709   0.432   7.168  11.932  0.6011  0.0967  0.2183
 8505TIP3    H149710   0.517   7.127  11.917  0.4714 -0.2310  0.3539
 8505TIP3    H249711   0.428   7.181  12.026  0.8189  0.8185  0.1266
 8506TIP3   OH249712   3.258   4.189  10.226 -0.2947  0.0160  0.8046
 8506TIP3    H149713   3.281   4.217  10.315  0.2561  0.2822  0.5810
 8506TIP3    H249714   3.266   4.268  10.173  1.0732 -0.4815  0.2109
 8507TIP3   OH249715   3.202   3.588   9.868  0.0453  0.0303  0.0318
 8507TIP3    H149716   3.137   3.520   9.852  1.0731 -0.7795 -0.8927
 8507TIP3    H249717   3.283   3.540   9.888  0.6428  0.9879 -0.0182
 8508TIP3   OH249718   6.175   3.808  10.649  0.2323 -0.5436  0.3977
 8508TIP3    H149719   6.153   3.740  10.586  0.7250  0.4541 -0.9014
 8508TIP3    H249720   6.240   3.862  10.605 -1.1240  1.5618  0.8165
 8509TIP3   OH249721   4.840   1.313  11.245  0.6050  0.0531  0.1706
 8509TIP3    H149722   4.841   1.315  11.149  0.5763 -1.3006  0.1196
 8509TIP3    H249723   4.926   1.280  11.269  0.1222 -0.9560  0.5526
 8510TIP3   OH249724   1.897   0.570  12.711 -0.5080  0.1525 -0.1603
 8510TIP3    H149725   1.817   0.574  12.763 -1.1169  0.8781 -1.1095
 8510TIP3    H249726   1.955   0.512  12.760 -2.0976 -1.4740 -0.1263
 8511TIP3   OH249727   3.895   5.381  10.632  0.2839  0.6686 -0.3250
 8511TIP3    H149728   3.920   5.389  10.540  1.6631  0.5368  0.0178
 8511TIP3    H249729   3.851   5.464  10.652  2.2687  1.8203 -0.4383
 8512TIP3   OH249730   1.837   5.432  11.560  0.0843 -0.2829 -0.2949
 8512TIP3    H149731   1.807   5.454  11.471 -1.3964 -1.5306 -0.1617
 8512TIP3    H249732   1.823   5.512  11.610  0.9204  0.4372 -1.1665
 8513TIP3   OH249733   4.230   0.510  11.377 -0.3103 -0.0585  0.2641
 8513TIP3    H149734   4.217   0.512  11.471  1.3763 -0.7039  0.5244
 8513TIP3    H249735   4.222   0.602  11.350 -1.6420  0.0373  0.8707
 8514TIP3   OH249736   6.512   7.009  10.696 -0.0175 -0.1422 -0.4902
 8514TIP3    H149737   6.551   7.086  10.737  1.3994 -0.5572 -1.0021
 8514TIP3    H249738   6.422   7.035  10.676  0.0943  0.9709  0.3940
 8515TIP3   OH249739   3.444   0.169   9.894  0.2161  0.2866 -0.6583
 8515TIP3    H149740   3.514   0.147   9.833  3.0014 -0.9109  2.6163
 8515TIP3    H249741   3.407   0.084   9.920 -0.9868  0.7685 -0.7443
 8516TIP3   OH249742   7.277   0.377  10.700 -0.1646 -0.1015 -0.1342
 8516TIP3    H149743   7.226   0.385  10.619  1.4723 -0.2003 -1.2222
 8516TIP3    H249744   7.329   0.456  10.703  0.4403 -0.5111  0.3548
 8517TIP3   OH249745   0.145   2.978  10.436  0.9448  0.1512 -0.0812
 8517TIP3    H149746   0.085   2.951  10.505  0.4167 -0.4096 -0.7462
 8517TIP3    H249747   0.196   3.050  10.474  0.1789  0.3148  0.6457
 8518TIP3   OH249748   0.158   5.721  10.075  0.0025  0.0474 -0.5957
 8518TIP3    H149749   0.230   5.693  10.019 -0.1828 -1.3497 -0.1761
 8518TIP3    H249750   0.093   5.652  10.066  0.1115 -0.4118  1.5936
 8519TIP3   OH249751   1.641   5.582  10.669 -0.3551  0.4777 -0.1627
 8519TIP3    H149752   1.680   5.495  10.664  3.5494  1.9253  1.0550
 8519TIP3    H249753   1.626   5.597  10.762  1.8084  2.0572  0.0055
 8520TIP3   OH249754   2.510   1.197  12.850 -0.2483 -0.0153  0.0413
 8520TIP3    H149755   2.594   1.152  12.843 -0.1821  0.1695 -0.4350
 8520TIP3    H249756   2.517   1.268  12.787 -1.1631 -0.6431 -0.7969
 8521TIP3   OH249757   0.525   4.951  11.623 -0.2403 -0.4328  0.1438
 8521TIP3    H149758   0.489   4.862  11.632  0.2680 -1.0123 -2.7138
 8521TIP3    H249759   0.518   4.971  11.530  0.4012  2.2508  0.5872
 8522TIP3   OH249760   5.009   1.488  10.488 -0.1333 -0.2195  0.3409
 8522TIP3    H149761   5.051   1.450  10.411 -1.5217 -0.9841 -0.0692
 8522TIP3    H249762   5.040   1.579  10.490  0.7357 -0.4827 -0.5001
 8523TIP3   OH249763   6.017   2.489  10.826 -0.1989  0.2021 -0.1203
 8523TIP3    H149764   6.107   2.509  10.802 -0.0749  0.7681  0.7427
 8523TIP3    H249765   6.000   2.403  10.788  1.2794 -0.6930  1.1189
 8524TIP3   OH249766   3.492   1.221  11.479  0.4321 -0.2688  1.1107
 8524TIP3    H149767   3.406   1.214  11.437  0.2111  2.2562  0.9670
 8524TIP3    H249768   3.554   1.221  11.406  0.4017 -0.1979  1.0850
 8525TIP3   OH249769   3.889   0.771  10.831 -0.0995 -0.4316  0.4961
 8525TIP3    H149770   3.909   0.805  10.918  0.2855 -0.1777  0.3093
 8525TIP3    H249771   3.849   0.845  10.784  0.1788 -0.4085  0.2892
 8526TIP3   OH249772   0.712   1.207  11.486 -0.2985  0.4117  0.2899
 8526TIP3    H149773   0.754   1.124  11.505  1.1398  0.9707 -0.2894
 8526TIP3    H249774   0.735   1.263  11.560  0.5946  0.9201 -0.3496
 8527TIP3   OH249775   4.133   6.505   9.926 -0.1797 -0.0639  0.4230
 8527TIP3    H149776   4.083   6.475   9.850 -1.7211  0.9532  0.9791
 8527TIP3    H249777   4.118   6.439   9.993  0.0243 -0.2535  0.2811
 8528TIP3   OH249778   2.063   4.586  11.713  0.3240 -0.2333 -0.4054
 8528TIP3    H149779   2.106   4.641  11.648 -0.6678  1.1554  0.0532
 8528TIP3    H249780   1.992   4.640  11.747  1.2321 -0.5999  2.3513
 8529TIP3   OH249781   5.124   5.908  10.596 -0.4403  0.1148 -0.1899
 8529TIP3    H149782   5.208   5.935  10.558 -1.3581  0.6301 -1.9750
 8529TIP3    H249783   5.084   5.990  10.625 -0.7963  0.0132 -0.3898
 8530TIP3   OH249784   1.581   1.267  10.131  0.4559  0.0185 -0.2517
 8530TIP3    H149785   1.620   1.237  10.213 -2.5448 -0.7223  1.0330
 8530TIP3    H249786   1.573   1.362  10.142  0.1461 -0.0669  0.3128
 8531TIP3   OH249787   0.308   4.292  10.549 -0.5309 -0.0479  0.3562
 8531TIP3    H149788   0.255   4.360  10.508 -1.1040  0.2012  1.4872
 8531TIP3    H249789   0.394   4.332  10.564 -0.4712  0.0114 -0.1367
 8532TIP3   OH249790   2.808   0.753  10.723 -0.3329  0.6506 -0.3165
 8532TIP3    H149791   2.720   0.765  10.689 -1.2331 -1.0346  1.2244
 8532TIP3    H249792   2.831   0.838  10.762 -1.0076  1.2717 -1.2384
 8533TIP3   OH249793   6.274   7.441  12.061  0.4744  0.1765  0.3987
 8533TIP3    H149794   6.185   7.457  12.095 -0.0827  0.8075 -1.2787
 8533TIP3    H249795   6.261   7.391  11.981  1.3603  2.8771 -1.5729
 8534TIP3   OH249796   0.665   5.172   9.780  0.5496 -0.2925  0.2740
 8534TIP3    H149797   0.588   5.177   9.723  0.5176  0.6832  0.3726
 8534TIP3    H249798   0.630   5.183   9.869  0.9618  2.3778  0.1890
 8535TIP3   OH249799   4.054   1.048  10.619 -0.3961 -0.3012  0.1671
 8535TIP3    H149800   3.990   1.049  10.690  0.6834  1.5727  1.1878
 8535TIP3    H249801   4.108   0.971  10.638 -1.1206 -0.7624  0.4157
 8536TIP3   OH249802   1.080   0.767  11.599  0.3784 -0.0976  0.1774
 8536TIP3    H149803   1.061   0.844  11.653  0.7390 -0.5148  0.9041
 8536TIP3    H249804   1.131   0.802  11.525  0.1487  0.4258  0.2610
 8537TIP3   OH249805   0.294   0.585  12.182 -0.2400  0.1861 -0.3115
 8537TIP3    H149806   0.328   0.540  12.260  2.2895 -0.3687 -1.6238
 8537TIP3    H249807   0.368   0.635  12.149 -1.0832  0.0243 -2.6188
 8538TIP3   OH249808   6.402   0.971  11.324  0.1664 -0.5845  0.2622
 8538TIP3    H149809   6.439   1.055  11.295  2.1059 -1.1825  0.8190
 8538TIP3    H249810   6.323   0.960  11.271  0.6614  0.9109 -0.8578
 8539TIP3   OH249811   1.625   4.949  10.424  0.0294  0.3108  0.0097
 8539TIP3    H149812   1.681   5.026  10.411  0.0242  0.2312 -0.5227
 8539TIP3    H249813   1.570   4.947  10.345  0.2470 -0.4258 -0.1274
 8540TIP3   OH249814   6.538   1.890  11.456 -0.4222  0.7459  0.3778
 8540TIP3    H149815   6.512   1.830  11.527  0.7168  0.8042  0.8562
 8540TIP3    H249816   6.471   1.959  11.458 -0.2689  0.8762  1.5642
 8541TIP3   OH249817   4.815   0.673  10.233 -0.0710  0.0224 -0.4123
 8541TIP3    H149818   4.877   0.730  10.278 -0.3608 -0.9499  1.3263
 8541TIP3    H249819   4.862   0.642  10.156  1.1449  0.2908  0.2001
 8542TIP3   OH249820   6.255   0.269  10.002 -0.3989  0.1708  0.0663
 8542TIP3    H149821   6.211   0.351   9.980 -1.6301 -0.0622  1.4857
 8542TIP3    H249822   6.193   0.200   9.978  0.0947 -0.2806  0.0656
 8543TIP3   OH249823   6.808   4.745  10.442  0.3923  0.1332  0.3221
 8543TIP3    H149824   6.855   4.773  10.363 -1.0028  1.5235 -0.0561
 8543TIP3    H249825   6.822   4.650  10.446  0.6409  0.0658 -1.4885
 8544TIP3   OH249826   5.025   1.797  12.336 -0.1389 -0.1659  0.2475
 8544TIP3    H149827   5.006   1.731  12.270  0.0930 -0.5297  0.5392
 8544TIP3    H249828   5.120   1.802  12.339 -0.1535  0.0490  0.3549
 8545TIP3   OH249829   4.766   6.030  11.166 -0.6653 -0.1980  0.1428
 8545TIP3    H149830   4.728   5.964  11.223 -1.0506 -0.1091 -0.0059
 8545TIP3    H249831   4.709   6.106  11.176 -0.0024  0.2462  0.6091
 8546TIP3   OH249832   4.490   7.648  12.508  0.0172 -0.1632 -0.1405
 8546TIP3    H149833   4.563   7.683  12.457 -0.9627  2.3047  0.0209
 8546TIP3    H249834   4.415   7.702  12.484 -0.8494  0.0799  2.6800
 8547TIP3   OH249835   5.477   6.807  11.048 -0.2446  0.5646 -0.3423
 8547TIP3    H149836   5.468   6.806  10.953 -1.5014  1.4252 -0.2501
 8547TIP3    H249837   5.428   6.884  11.076 -0.1310  0.1593  1.0333
 8548TIP3   OH249838   6.964   5.055   9.582 -0.4509  0.4497  0.0760
 8548TIP3    H149839   7.044   5.023   9.625 -1.9548 -0.8535  2.0757
 8548TIP3    H249840   6.956   5.000   9.504 -1.9702 -3.0570  2.4806
 8549TIP3   OH249841   4.324   3.395  11.327  0.0106 -0.5849  0.3582
 8549TIP3    H149842   4.286   3.439  11.251  1.7924 -1.4992 -1.1295
 8549TIP3    H249843   4.248   3.366  11.378 -1.2582 -0.3890 -1.3309
 8550TIP3   OH249844   6.270   3.189  18.367 -0.2672 -0.2772 -0.0781
 8550TIP3    H149845   6.336   3.146  18.421  1.2444 -0.3425 -1.8597
 8550TIP3    H249846   6.205   3.222  18.429  1.9944  0.7784  1.9017
 8551TIP3   OH249847   5.899   2.884  11.272  0.2471  0.7127  0.1466
 8551TIP3    H149848   5.933   2.813  11.326 -1.9009 -0.2541  0.3237
 8551TIP3    H249849   5.947   2.962  11.302  0.3922 -0.1117  2.2045
 8552TIP3   OH249850   6.209   2.190  11.218 -0.1337  0.7928 -0.5897
 8552TIP3    H149851   6.125   2.191  11.264 -0.1186 -1.3417 -0.3940
 8552TIP3    H249852   6.185   2.176  11.126 -0.0164  0.9305 -0.6419
 8553TIP3   OH249853   3.626   2.255  11.812  0.3065 -0.8273 -0.4864
 8553TIP3    H149854   3.639   2.307  11.891 -1.0856  3.3356 -2.7141
 8553TIP3    H249855   3.538   2.219  11.821  0.8180 -1.9123  0.5316
 8554TIP3   OH249856   5.144   6.671  11.037 -0.6805 -0.3694 -0.7505
 8554TIP3    H149857   5.181   6.724  10.967 -1.5692 -0.0188 -0.9706
 8554TIP3    H249858   5.050   6.673  11.021 -0.8335 -0.8952  0.0297
 8555TIP3   OH249859   4.679   7.563  11.618 -0.5566  0.1033  0.0795
 8555TIP3    H149860   4.608   7.604  11.667 -0.4506 -0.8397  1.0720
 8555TIP3    H249861   4.748   7.550  11.683  0.3385  0.5426 -0.7551
 8556TIP3   OH249862   1.889   4.449  12.412  0.1225  0.2935  0.1829
 8556TIP3    H149863   1.975   4.478  12.442 -0.3154  0.3400  1.4553
 8556TIP3    H249864   1.832   4.525  12.424 -0.5443 -0.3583  1.4059
 8557TIP3   OH249865   0.270   2.993  12.024 -0.1159  0.0581  0.5445
 8557TIP3    H149866   0.267   2.924  11.957 -0.7516 -0.5223  1.1534
 8557TIP3    H249867   0.200   2.970  12.085  0.2533  0.7487  1.2462
 8558TIP3   OH249868   2.909   0.288  11.898 -0.5751  0.1488 -0.1151
 8558TIP3    H149869   2.980   0.249  11.848 -0.8265 -1.0887  0.4527
 8558TIP3    H249870   2.940   0.286  11.989 -1.2324 -0.1754  0.1075
 8559TIP3   OH249871   5.914   5.692  10.128  0.3913 -0.0800  0.2869
 8559TIP3    H149872   5.861   5.614  10.112  2.1582 -1.0830 -1.1894
 8559TIP3    H249873   5.851   5.763  10.138 -1.2536 -1.5483  0.8051
 8560TIP3   OH249874   2.098   6.217  11.900  0.2523  0.3518  0.3184
 8560TIP3    H149875   2.175   6.164  11.922 -0.6790 -0.1357  2.7412
 8560TIP3    H249876   2.102   6.291  11.960 -0.7941  0.6805  0.0118
 8561TIP3   OH249877   1.249   7.505  10.242 -0.0677 -0.0052 -0.9971
 8561TIP3    H149878   1.231   7.500  10.149 -2.6665  0.4544 -0.5799
 8561TIP3    H249879   1.183   7.449  10.283  0.2129  0.7802  0.6335
 8562TIP3   OH249880   3.445   1.901  15.620 -0.6959 -0.1826 -0.2563
 8562TIP3    H149881   3.437   1.958  15.696  0.0179  0.6989 -0.8344
 8562TIP3    H249882   3.516   1.938  15.569  0.0948 -1.8545 -0.4243
 8563TIP3   OH249883   1.671   5.755  10.447 -0.1050 -0.1966 -0.1490
 8563TIP3    H149884   1.627   5.694  10.388  0.4699  0.4298 -1.2732
 8563TIP3    H249885   1.672   5.711  10.532 -0.2612 -1.4641 -0.7851
 8564TIP3   OH249886   6.914   4.374  12.376  0.2721  0.2806 -0.0948
 8564TIP3    H149887   6.826   4.344  12.354  0.6511 -1.8622  1.0105
 8564TIP3    H249888   6.955   4.394  12.292 -1.6833  2.7976 -0.5653
 8565TIP3   OH249889   0.971   3.843  10.710  0.3500 -0.0324  0.6324
 8565TIP3    H149890   0.918   3.872  10.785 -1.4338  0.6148 -0.8265
 8565TIP3    H249891   1.060   3.840  10.745 -0.6114 -1.4501  3.2554
 8566TIP3   OH249892   2.009   5.644  10.839  0.0526 -0.4265  0.4079
 8566TIP3    H149893   1.962   5.671  10.919 -0.0484 -0.8711  0.5015
 8566TIP3    H249894   2.097   5.621  10.870  0.7781  1.6478  0.0514
 8567TIP3   OH249895   2.484   0.682  10.417  0.3900 -0.3435  0.0682
 8567TIP3    H149896   2.478   0.749  10.349 -0.6831 -0.0399  0.4437
 8567TIP3    H249897   2.499   0.601  10.368  3.0767  0.2957 -0.3181
 8568TIP3   OH249898   6.149   5.214  11.780  0.6356 -0.3654  0.7014
 8568TIP3    H149899   6.172   5.195  11.871 -0.0870  1.8934  1.4033
 8568TIP3    H249900   6.180   5.303  11.764 -1.4486  0.2257 -0.4503
 8569TIP3   OH249901   0.744   0.015  10.058 -0.1455 -0.0306  0.3455
 8569TIP3    H149902   0.670  -0.039  10.088 -0.8105  0.5543 -0.1975
 8569TIP3    H249903   0.729   0.100  10.099 -0.4224  0.4327 -0.6873
 8570TIP3   OH249904   2.382   6.820  10.118  0.9521  0.1738  0.2439
 8570TIP3    H149905   2.310   6.782  10.067  0.1381 -0.0178  1.4767
 8570TIP3    H249906   2.341   6.891  10.168  1.4922 -0.2881  1.3698
 8571TIP3   OH249907   6.714   5.683  11.368 -0.3234 -0.2208 -0.3128
 8571TIP3    H149908   6.683   5.751  11.309 -0.5728 -1.1041 -1.2232
 8571TIP3    H249909   6.671   5.702  11.451 -0.3214  0.7771 -0.5293
 8572TIP3   OH249910   6.359   0.008  11.825 -0.2799  0.1008 -0.1269
 8572TIP3    H149911   6.356  -0.029  11.913  2.2175 -0.7517 -0.3132
 8572TIP3    H249912   6.285  -0.031  11.779 -1.4094  0.2866  1.4646
 8573TIP3   OH249913   0.346   6.023  10.485 -0.1597  0.4577 -0.1235
 8573TIP3    H149914   0.272   6.009  10.543  0.7858 -0.0023  1.0108
 8573TIP3    H249915   0.328   5.969  10.408 -0.6165 -0.2872  0.4947
 8574TIP3   OH249916   2.568   3.423  10.900 -0.4110 -0.5505 -0.4284
 8574TIP3    H149917   2.597   3.332  10.892  0.6886 -0.0859 -2.1949
 8574TIP3    H249918   2.498   3.432  10.835  0.1140  0.0816 -0.9251
 8575TIP3   OH249919   3.166   3.777  10.051 -0.2883 -0.0874 -0.4097
 8575TIP3    H149920   3.141   3.726   9.974  0.4769 -1.3020  0.1116
 8575TIP3    H249921   3.145   3.867  10.028 -0.4923 -0.4771 -1.8648
 8576TIP3   OH249922   3.799   5.686  10.953 -0.4078 -0.2484  0.1169
 8576TIP3    H149923   3.838   5.632  10.884  1.3651  0.7711  0.2617
 8576TIP3    H249924   3.799   5.775  10.916 -2.9882 -0.2387 -0.0061
 8577TIP3   OH249925   4.850   7.230  11.217  0.0742 -0.4804  0.0226
 8577TIP3    H149926   4.825   7.300  11.277 -1.0470 -2.1167  1.5517
 8577TIP3    H249927   4.936   7.202  11.248  0.4073  0.0144 -0.4303
 8578TIP3   OH249928   0.666   4.687  10.763  0.0576 -0.7136 -0.4353
 8578TIP3    H149929   0.664   4.772  10.807 -1.8520 -0.3421 -1.1709
 8578TIP3    H249930   0.682   4.624  10.833  0.9145  0.1876  0.2013
 8579TIP3   OH249931   1.436   0.390  10.578 -0.2422  0.3888 -0.6226
 8579TIP3    H149932   1.363   0.377  10.518 -1.0258 -0.5803  0.4975
 8579TIP3    H249933   1.507   0.336  10.541 -0.6191  0.0315 -0.8386
 8580TIP3   OH249934   6.829   7.159  10.099  0.3455 -0.2373 -0.0596
 8580TIP3    H149935   6.781   7.201  10.027 -0.5436  0.0299  0.6706
 8580TIP3    H249936   6.816   7.065  10.085  3.1598 -0.4313 -2.2668
 8581TIP3   OH249937   5.349   5.184   9.945 -0.2707  0.2223 -0.2567
 8581TIP3    H149938   5.255   5.197   9.959  0.0865  1.8234  0.8416
 8581TIP3    H249939   5.354   5.105   9.891 -2.2476  0.1845 -0.4531
 8582TIP3   OH249940   3.348   0.110  11.758  0.0378 -0.4131  0.1769
 8582TIP3    H149941   3.431   0.062  11.755  0.2561 -0.0908 -3.5262
 8582TIP3    H249942   3.373   0.201  11.741 -0.9115  0.0860  1.3122
 8583TIP3   OH249943   2.114   4.348  10.805  0.1335  0.0838  0.2822
 8583TIP3    H149944   2.116   4.275  10.867  1.2612 -1.6502 -1.6561
 8583TIP3    H249945   2.205   4.378  10.801  0.0668  0.2137 -0.4252
 8584TIP3   OH249946   4.961   2.724  11.848  0.1867  0.1957 -0.1870
 8584TIP3    H149947   4.886   2.669  11.871 -0.4375  0.3169 -1.8208
 8584TIP3    H249948   5.037   2.665  11.853 -0.4239 -0.7582 -1.5280
 8585TIP3   OH249949   0.654   5.885  10.220  0.2068 -0.4977 -0.0492
 8585TIP3    H149950   0.593   5.872  10.147  0.7893 -1.5738 -0.3679
 8585TIP3    H249951   0.740   5.867  10.182  0.5966 -0.2246  0.6985
 8586TIP3   OH249952   5.379   2.760  10.944 -0.5068  0.0304  0.3984
 8586TIP3    H149953   5.416   2.833  10.894 -0.4838 -0.8994 -0.9917
 8586TIP3    H249954   5.386   2.788  11.035 -0.8075  1.9172 -0.0987
 8587TIP3   OH249955   7.384   7.143  11.262 -0.4723 -0.6902  0.3772
 8587TIP3    H149956   7.457   7.098  11.219 -0.4691 -0.9701  0.6635
 8587TIP3    H249957   7.326   7.168  11.191 -0.3461 -0.9254  0.1871
 8588TIP3   OH249958   7.231   2.808  11.712 -0.3986  0.4575 -0.1069
 8588TIP3    H149959   7.295   2.879  11.723 -1.6438  1.8794 -1.5620
 8588TIP3    H249960   7.253   2.769  11.628 -1.2716  0.7940 -0.5020
 8589TIP3   OH249961   3.075   2.391  10.434  0.2188 -0.4026 -0.2409
 8589TIP3    H149962   2.984   2.366  10.451  0.2569  0.5623  1.6380
 8589TIP3    H249963   3.119   2.379  10.518  0.9847  2.5383 -0.1260
 8590TIP3   OH249964   4.684   0.699   9.622  0.4652  0.1913  0.0090
 8590TIP3    H149965   4.650   0.622   9.576  1.1955 -0.5010  0.5914
 8590TIP3    H249966   4.696   0.765   9.554 -0.7246 -0.0020 -0.4136
 8591TIP3   OH249967   2.820   5.922  11.182  0.1797  0.1629 -0.0989
 8591TIP3    H149968   2.770   5.980  11.239 -1.5800 -0.5359 -0.8643
 8591TIP3    H249969   2.757   5.857  11.151  1.3853 -0.3200 -1.7223
 8592TIP3   OH249970   0.229   1.681  11.254 -0.5914  0.4189 -0.1761
 8592TIP3    H149971   0.260   1.623  11.325  1.3096  0.8259 -0.6119
 8592TIP3    H249972   0.162   1.735  11.295  0.1689  0.3542  1.2243
 8593TIP3   OH249973   2.198   6.547  11.457 -0.7408 -0.3517  0.3081
 8593TIP3    H149974   2.106   6.554  11.430 -1.0876 -0.0760  1.5202
 8593TIP3    H249975   2.237   6.630  11.431 -1.1627  0.0632  0.9779
 8594TIP3   OH249976   4.079   6.042  10.734 -0.4821  0.4541 -0.1100
 8594TIP3    H149977   4.055   6.078  10.819  0.4741  0.8703 -0.0138
 8594TIP3    H249978   4.121   5.958  10.754 -0.8868  0.2188 -0.2219
 8595TIP3   OH249979   4.510   0.629  10.708  0.1772  0.3135  0.0799
 8595TIP3    H149980   4.517   0.699  10.643  3.4810  0.9280  0.8780
 8595TIP3    H249981   4.585   0.572  10.689  0.0858 -0.5712  2.1191
 8596TIP3   OH249982   3.938   2.563  11.151  0.2514 -0.5293  0.2184
 8596TIP3    H149983   4.017   2.565  11.097  0.9890 -1.8597  1.1856
 8596TIP3    H249984   3.871   2.525  11.095  1.1146 -2.2988  0.3277
 8597TIP3   OH249985   0.196   6.293  12.853 -0.1473  0.3200  0.9301
 8597TIP3    H149986   0.136   6.365  12.871 -0.4680  0.5497 -0.9136
 8597TIP3    H249987   0.272   6.311  12.909 -1.4504  0.4057  2.7708
 8598TIP3   OH249988   5.156   4.851  10.017  0.0567  0.0684  0.3129
 8598TIP3    H149989   5.074   4.807  10.039  1.5937 -3.4112 -0.2931
 8598TIP3    H249990   5.151   4.865   9.923  0.5572 -1.1988  0.0774
 8599TIP3   OH249991   4.532   0.094  10.766 -0.1554  0.2252  0.1251
 8599TIP3    H149992   4.448   0.077  10.723  0.3717  2.0677 -1.7787
 8599TIP3    H249993   4.577   0.010  10.765 -0.6497 -0.0743 -1.9592
 8600TIP3   OH249994   6.435   4.198  12.349 -0.2000 -0.2023  0.8427
 8600TIP3    H149995   6.408   4.109  12.328 -0.2350 -0.0276  0.1344
 8600TIP3    H249996   6.375   4.254  12.299  0.7888  0.2032  0.0673
 8601TIP3   OH249997   0.947   2.245  10.992 -0.1267  0.6415 -0.2387
 8601TIP3    H149998   0.955   2.319  10.932  3.7666  0.5774 -0.0605
 8601TIP3    H249999   0.999   2.176  10.953  0.8739 -0.0944  2.1713
 8602TIP3   OH250000   6.886   6.967  11.472  0.2098  0.0727  0.9974
 8602TIP3    H150001   6.888   7.054  11.512 -1.8314  0.5502  0.1812
 8602TIP3    H250002   6.893   6.983  11.378  0.1576 -0.6573  0.8583
 8603TIP3   OH250003   4.485   0.455  11.427  0.6396  0.2531 -0.3715
 8603TIP3    H150004   4.523   0.421  11.346 -0.1242  0.6572 -0.9043
 8603TIP3    H250005   4.391   0.461  11.410  0.3950 -0.1482  0.7204
 8604TIP3   OH250006   1.855   0.957  12.332  0.3068  0.6388 -0.4408
 8604TIP3    H150007   1.884   1.006  12.254 -0.8854 -2.2688 -2.8942
 8604TIP3    H250008   1.760   0.953  12.323 -0.2622  2.7623  2.9226
 8605TIP3   OH250009   2.777   5.414  11.697  0.3316 -0.2391  0.4364
 8605TIP3    H150010   2.761   5.490  11.642  0.8417 -0.5921 -0.2143
 8605TIP3    H250011   2.849   5.441  11.755  2.2859 -1.0088 -1.4816
 8606TIP3   OH250012   1.133   3.985  10.144  0.2002 -0.1537  0.1749
 8606TIP3    H150013   1.107   4.075  10.164 -0.4281 -0.1352 -0.6685
 8606TIP3    H250014   1.199   3.964  10.210  0.1718  0.8364  0.5363
 8607TIP3   OH250015   3.154   2.011  10.711  0.3067 -0.6895 -0.0234
 8607TIP3    H150016   3.204   2.089  10.735 -0.9001  0.1423 -0.1114
 8607TIP3    H250017   3.130   2.026  10.619 -0.6662 -0.7467  0.2117
 8608TIP3   OH250018   4.037   5.283  11.180 -0.5985  0.6384 -0.6450
 8608TIP3    H150019   4.120   5.239  11.199 -1.7751 -1.3016  0.2459
 8608TIP3    H250020   4.001   5.235  11.106 -1.1927  1.1098 -0.6630
 8609TIP3   OH250021   6.116   1.177  11.655  0.1936  0.0224  0.1309
 8609TIP3    H150022   6.181   1.222  11.710 -1.1186  0.9147  1.0212
 8609TIP3    H250023   6.122   1.085  11.683  1.6706 -0.0861 -0.4458
 8610TIP3   OH250024   0.071   4.458  11.283 -0.1650  0.3910 -0.0729
 8610TIP3    H150025   0.117   4.396  11.226  1.4055  1.6901 -0.2777
 8610TIP3    H250026   0.120   4.456  11.365 -1.1674  0.0842  0.5373
 8611TIP3   OH250027   5.145   6.593  10.447  0.3738  0.0266  0.5053
 8611TIP3    H150028   5.166   6.638  10.365 -1.0067 -0.5506 -0.2036
 8611TIP3    H250029   5.103   6.661  10.501  1.9572  0.6023  1.0616
 8612TIP3   OH250030   6.323   6.785  11.127  0.5012 -0.1687  0.3401
 8612TIP3    H150031   6.246   6.783  11.183  1.0568  0.4707  1.1488
 8612TIP3    H250032   6.384   6.842  11.172  1.9539 -1.6525  0.3538
 8613TIP3   OH250033   6.341   6.138  10.044 -0.1278  0.1659 -0.2956
 8613TIP3    H150034   6.289   6.153   9.965 -1.0693  0.1659  0.3058
 8613TIP3    H250035   6.276   6.133  10.114  0.6552 -0.4173  0.3974
 8614TIP3   OH250036   3.114   3.019  11.540 -0.1841 -0.0074  0.8997
 8614TIP3    H150037   3.047   3.087  11.537 -0.3553 -0.1638  1.1109
 8614TIP3    H250038   3.147   3.014  11.450  1.6808  2.1581  1.3682
 8615TIP3   OH250039   3.007   4.360   9.315  0.1118 -0.0562  0.2566
 8615TIP3    H150040   2.956   4.325   9.242  0.4856  0.6929 -0.3721
 8615TIP3    H250041   2.985   4.303   9.389  0.0911 -1.1240 -0.5434
 8616TIP3   OH250042   1.620   2.160  11.850 -0.1727  0.6729  0.1633
 8616TIP3    H150043   1.541   2.107  11.855 -0.2337  0.7921  0.5491
 8616TIP3    H250044   1.683   2.114  11.906  0.0373  0.5681 -0.1564
 8617TIP3   OH250045   2.046   5.989  11.345  0.1808  0.2347 -0.4920
 8617TIP3    H150046   2.048   5.933  11.268 -0.1233  0.1459 -0.4362
 8617TIP3    H250047   2.103   6.063  11.323 -0.8087  0.7952 -1.2601
 8618TIP3   OH250048   0.090   6.617  12.838  0.1214 -0.1246  0.3551
 8618TIP3    H150049   0.106   6.657  12.753 -0.1211 -0.4632  0.1500
 8618TIP3    H250050   0.177   6.595  12.871  0.1695 -0.7244 -0.1610
 8619TIP3   OH250051   6.133   7.133  11.184 -0.0155  0.2434 -0.1791
 8619TIP3    H150052   6.054   7.080  11.178 -0.5069  1.1121 -2.2526
 8619TIP3    H250053   6.104   7.223  11.170  1.3350  0.5626 -1.1665
 8620TIP3   OH250054   4.553   6.941  11.546 -0.1565  0.5070 -0.3339
 8620TIP3    H150055   4.527   6.891  11.468 -0.5176  1.0342 -0.5567
 8620TIP3    H250056   4.645   6.917  11.560 -0.4675 -0.6273 -0.1222
 8621TIP3   OH250057   6.619   5.708  11.749  0.1213  0.2666  0.1125
 8621TIP3    H150058   6.709   5.680  11.767  0.1381  1.1382  1.5948
 8621TIP3    H250059   6.622   5.803  11.752 -0.9488  0.3041  0.8563
 8622TIP3   OH250060   1.374   6.000  11.332  0.7180  0.6960 -0.3079
 8622TIP3    H150061   1.420   5.961  11.407  0.2078  0.5875 -0.0428
 8622TIP3    H250062   1.421   5.968  11.255 -0.6842 -1.9008 -0.2143
 8623TIP3   OH250063   3.267   0.427  10.049  0.5434  0.3360 -0.2884
 8623TIP3    H150064   3.317   0.435   9.968 -0.6338  2.0157 -0.9273
 8623TIP3    H250065   3.297   0.500  10.103  1.0138 -0.5225  0.6457
 8624TIP3   OH250066   6.319   2.032  10.580  0.5494 -0.2520 -1.1140
 8624TIP3    H150067   6.340   2.038  10.487 -0.1502  1.0372 -1.2151
 8624TIP3    H250068   6.270   2.112  10.599 -0.8212 -1.2859 -0.0265
 8625TIP3   OH250069   2.595   0.797  12.689  0.0278  0.1917  0.5108
 8625TIP3    H150070   2.677   0.814  12.641 -0.2304  0.3573  0.1191
 8625TIP3    H250071   2.593   0.702  12.701 -0.5549 -0.0194 -1.0118
 8626TIP3   OH250072   6.596   2.338  10.762 -0.2210  0.3928  0.3892
 8626TIP3    H150073   6.667   2.355  10.700 -2.6198 -0.9473 -3.0620
 8626TIP3    H250074   6.596   2.243  10.772 -0.0261  0.5697  2.3985
 8627TIP3   OH250075   2.873   6.772  10.106 -0.0123  0.0257 -0.6785
 8627TIP3    H150076   2.865   6.865  10.086 -0.9088  0.0333 -0.3393
 8627TIP3    H250077   2.819   6.759  10.184 -0.6328 -0.9340 -1.2393
 8628TIP3   OH250078   4.546   3.621  10.859  0.2186  0.5796  0.0907
 8628TIP3    H150079   4.627   3.572  10.873  1.1926  2.0815 -0.0778
 8628TIP3    H250080   4.486   3.558  10.820  1.5751 -0.3565 -0.5360
 8629TIP3   OH250081   0.820   2.023  12.718 -0.1551  0.2498 -0.1930
 8629TIP3    H150082   0.848   2.074  12.642 -1.0067 -0.3898 -0.9683
 8629TIP3    H250083   0.900   1.982  12.751  0.3049  0.9425 -0.4249
 8630TIP3   OH250084   7.372   3.685  11.457 -0.2831  0.5873  0.1985
 8630TIP3    H150085   7.332   3.703  11.372  0.2862  0.0086 -0.2093
 8630TIP3    H250086   7.300   3.656  11.512 -0.4168 -0.6209 -0.5782
 8631TIP3   OH250087   2.952   5.577  12.172  0.0294 -0.6055 -0.6019
 8631TIP3    H150088   2.878   5.619  12.215  1.0433  1.1490 -0.5044
 8631TIP3    H250089   3.008   5.547  12.243 -0.0741 -1.0259 -0.6909
 8632TIP3   OH250090   0.830   3.849  11.850 -0.6131 -0.0916 -0.1364
 8632TIP3    H150091   0.891   3.884  11.915  0.2328 -1.2638 -0.2860
 8632TIP3    H250092   0.746   3.888  11.874 -0.3342 -0.5166  1.6750
 8633TIP3   OH250093   4.253   1.699  11.028 -0.0229  0.5595 -0.7963
 8633TIP3    H150094   4.162   1.687  11.002 -0.2969  0.7905  0.0211
 8633TIP3    H250095   4.250   1.706  11.123  1.2230 -2.9535 -0.3819
 8634TIP3   OH250096   2.892   6.904  12.484  0.4284 -0.4058  0.2520
 8634TIP3    H150097   2.807   6.940  12.510  0.8664  0.5653  0.3986
 8634TIP3    H250098   2.954   6.939  12.549  1.1467  0.0123 -0.6309
 8635TIP3   OH250099   3.027   3.395   9.786 -0.1204 -0.1672  0.3543
 8635TIP3    H150100   3.062   3.322   9.838  0.3740  0.3442  0.7442
 8635TIP3    H250101   3.018   3.358   9.698 -2.7431 -1.6282  1.1181
 8636TIP3   OH250102   6.173   4.505  11.277  0.1865  0.8593  0.4094
 8636TIP3    H150103   6.084   4.507  11.312  1.2885  0.9491  3.4435
 8636TIP3    H250104   6.177   4.424  11.226 -1.1215 -0.0943  1.7455
 8637TIP3   OH250105   4.432   6.508  11.481 -0.2202 -0.4016 -0.0358
 8637TIP3    H150106   4.366   6.444  11.506 -0.1053 -0.6088 -0.2619
 8637TIP3    H250107   4.495   6.507  11.553 -0.9437  0.4754  0.6379
 8638TIP3   OH250108   6.712   0.367  10.683  0.4987  0.2127  0.1790
 8638TIP3    H150109   6.702   0.462  10.690 -0.6073  0.2414 -1.4385
 8638TIP3    H250110   6.747   0.352  10.595  0.7642 -0.8763  0.4467
 8639TIP3   OH250111   5.233   0.241  11.713  0.2524 -0.5892  0.5949
 8639TIP3    H150112   5.283   0.308  11.665  0.0706 -0.6486  0.3235
 8639TIP3    H250113   5.246   0.264  11.805 -0.8750  0.6196  0.4828
 8640TIP3   OH250114   6.821   1.816  11.487  0.0529 -0.2110 -0.2445
 8640TIP3    H150115   6.750   1.799  11.549  0.6382 -0.8067  0.2813
 8640TIP3    H250116   6.780   1.865  11.416 -0.7583 -0.0340  0.3303
 8641TIP3   OH250117   5.413   4.888  10.694  0.0114  0.1252 -0.3696
 8641TIP3    H150118   5.394   4.931  10.611 -1.6165 -0.2234 -0.2146
 8641TIP3    H250119   5.336   4.832  10.710  1.0971 -1.1900  0.4833
 8642TIP3   OH250120   3.928   6.076   9.822 -0.2167  0.5514 -0.6290
 8642TIP3    H150121   3.892   6.052   9.737  1.0360  0.6078 -1.1927
 8642TIP3    H250122   3.851   6.078   9.880 -0.8845 -1.1630 -1.3512
 8643TIP3   OH250123   4.283   3.065  10.156  0.6204 -0.3053  0.0740
 8643TIP3    H150124   4.281   3.037  10.248  1.8001 -1.5130 -0.2433
 8643TIP3    H250125   4.329   3.149  10.158  1.7452 -0.9121  0.4631
 8644TIP3   OH250126   2.637   0.739  10.127 -0.0679  0.1193 -0.0619
 8644TIP3    H150127   2.633   0.810  10.063 -1.0007 -0.2990 -0.4860
 8644TIP3    H250128   2.700   0.770  10.193 -0.6171  1.4344 -0.1171
 8645TIP3   OH250129   4.112   1.390   9.732  0.4521  0.4455  0.5929
 8645TIP3    H150130   4.055   1.313   9.736  2.0225 -0.8394 -0.2653
 8645TIP3    H250131   4.086   1.435   9.651  1.4778 -0.8784 -0.5296
 8646TIP3   OH250132   1.081   0.623  10.544  0.0397  0.1299  0.1786
 8646TIP3    H150133   1.108   0.583  10.627 -0.2368  1.0809  0.7459
 8646TIP3    H250134   1.088   0.552  10.480 -0.3577 -0.8131  1.1301
 8647TIP3   OH250135   5.117   6.429  12.236 -0.1209  0.0494  0.2694
 8647TIP3    H150136   5.141   6.340  12.263 -3.6912 -1.5233 -1.1391
 8647TIP3    H250137   5.158   6.439  12.150  1.2803  0.3270  0.9314
 8648TIP3   OH250138   7.266   5.584  11.193 -0.5903 -0.5656  0.0351
 8648TIP3    H150139   7.223   5.500  11.185 -0.8747 -0.4538  0.3761
 8648TIP3    H250140   7.342   5.578  11.135  0.7156 -1.8989  1.7816
 8649TIP3   OH250141   1.796   0.869  11.939 -0.1988 -0.1353 -0.4804
 8649TIP3    H150142   1.890   0.848  11.933 -0.2522 -0.5130 -0.0474
 8649TIP3    H250143   1.794   0.962  11.962  0.0290  0.8236 -3.7890
 8650TIP3   OH250144   4.612   7.230  10.116 -0.5659 -0.6964  0.2328
 8650TIP3    H150145   4.582   7.308  10.161  0.0497 -0.8056  0.8587
 8650TIP3    H250146   4.538   7.169  10.121 -1.1374 -0.0792 -0.4818
 8651TIP3   OH250147   7.024   2.424  10.016 -0.2316  0.3004 -0.9058
 8651TIP3    H150148   6.947   2.461   9.973  0.3193  0.8908 -1.4065
 8651TIP3    H250149   6.994   2.400  10.104 -0.6248  1.8928 -0.5862
 8652TIP3   OH250150   2.179   7.315  11.108  0.4602 -0.6571 -0.4248
 8652TIP3    H150151   2.199   7.291  11.017 -0.1164  0.3350 -0.8211
 8652TIP3    H250152   2.263   7.340  11.145  0.4164  0.8387 -1.2773
 8653TIP3   OH250153   4.450   6.053  11.439  0.8383 -0.1371  0.0023
 8653TIP3    H150154   4.410   6.017  11.518 -1.9727  0.0237 -1.2452
 8653TIP3    H250155   4.526   6.102  11.471 -0.2315 -0.0224  2.6123
 8654TIP3   OH250156   1.571   3.290  11.261 -0.1102 -0.1335 -0.2255
 8654TIP3    H150157   1.493   3.238  11.244 -0.4438  0.4077 -0.3924
 8654TIP3    H250158   1.630   3.270  11.188  0.6722 -1.9559  0.8710
 8655TIP3   OH250159   0.989   3.438  11.423 -0.0091 -0.1061  0.3845
 8655TIP3    H150160   1.042   3.496  11.368  0.3277 -0.6735  0.1035
 8655TIP3    H250161   0.906   3.430  11.377  1.0477 -2.4455 -1.3161
 8656TIP3   OH250162   7.093   5.663  11.883  1.0966 -0.3779 -0.3142
 8656TIP3    H150163   7.177   5.689  11.845  0.1894  1.9229 -0.9199
 8656TIP3    H250164   7.106   5.674  11.977  1.8621 -1.3614 -0.2879
 8657TIP3   OH250165   2.764   3.917  10.911  0.0343  0.0035 -0.1298
 8657TIP3    H150166   2.772   3.822  10.901 -0.2326 -0.1609  1.0450
 8657TIP3    H250167   2.811   3.953  10.836  1.0486 -1.0411 -0.0278
 8658TIP3   OH250168   4.848   4.263  11.604 -0.5478  0.0458 -0.2487
 8658TIP3    H150169   4.828   4.340  11.551  1.6337  0.7587 -0.1347
 8658TIP3    H250170   4.767   4.247  11.653 -1.0905  2.2580 -0.2924
 8659TIP3   OH250171   6.717   5.156   9.740 -0.1777  0.3716  0.3987
 8659TIP3    H150172   6.680   5.244   9.744  1.8817  1.2538  1.7418
 8659TIP3    H250173   6.789   5.163   9.678 -0.3666 -0.5332  0.0632
 8660TIP3   OH250174   3.394   2.733  11.235  0.3610 -0.4316 -0.1474
 8660TIP3    H150175   3.408   2.827  11.218  2.0512 -0.4954  0.7074
 8660TIP3    H250176   3.350   2.730  11.320  0.4783 -0.4226 -0.0864
 8661TIP3   OH250177   1.379   2.471  12.787  0.1140  0.6269  0.7063
 8661TIP3    H150178   1.446   2.538  12.772 -0.1524  0.7656  0.0978
 8661TIP3    H250179   1.329   2.504  12.862  0.2227  0.9260  0.6506
 8662TIP3   OH250180   7.039   4.546   9.851 -0.0203 -0.1128 -0.5238
 8662TIP3    H150181   7.000   4.607   9.914 -1.3449 -0.9983 -0.4369
 8662TIP3    H250182   6.988   4.558   9.771  0.5889 -0.1600 -0.9285
 8663TIP3   OH250183   2.939   0.968  10.844  0.6732  0.0735 -0.2396
 8663TIP3    H150184   2.944   1.048  10.792 -0.0040  0.2330 -0.0720
 8663TIP3    H250185   2.962   0.995  10.933 -0.0489  0.1929 -0.0810
 8664TIP3   OH250186   6.261   3.774  12.023  0.2284 -0.0172  0.2516
 8664TIP3    H150187   6.165   3.774  12.018  0.2358 -1.0343 -0.0626
 8664TIP3    H250188   6.288   3.703  11.965  1.1851  0.3527  0.2285
 8665TIP3   OH250189   3.072   0.111  10.845  0.3018 -0.1098  0.2847
 8665TIP3    H150190   3.105   0.125  10.934 -1.7697 -0.0979  1.1147
 8665TIP3    H250191   3.057   0.017  10.839  1.5019 -0.2732 -0.4927
 8666TIP3   OH250192   3.663   6.126  10.363  0.3226 -0.4067 -0.7328
 8666TIP3    H150193   3.604   6.150  10.292 -0.4529  1.3945  0.4511
 8666TIP3    H250194   3.613   6.063  10.415 -1.1759  2.0148  0.9517
 8667TIP3   OH250195   0.045   3.075  10.134  0.6044 -0.1964  0.3379
 8667TIP3    H150196   0.062   3.107  10.222  0.3224 -0.1548  0.3756
 8667TIP3    H250197   0.082   3.142  10.076 -0.3322  0.3935  0.4093
 8668TIP3   OH250198   2.742   0.816  11.588 -0.4086 -0.0919  0.3358
 8668TIP3    H150199   2.816   0.760  11.611 -1.5424 -1.6533  0.3593
 8668TIP3    H250200   2.778   0.880  11.527  1.2876  0.2147  1.5946
 8669TIP3   OH250201   4.607   0.817  10.141 -1.2524  0.0035 -0.0542
 8669TIP3    H150202   4.663   0.753  10.186  0.2419 -0.1425 -1.9790
 8669TIP3    H250203   4.657   0.898  10.144 -1.9567  0.4386  0.1145
 8670TIP3   OH250204   7.178   6.701  11.124  0.2663 -0.2310  0.1524
 8670TIP3    H150205   7.130   6.740  11.052  0.3614 -2.6595 -1.3268
 8670TIP3    H250206   7.191   6.773  11.186 -1.5420  1.4664 -1.3181
 8671TIP3   OH250207   2.868   5.143  12.514 -0.1587 -0.2931 -0.5641
 8671TIP3    H150208   2.877   5.176  12.604  0.2183 -1.4552 -0.1532
 8671TIP3    H250209   2.775   5.150  12.495 -0.0820  1.0426 -0.5190
 8672TIP3   OH250210   7.149   7.063  10.729 -0.1517  0.1084  0.2748
 8672TIP3    H150211   7.156   6.987  10.672  0.6429 -0.7323  1.4578
 8672TIP3    H250212   7.055   7.080  10.734 -0.3252 -0.6581 -0.1780
 8673TIP3   OH250213   4.387   2.134  12.105  0.1163 -0.1230  0.4127
 8673TIP3    H150214   4.333   2.213  12.102  0.9630  0.4557 -0.1420
 8673TIP3    H250215   4.443   2.141  12.028  1.9712  0.0431  1.7046
 8674TIP3   OH250216   3.193   3.857   9.732  0.4650  0.3490  0.2678
 8674TIP3    H150217   3.155   3.769   9.736  0.5619  0.3418  2.2206
 8674TIP3    H250218   3.117   3.916   9.738  0.5336  0.3439  1.6484
 8675TIP3   OH250219   1.087   0.210  11.669  0.0752 -0.0993 -0.9024
 8675TIP3    H150220   1.108   0.292  11.625  1.0669  0.0323 -0.2267
 8675TIP3    H250221   1.064   0.236  11.758  0.4866 -0.5518 -0.6554
 8676TIP3   OH250222   1.288   4.518  10.511 -0.0477 -0.3222 -0.0794
 8676TIP3    H150223   1.310   4.509  10.418  2.0605  0.5763  0.2618
 8676TIP3    H250224   1.348   4.585  10.543 -2.7196  1.5862  1.3264
 8677TIP3   OH250225   3.552   6.246  11.906  0.7626  0.3066  0.1761
 8677TIP3    H150226   3.479   6.290  11.949  0.9793 -0.7033  1.6628
 8677TIP3    H250227   3.528   6.243  11.814 -0.1098  1.8212  0.3298
 8678TIP3   OH250228   2.884   6.413  11.355  0.5035  0.2419  0.0860
 8678TIP3    H150229   2.977   6.409  11.376  0.5653 -2.6527 -0.3824
 8678TIP3    H250230   2.840   6.384  11.434  0.2576 -1.8364 -0.7493
 8679TIP3   OH250231   7.379   7.500  10.552 -0.0434 -0.4210 -0.1228
 8679TIP3    H150232   7.313   7.556  10.593 -0.0387 -1.1115  0.8758
 8679TIP3    H250233   7.385   7.424  10.610 -0.8155 -1.9800 -1.9862
 8680TIP3   OH250234   0.234   3.834  10.739 -0.6465  0.3987  0.4380
 8680TIP3    H150235   0.225   3.924  10.707 -1.0863  0.2678  0.1912
 8680TIP3    H250236   0.145   3.804  10.753 -0.5292 -0.2505 -0.1755
 8681TIP3   OH250237   7.397   2.608  10.673  0.2717 -0.0144  0.0073
 8681TIP3    H150238   7.394   2.543  10.603 -0.1686  0.3945 -0.3649
 8681TIP3    H250239   7.477   2.589  10.721  1.4645  0.7017 -1.6029
 8682TIP3   OH250240   2.315   0.283  10.224 -0.0574  0.3952  0.3833
 8682TIP3    H150241   2.388   0.278  10.286  1.2550  0.7409 -1.0611
 8682TIP3    H250242   2.334   0.215  10.159 -1.2562  0.2161  0.1884
 8683TIP3   OH250243   6.643   1.320   9.940 -0.1918  0.5248  0.2733
 8683TIP3    H150244   6.650   1.364   9.855  0.5115 -0.5523 -0.2465
 8683TIP3    H250245   6.713   1.359   9.992  0.5638 -0.0841 -0.2543
 8684TIP3   OH250246   7.474   5.006  11.627  0.8385  0.0377  0.6297
 8684TIP3    H150247   7.507   5.038  11.543 -0.5935 -1.1677 -0.4247
 8684TIP3    H250248   7.489   4.911  11.625 -0.7424 -0.2379  1.0143
 8685TIP3   OH250249   5.796   3.690  11.561 -0.5602  0.2391 -0.0186
 8685TIP3    H150250   5.741   3.729  11.629 -1.7281 -0.8518 -0.3002
 8685TIP3    H250251   5.776   3.596  11.565  1.5635 -0.2648  0.1065
 8686TIP3   OH250252   5.538   0.683  11.169  0.2825 -0.1386  0.2445
 8686TIP3    H150253   5.573   0.701  11.256  0.2618 -0.5225  0.3362
 8686TIP3    H250254   5.451   0.647  11.185  0.7553 -1.3854  0.1362
 8687TIP3   OH250255   7.073   3.711  10.524 -1.4455  0.1557 -0.0221
 8687TIP3    H150256   7.083   3.679  10.434  0.8465 -1.8024  0.8212
 8687TIP3    H250257   7.013   3.649  10.565 -0.3257 -0.6485  0.4723
 8688TIP3   OH250258   6.927   4.265  11.336 -0.1763 -0.5683 -0.2370
 8688TIP3    H150259   6.923   4.172  11.311 -2.1610 -1.2392  2.1595
 8688TIP3    H250260   6.966   4.265  11.423  0.2552  0.9072 -0.4072
 8689TIP3   OH250261   2.886   7.302  10.350  0.0293  0.0810  0.5913
 8689TIP3    H150262   2.895   7.355  10.430 -0.1863  1.6190 -0.3693
 8689TIP3    H250263   2.796   7.269  10.353  0.3789 -0.8615  1.5425
 8690TIP3   OH250264   5.703   5.567  11.230 -0.0609 -0.4445  0.1524
 8690TIP3    H150265   5.670   5.494  11.177 -0.1918 -0.0539 -0.3124
 8690TIP3    H250266   5.781   5.597  11.183  0.6799 -1.0225  0.9638
 8691TIP3   OH250267   3.195   5.688  12.343  0.6958 -0.3725 -0.2386
 8691TIP3    H150268   3.178   5.630  12.418  1.0983  2.8174  2.5558
 8691TIP3    H250269   3.144   5.766  12.361  0.9474  0.6400 -3.3225
 8692TIP3   OH250270   0.275   0.396  11.297 -0.4685  0.1088  0.0098
 8692TIP3    H150271   0.237   0.341  11.365  3.0418  1.8348  3.8236
 8692TIP3    H250272   0.331   0.336  11.247 -3.3633 -1.2534 -1.8622
 8693TIP3   OH250273   7.519   3.167  10.618 -0.5433  0.6150  0.4204
 8693TIP3    H150274   7.610   3.186  10.595 -0.0741 -0.8922  0.9370
 8693TIP3    H250275   7.524   3.097  10.683 -2.0671  0.7430  0.7216
 8694TIP3   OH250276   6.270   5.834  10.231  0.1049 -0.0296  0.0268
 8694TIP3    H150277   6.311   5.840  10.318 -1.9779 -2.3491  1.3007
 8694TIP3    H250278   6.216   5.913  10.224  0.9849  0.6237  0.4138
 8695TIP3   OH250279   3.785   1.158  11.485 -0.6117  0.1262 -0.4170
 8695TIP3    H150280   3.754   1.067  11.479 -3.0923  0.7702  1.0324
 8695TIP3    H250281   3.810   1.169  11.577 -0.1255  0.8622 -0.6265
 8696TIP3   OH250282   0.458   7.260   9.872  0.4557 -0.2737 -0.0634
 8696TIP3    H150283   0.377   7.310   9.872  1.1424  0.8831 -0.4800
 8696TIP3    H250284   0.430   7.169   9.873 -0.8349  0.1042  0.9099
 8697TIP3   OH250285   0.698   1.674  11.854 -0.0574 -0.3131  0.0170
 8697TIP3    H150286   0.702   1.765  11.824 -1.4196 -0.5850 -1.1186
 8697TIP3    H250287   0.790   1.647  11.861  0.3961  1.3802  1.2079
 8698TIP3   OH250288   5.626   2.642  11.377 -0.2441  0.0491 -0.0403
 8698TIP3    H150289   5.648   2.659  11.469 -3.7205  1.0739  0.7639
 8698TIP3    H250290   5.545   2.592  11.381 -0.4942  0.1374 -2.5768
 8699TIP3   OH250291   3.874   6.569  10.924 -0.4841 -0.0909 -0.0807
 8699TIP3    H150292   3.945   6.588  10.985 -2.0520 -1.0948  2.1959
 8699TIP3    H250293   3.795   6.569  10.978 -1.9980 -0.9444 -2.1484
 8700TIP3   OH250294   1.627   3.375  11.861 -0.2434  0.6152 -0.5367
 8700TIP3    H150295   1.699   3.414  11.811  0.8684 -0.5321  0.1198
 8700TIP3    H250296   1.662   3.293  11.895 -1.4302  0.6755  0.9544
 8701TIP3   OH250297   6.123   6.770  11.501 -0.4346  0.0307  0.2208
 8701TIP3    H150298   6.203   6.822  11.499  0.4626 -1.1721  2.1639
 8701TIP3    H250299   6.144   6.695  11.557 -2.9664 -0.2097  0.9868
 8702TIP3   OH250300   7.538   0.752  11.064  1.0635  0.4366  0.3679
 8702TIP3    H150301   7.534   0.668  11.110  1.2381 -0.0282 -0.4276
 8702TIP3    H250302   7.609   0.800  11.107  0.6558  0.3700  1.1311
 8703TIP3   OH250303   4.042   1.879  11.274  0.4005 -0.8956 -0.2539
 8703TIP3    H150304   4.084   1.940  11.213 -0.3826 -0.4821 -0.3914
 8703TIP3    H250305   3.948   1.891  11.259  0.2181 -1.3296  0.5078
 8704TIP3   OH250306   0.871   6.826  10.013  0.3197 -0.3492  0.4249
 8704TIP3    H150307   0.952   6.872   9.994 -0.6890  1.2803 -0.2004
 8704TIP3    H250308   0.879   6.742   9.968  1.0122  0.4340 -0.9723
 8705TIP3   OH250309   2.118   0.146  12.982 -0.2863 -0.0305  0.2785
 8705TIP3    H150310   2.200   0.192  12.962 -0.5067  0.4106  0.3701
 8705TIP3    H250311   2.135   0.055  12.959 -0.4020  0.3727 -1.5877
 8706TIP3   OH250312   0.618   3.680  11.483  0.0946  0.0594 -0.5276
 8706TIP3    H150313   0.601   3.773  11.501 -0.3368 -0.0854 -0.1566
 8706TIP3    H250314   0.533   3.638  11.496 -0.1191 -0.1469 -2.3492
 8707TIP3   OH250315   1.418   3.384  10.472  0.5803  0.1315  0.6763
 8707TIP3    H150316   1.507   3.406  10.499  1.4934 -2.3534 -0.0649
 8707TIP3    H250317   1.381   3.338  10.548  0.8344 -1.0379  0.1080
 8708TIP3   OH250318   0.569   0.506  10.074  0.1282 -0.6149  0.0045
 8708TIP3    H150319   0.573   0.601  10.061  0.8188 -0.6633 -0.1605
 8708TIP3    H250320   0.477   0.489  10.098 -0.4323 -0.1313 -1.6420
 8709TIP3   OH250321   6.217   5.759  12.286  0.2846  0.1847  0.3004
 8709TIP3    H150322   6.238   5.714  12.368  0.8483  1.7384  1.0556
 8709TIP3    H250323   6.204   5.689  12.222  3.8630 -1.0552  0.7188
 8710TIP3   OH250324   1.280   4.521  10.835  0.2231  0.3781 -0.0462
 8710TIP3    H150325   1.296   4.611  10.803 -3.0973  1.4934  1.0177
 8710TIP3    H250326   1.225   4.533  10.912 -0.3803 -2.6102  0.0749
 8711TIP3   OH250327   5.467   0.024   9.955  0.3241 -0.0380  0.2713
 8711TIP3    H150328   5.548   0.074   9.944  0.0605  0.1737 -0.9498
 8711TIP3    H250329   5.398   0.091   9.961 -0.1978 -0.1225 -2.7132
 8712TIP3   OH250330   6.243   3.528  11.954 -0.7241 -0.1377 -0.3288
 8712TIP3    H150331   6.233   3.438  11.985 -1.3736 -0.2644 -0.8643
 8712TIP3    H250332   6.187   3.533  11.876  0.7633  0.1842 -1.4353
 8713TIP3   OH250333   3.795   7.077  10.809  0.1488  0.3017  0.2475
 8713TIP3    H150334   3.853   7.006  10.781  0.9037  1.0331 -0.0850
 8713TIP3    H250335   3.736   7.036  10.873  0.3583 -0.6935 -0.1763
 8714TIP3   OH250336   6.158   1.203  10.773  0.0968  0.2117 -0.3919
 8714TIP3    H150337   6.066   1.206  10.801  0.0199 -0.0144 -0.6160
 8714TIP3    H250338   6.157   1.150  10.693  0.4386  0.1044 -0.3282
 8715TIP3   OH250339   6.852   3.595  10.021 -0.5516  0.2106 -0.3974
 8715TIP3    H150340   6.853   3.511  10.068 -0.7065 -0.4655 -1.5613
 8715TIP3    H250341   6.935   3.596   9.973 -0.8192  0.4437 -0.8579
 8716TIP3   OH250342   0.664   1.777  11.143 -0.0981  0.3256 -0.1017
 8716TIP3    H150343   0.710   1.717  11.201 -1.1921  1.2117  1.7941
 8716TIP3    H250344   0.733   1.825  11.098  0.8421 -2.9222 -2.4943
 8717TIP3   OH250345   5.782   7.242  11.157  0.1997 -0.0920 -0.0152
 8717TIP3    H150346   5.783   7.171  11.092 -1.4372  1.8954 -2.4221
 8717TIP3    H250347   5.871   7.278  11.154  0.2681 -0.2986 -0.8617
 8718TIP3   OH250348   2.527   7.292  12.085 -0.3457  0.0721  0.2237
 8718TIP3    H150349   2.451   7.304  12.028 -0.6304  2.3395  0.9625
 8718TIP3    H250350   2.490   7.294  12.174  0.5820  1.7853  0.6150
 8719TIP3   OH250351   6.793   3.644  10.350 -0.2328  0.3185  0.5844
 8719TIP3    H150352   6.769   3.556  10.321 -2.1315  0.6891  0.9432
 8719TIP3    H250353   6.883   3.655  10.318  0.3705 -2.0507  1.2558
 8720TIP3   OH250354   2.587   1.077  11.132  0.2334 -0.3138  0.0056
 8720TIP3    H150355   2.601   0.993  11.089 -0.7771 -0.4818 -0.0393
 8720TIP3    H250356   2.580   1.055  11.225 -0.3094 -0.3216 -0.0346
 8721TIP3   OH250357   5.744   7.139  12.301  0.1839 -0.3902  0.7284
 8721TIP3    H150358   5.663   7.117  12.255  0.6887 -1.2667  0.2286
 8721TIP3    H250359   5.732   7.230  12.329 -1.3380 -0.7857  1.4622
 8722TIP3   OH250360   6.960   3.447  10.580 -0.3143  0.6793  0.0919
 8722TIP3    H150361   7.038   3.460  10.633 -1.4435  0.3606  1.9003
 8722TIP3    H250362   6.983   3.374  10.522  0.6897  0.5371  0.6508
 8723TIP3   OH250363   6.094   1.987  11.552  0.4020  0.8821  0.5392
 8723TIP3    H150364   6.077   1.998  11.646  0.4537 -0.1093  0.6794
 8723TIP3    H250365   6.024   1.929  11.522  2.0313 -1.2503  0.6094
 8724TIP3   OH250366   7.618   5.849  10.448  0.1262 -0.5028 -0.7315
 8724TIP3    H150367   7.694   5.792  10.458 -0.2263 -0.7323  1.0458
 8724TIP3    H250368   7.650   5.936  10.470  0.0030 -0.5186 -0.4802
 8725TIP3   OH250369   2.246   2.446  11.141  0.7437 -0.3137  0.0731
 8725TIP3    H150370   2.219   2.528  11.182  3.2013  0.6950 -0.1688
 8725TIP3    H250371   2.309   2.408  11.203  0.6643 -1.3242 -0.4481
 8726TIP3   OH250372   7.528   1.319  10.704 -0.4844 -0.2377 -0.3503
 8726TIP3    H150373   7.457   1.332  10.767 -1.3261 -1.9170 -0.9100
 8726TIP3    H250374   7.486   1.328  10.618  0.4812  1.1492 -0.7225
 8727TIP3   OH250375   3.934   1.568   9.589 -0.1593 -0.7644 -0.0218
 8727TIP3    H150376   3.856   1.606   9.549 -0.7080 -1.2882  0.5400
 8727TIP3    H250377   3.972   1.640   9.640 -1.1556 -0.9215  0.9780
 8728TIP3   OH250378   1.229   4.559   9.770 -0.4366  0.0060 -0.1636
 8728TIP3    H150379   1.147   4.522   9.803  1.3691 -2.3630  2.0526
 8728TIP3    H250380   1.260   4.495   9.706  0.8228 -0.3451  0.7848
 8729TIP3   OH250381   1.068   0.163  10.281 -0.0426 -0.6431  0.0811
 8729TIP3    H150382   0.980   0.168  10.320 -0.8810 -1.0879 -1.6564
 8729TIP3    H250383   1.077   0.071  10.255  1.0234 -0.6391  0.4133
 8730TIP3   OH250384   1.938   7.519  11.185 -0.0248  0.3346 -0.0161
 8730TIP3    H150385   1.997   7.511  11.260 -0.9027  0.8909  0.7585
 8730TIP3    H250386   1.896   7.434  11.178 -0.4820  0.5001  0.6065
 8731TIP3   OH250387   3.957   0.724  11.483 -0.1420  0.0505  0.4493
 8731TIP3    H150388   4.037   0.758  11.522  1.1327 -2.0473 -0.1800
 8731TIP3    H250389   3.935   0.647  11.536 -0.1612 -0.9793 -0.9971
 8732TIP3   OH250390   6.840   7.614  11.559 -0.5570 -0.4206 -0.1152
 8732TIP3    H150391   6.882   7.690  11.600  0.6844 -0.7553 -0.7124
 8732TIP3    H250392   6.791   7.572  11.630  0.3504 -0.1580  0.6813
 8733TIP3   OH250393   7.415   4.138  11.341  0.0798  0.3917 -0.3021
 8733TIP3    H150394   7.470   4.064  11.369  0.8137  0.1777 -2.1668
 8733TIP3    H250395   7.329   4.119  11.378  0.6187 -0.6478  0.4734
 8734TIP3   OH250396   1.888   0.045  10.794  0.2248  0.1694 -0.0515
 8734TIP3    H150397   1.860   0.087  10.876  0.2338  0.0367  0.0197
 8734TIP3    H250398   1.921  -0.040  10.822  0.3319  0.1690 -0.1812
 8735TIP3   OH250399   0.101   3.737  12.070 -0.4016  0.1157 -0.3180
 8735TIP3    H150400   0.051   3.806  12.026 -0.6937  0.5038  0.5910
 8735TIP3    H250401   0.088   3.754  12.163 -0.4159 -1.1377 -0.0751
 8736TIP3   OH250402   3.235   4.469  10.702  0.2526 -0.0336  0.1017
 8736TIP3    H150403   3.312   4.525  10.698 -0.7611  1.4068 -0.6805
 8736TIP3    H250404   3.172   4.520  10.753 -1.0167  0.0098 -1.4157
 8737TIP3   OH250405   3.694   3.020  10.403 -0.0365  0.0799  0.0755
 8737TIP3    H150406   3.620   3.075  10.431  0.0832 -0.3117  1.2232
 8737TIP3    H250407   3.666   2.931  10.422  0.7094 -0.0774  0.4783
 8738TIP3   OH250408   4.358   4.379   9.986  0.0609 -0.3901  0.2459
 8738TIP3    H150409   4.443   4.415  10.009  0.5530  1.5079 -3.7323
 8738TIP3    H250410   4.296   4.451  10.000 -0.5107 -0.9687  0.7865
 8739TIP3   OH250411   6.286   5.318  10.362  0.0092  0.4674  0.2513
 8739TIP3    H150412   6.262   5.236  10.318  0.1922  0.0170  0.9764
 8739TIP3    H250413   6.257   5.387  10.302  0.9076 -0.1395 -0.9148
 8740TIP3   OH250414   4.618   5.820  11.319 -0.5692 -0.5164  0.1298
 8740TIP3    H150415   4.565   5.741  11.316 -1.2425 -0.0572 -0.3771
 8740TIP3    H250416   4.564   5.884  11.366 -1.5128  0.6758 -2.3514
 8741TIP3   OH250417   2.032   1.790  11.073  0.2887  0.8197  0.7504
 8741TIP3    H150418   1.963   1.750  11.020  0.2610  0.9577  0.6826
 8741TIP3    H250419   2.112   1.745  11.044  0.1113  0.0169  1.4759
 8742TIP3   OH250420   3.768   0.640  10.587 -0.1335  0.4669  0.6065
 8742TIP3    H150421   3.761   0.559  10.638  0.8049  0.7753  1.2570
 8742TIP3    H250422   3.814   0.701  10.646 -2.1054  1.9513  0.6933
 8743TIP3   OH250423   2.586   3.732  10.219  0.2792  0.0603 -0.2648
 8743TIP3    H150424   2.603   3.800  10.284 -2.0477 -0.1795  0.7102
 8743TIP3    H250425   2.495   3.745  10.194  0.1942 -1.8168 -1.1219
 8744TIP3   OH250426   3.353   6.590  12.125 -0.4406  0.1954 -0.1084
 8744TIP3    H150427   3.287   6.579  12.193 -0.1608  1.6946  0.4394
 8744TIP3    H250428   3.372   6.501  12.095 -0.8772 -0.4641  1.4772
 8745TIP3   OH250429   0.403   1.157  10.503  0.0493  0.3745  0.4459
 8745TIP3    H150430   0.412   1.251  10.486 -0.3902  0.5892  1.3227
 8745TIP3    H250431   0.393   1.151  10.598  0.8535 -0.6295  0.4816
 8746TIP3   OH250432   2.446   4.866  12.745  0.2455 -0.2348 -0.0777
 8746TIP3    H150433   2.472   4.841  12.657 -1.3998 -0.1880 -0.6073
 8746TIP3    H250434   2.418   4.783  12.786 -1.4358  0.0671 -0.5087
 8747TIP3   OH250435   2.559   0.139  10.704 -0.3508  0.4836  0.3262
 8747TIP3    H150436   2.645   0.161  10.740  0.6260  0.5270 -1.9122
 8747TIP3    H250437   2.498   0.159  10.775  1.3407  1.8593  1.4760
 8748TIP3   OH250438   3.943   6.092  10.313 -0.2957  0.0282 -0.1173
 8748TIP3    H150439   3.849   6.081  10.325 -0.3083  0.4737  0.1948
 8748TIP3    H250440   3.959   6.185  10.326  0.1538 -0.0017 -0.4151
 8749TIP3   OH250441   5.411   1.253  11.349 -0.4460  0.0754 -0.2853
 8749TIP3    H150442   5.472   1.292  11.288 -1.1883 -0.5277 -1.4431
 8749TIP3    H250443   5.447   1.166  11.366  0.0645  0.4484  0.6073
 8750TIP3   OH250444   4.217   4.853   9.921 -0.0262  0.4549  0.1177
 8750TIP3    H150445   4.228   4.911   9.846 -1.4846  0.0857 -0.4132
 8750TIP3    H250446   4.301   4.808   9.930  0.2294  0.6571 -1.1653
 8751TIP3   OH250447   6.286   0.976  12.763 -0.0072  0.2921  0.3970
 8751TIP3    H150448   6.200   0.957  12.725 -1.0256  4.0967  0.3963
 8751TIP3    H250449   6.349   0.937  12.703 -1.6965 -0.8594 -0.7015
 8752TIP3   OH250450   4.980   0.296   9.877  0.0684  0.3529  0.0198
 8752TIP3    H150451   4.890   0.299   9.909  0.6660  1.0101  1.7548
 8752TIP3    H250452   5.014   0.384   9.893  1.4342 -0.2695  0.7158
 8753TIP3   OH250453   4.228   0.692  11.920  0.8229 -0.4273 -0.4036
 8753TIP3    H150454   4.228   0.759  11.852 -1.4600  0.6838  0.6023
 8753TIP3    H250455   4.198   0.737  11.999 -1.8503 -2.8034  0.0816
 8754TIP3   OH250456   0.238   6.299  10.702  0.0148 -0.4431 -0.4126
 8754TIP3    H150457   0.299   6.333  10.637  2.3969  0.2934  2.0023
 8754TIP3    H250458   0.213   6.375  10.754  2.3784 -1.5420  2.6895
 8755TIP3   OH250459   1.881   0.871  12.721 -0.2701  0.7630 -0.0127
 8755TIP3    H150460   1.879   0.780  12.751  0.2110  0.5239 -0.6821
 8755TIP3    H250461   1.961   0.907  12.760  0.5579  0.3441 -1.2747
 8756TIP3   OH250462   4.233   5.215  11.734  0.6086 -0.1850 -0.0366
 8756TIP3    H150463   4.193   5.256  11.658 -1.7679 -2.9217 -0.4425
 8756TIP3    H250464   4.196   5.260  11.810 -0.3904 -0.2427 -0.4808
 8757TIP3   OH250465   3.975   1.724  10.955 -0.0382  0.2616  0.1287
 8757TIP3    H150466   3.891   1.699  10.993 -0.4602  1.4672  0.0229
 8757TIP3    H250467   3.983   1.672  10.876 -0.7951  0.3044  0.0212
 8758TIP3   OH250468   0.792   0.936  10.378 -0.1238 -0.2812 -0.5558
 8758TIP3    H150469   0.820   1.025  10.358 -2.6523  0.2021 -2.3493
 8758TIP3    H250470   0.827   0.883  10.306 -0.7315 -0.2989 -0.8411
 8759TIP3   OH250471   1.387   3.137  11.885 -0.1689  0.4675  0.5235
 8759TIP3    H150472   1.340   3.130  11.968  1.0615 -0.5976  1.1538
 8759TIP3    H250473   1.395   3.047  11.854 -0.6309  0.8487 -0.7836
 8760TIP3   OH250474   5.910   4.102  10.477 -0.3808 -0.1731 -0.0975
 8760TIP3    H150475   6.005   4.097  10.467 -0.0709  1.5115  1.4216
 8760TIP3    H250476   5.878   4.019  10.443  1.5389 -0.3785 -1.5784
 8761TIP3   OH250477   1.458   1.256  11.422 -0.1444 -0.0350  0.0290
 8761TIP3    H150478   1.434   1.164  11.414  0.1130 -0.4663  3.0422
 8761TIP3    H250479   1.540   1.256  11.470  1.4020  1.7483 -2.3601
 8762TIP3   OH250480   6.766   2.704  10.682 -0.3925  0.5843  0.2046
 8762TIP3    H150481   6.784   2.674  10.771 -1.2137  0.7202  0.4157
 8762TIP3    H250482   6.672   2.718  10.679 -0.1671  2.1969 -0.1854
 8763TIP3   OH250483   6.286   4.616  12.021 -0.7041  0.3481 -0.3451
 8763TIP3    H150484   6.324   4.621  11.933  0.8501 -0.3832  0.2557
 8763TIP3    H250485   6.328   4.687  12.070 -0.3081 -0.2826  0.2461
 8764TIP3   OH250486   4.740   2.723  17.562 -0.3091  0.3959 -0.6788
 8764TIP3    H150487   4.672   2.722  17.494 -0.2906 -1.3479 -0.7230
 8764TIP3    H250488   4.719   2.800  17.614 -2.9191 -0.5358 -0.1562
 8765TIP3   OH250489   6.399   6.682  12.718  0.3713 -0.3837  0.2262
 8765TIP3    H150490   6.333   6.682  12.787 -0.6615  2.2341 -0.6199
 8765TIP3    H250491   6.428   6.773  12.714  5.1214 -1.5983  1.4399
 8766TIP3   OH250492   6.193   3.989  11.520 -0.1803  0.5296  0.1597
 8766TIP3    H150493   6.100   3.973  11.531 -0.3208  1.7772  0.9638
 8766TIP3    H250494   6.201   4.018  11.429 -0.8039  1.8122  0.4930
 8767TIP3   OH250495   1.154   0.827  12.042  0.7299 -0.3742  0.2378
 8767TIP3    H150496   1.228   0.886  12.045 -1.3087  2.4467 -0.9374
 8767TIP3    H250497   1.102   0.848  12.120 -1.3426  1.4368 -1.4981
 8768TIP3   OH250498   4.855   6.675  12.643 -0.0313  0.5766 -0.4789
 8768TIP3    H150499   4.881   6.766  12.656 -0.0177  0.5281 -0.1535
 8768TIP3    H250500   4.938   6.629  12.627  0.2176  0.2752  1.4005
 8769TIP3   OH250501   0.567   7.322  10.288  0.2329  0.0298  0.0750
 8769TIP3    H150502   0.599   7.234  10.308  0.6934  0.8154  3.3709
 8769TIP3    H250503   0.472   7.316  10.298  0.3406  0.0674  1.2665
 8770TIP3   OH250504   0.033   2.333  10.335  0.3176  0.1900  0.3288
 8770TIP3    H150505   0.016   2.327  10.429 -0.5693  0.3315  0.1835
 8770TIP3    H250506  -0.002   2.418  10.310 -0.8100 -0.4718 -0.4001
 8771TIP3   OH250507   4.375   3.937  10.403  0.5781 -0.2165  0.0438
 8771TIP3    H150508   4.281   3.949  10.390  0.0238 -1.5910  2.2359
 8771TIP3    H250509   4.399   3.867  10.341 -0.4011 -1.5819  1.1493
 8772TIP3   OH250510   7.160   5.344  10.543  0.0007 -0.4918  0.0362
 8772TIP3    H150511   7.226   5.413  10.538 -0.7660  0.2124 -0.8081
 8772TIP3    H250512   7.118   5.358  10.628  0.3763 -0.4185  0.2127
 8773TIP3   OH250513   7.064   0.907  10.926  0.0151  0.4069  0.1589
 8773TIP3    H150514   7.039   0.871  11.011 -0.8407  0.5990 -0.0000
 8773TIP3    H250515   7.153   0.940  10.938 -0.9222  2.5647  1.6380
 8774TIP3   OH250516   7.290   4.648  10.173  0.0714  0.0109  0.4583
 8774TIP3    H150517   7.246   4.581  10.226 -0.8938  0.2515 -0.0142
 8774TIP3    H250518   7.369   4.669  10.222 -0.6978  0.1014  1.7167
 8775TIP3   OH250519   4.005   3.351  10.602  0.0612  0.4703 -0.2476
 8775TIP3    H150520   3.984   3.413  10.532 -0.8186  0.9258  0.3921
 8775TIP3    H250521   4.004   3.265  10.560  0.2996  0.8090 -0.9475
 8776TIP3   OH250522   2.624   4.040  16.621  0.1078 -0.0872 -0.0096
 8776TIP3    H150523   2.647   3.947  16.622 -0.3288 -0.2044 -0.5615
 8776TIP3    H250524   2.641   4.069  16.532  0.4222  0.4159  0.2067
 8777TIP3   OH250525   6.755   0.254  11.387  0.1282  0.5702 -0.2575
 8777TIP3    H150526   6.809   0.201  11.329  0.7736 -0.8460  1.5503
 8777TIP3    H250527   6.683   0.197  11.411 -0.7361  1.5269 -0.5006
 8778TIP3   OH250528   3.339   1.801  10.601  0.1581 -0.3511 -0.7431
 8778TIP3    H150529   3.405   1.751  10.554 -0.8475 -2.2770 -0.2029
 8778TIP3    H250530   3.255   1.765  10.573 -0.7354  2.0850 -1.4672
 8779TIP3   OH250531   2.250   1.731  10.860  0.2373 -0.1100 -0.2434
 8779TIP3    H150532   2.223   1.640  10.847  0.3342 -0.0992 -0.5414
 8779TIP3    H250533   2.295   1.754  10.778 -0.6782  0.5255 -0.5865
 8780TIP3   OH250534   6.075   3.856  11.207  0.3563  0.4473  0.2143
 8780TIP3    H150535   6.024   3.877  11.129 -0.2465 -2.8993 -0.4077
 8780TIP3    H250536   6.010   3.831  11.272  1.0089  0.2333  0.7999
 8781TIP3   OH250537   2.876   7.593  11.288 -0.5555  0.0101  0.3369
 8781TIP3    H150538   2.968   7.612  11.305  0.1350 -1.5122 -1.4012
 8781TIP3    H250539   2.828   7.648  11.350  1.5469 -0.4189  2.4778
 8782TIP3   OH250540   0.418   2.230  11.933  0.2672  0.3244  0.3820
 8782TIP3    H150541   0.406   2.137  11.949  1.9822  0.1835  1.0408
 8782TIP3    H250542   0.438   2.237  11.840 -1.2177  0.2235  0.0210
 8783TIP3   OH250543   6.812   0.409  11.926 -0.2954  0.0946  0.0281
 8783TIP3    H150544   6.814   0.343  11.994  1.7214  0.3276  0.2565
 8783TIP3    H250545   6.848   0.366  11.848  1.9786  1.0958  0.4325
 8784TIP3   OH250546   0.758   1.436  11.979 -0.1910 -0.6734 -0.6210
 8784TIP3    H150547   0.842   1.458  12.019 -0.4988 -0.2119 -0.1944
 8784TIP3    H250548   0.725   1.520  11.946 -1.1072 -0.5758  0.4643
 8785TIP3   OH250549   1.514   6.917  11.390 -0.7146 -0.0915 -0.2978
 8785TIP3    H150550   1.514   7.012  11.391 -2.4534  0.0945 -3.7556
 8785TIP3    H250551   1.595   6.893  11.344 -0.2023 -0.3232  0.7027
 8786TIP3   OH250552   1.951   5.284  11.876 -0.4922  0.1999 -0.2824
 8786TIP3    H150553   1.997   5.359  11.837  1.1850 -0.6773 -0.0792
 8786TIP3    H250554   1.932   5.226  11.802 -1.0621  0.4361 -0.3284
 8787TIP3   OH250555   5.879   0.126  10.448  0.1053 -0.2977  0.2470
 8787TIP3    H150556   5.955   0.068  10.459  0.8765  0.3295 -1.3364
 8787TIP3    H250557   5.852   0.112  10.357 -1.0991  0.1918  0.5159
 8788TIP3   OH250558   0.497   3.299  12.804 -0.1121 -0.0852  0.0044
 8788TIP3    H150559   0.443   3.223  12.785 -0.2095 -0.2014  0.7371
 8788TIP3    H250560   0.435   3.369  12.825  0.0152 -0.2338  0.8995
 8789TIP3   OH250561   0.736   7.219   9.874  0.0207  0.0374 -0.0154
 8789TIP3    H150562   0.742   7.136   9.827 -0.5173  0.5156 -0.9689
 8789TIP3    H250563   0.643   7.240   9.875  0.1547  0.6438  0.1777
 8790TIP3   OH250564   4.097   3.986  10.434 -0.1115 -0.4765  0.0806
 8790TIP3    H150565   4.147   4.029  10.504  1.4248  1.3169 -1.9521
 8790TIP3    H250566   4.011   4.026  10.438  0.0121 -0.2593  0.8244
 8791TIP3   OH250567   2.367   6.163  11.157  0.7533 -0.1823  0.1786
 8791TIP3    H150568   2.353   6.222  11.231 -1.3593 -0.9010  0.4447
 8791TIP3    H250569   2.370   6.220  11.080 -0.3294  0.3685  0.5242
 8792TIP3   OH250570   5.556   6.144  11.227  0.2144 -0.0809  0.2480
 8792TIP3    H150571   5.541   6.051  11.240  1.3092 -0.2285  0.5980
 8792TIP3    H250572   5.651   6.153  11.226  0.1287  0.9032 -0.7856
 8793TIP3   OH250573   1.447   1.957  10.379 -0.6266  0.0689 -0.6059
 8793TIP3    H150574   1.495   1.877  10.358  1.5822  0.8293  1.0783
 8793TIP3    H250575   1.373   1.928  10.433  0.3971 -0.8519  0.3530
 8794TIP3   OH250576   5.982   6.175  12.005  0.3805 -0.1752 -0.1131
 8794TIP3    H150577   5.913   6.208  12.062  0.1209 -0.8456 -0.0211
 8794TIP3    H250578   6.042   6.128  12.063  0.2628 -0.6226 -0.3440
 8795TIP3   OH250579   1.582   7.045  10.017  0.0089  0.0185 -0.1758
 8795TIP3    H150580   1.584   6.961   9.971 -1.4574  0.6236 -1.4643
 8795TIP3    H250581   1.660   7.091   9.985  0.5479 -0.6492  0.1566
 8796TIP3   OH250582   1.003   5.356  10.140 -0.0163 -0.8514 -0.3632
 8796TIP3    H150583   0.982   5.303  10.063 -0.0013 -1.5478  0.1011
 8796TIP3    H250584   0.928   5.414  10.150  0.1904 -0.4380 -1.1730
 8797TIP3   OH250585   3.104   5.024  11.442 -0.3313  0.1074 -0.3084
 8797TIP3    H150586   3.091   5.100  11.385 -1.5295  0.0321 -0.1586
 8797TIP3    H250587   3.102   4.949  11.382  1.6625  0.2135 -0.5634
 8798TIP3   OH250588   7.347   3.264  11.606 -0.1402 -0.0929  0.1523
 8798TIP3    H150589   7.316   3.269  11.515  0.3869 -1.0858 -0.0976
 8798TIP3    H250590   7.442   3.272  11.600 -0.1287  0.1777  0.6513
 8799TIP3   OH250591   2.426   3.707  12.003 -0.5104  0.1589  0.1525
 8799TIP3    H150592   2.332   3.713  11.988 -0.3477  1.8414 -0.4150
 8799TIP3    H250593   2.462   3.673  11.921 -0.4871  0.9864 -0.1885
 8800TIP3   OH250594   2.485   4.250  10.369 -0.6803 -0.3818  0.6888
 8800TIP3    H150595   2.421   4.299  10.317 -0.9670  0.1982  1.5790
 8800TIP3    H250596   2.556   4.232  10.307 -0.6835  0.9275  0.2704
 8801TIP3   OH250597   5.023   0.166  11.574 -0.0790  0.2273  0.4031
 8801TIP3    H150598   5.106   0.177  11.621  0.1348  0.8447 -0.1104
 8801TIP3    H250599   4.955   0.180  11.641  0.2244  0.1301  0.7334
 8802TIP3   OH250600   3.166   4.529  11.303 -0.6524 -0.1981 -0.3896
 8802TIP3    H150601   3.242   4.481  11.270 -1.5397 -0.7157 -1.7659
 8802TIP3    H250602   3.140   4.480  11.382 -0.7981 -1.2850 -1.0836
 8803TIP3   OH250603   7.259   4.851  12.233  0.0778  0.2545 -0.1282
 8803TIP3    H150604   7.338   4.890  12.272 -0.1584  1.4512 -0.7756
 8803TIP3    H250605   7.189   4.912  12.256 -0.9931 -1.5784  1.7572
 8804TIP3   OH250606   3.913   3.815  11.047 -0.0851  0.0320  0.1096
 8804TIP3    H150607   3.972   3.832  10.973 -0.4056  0.3569 -0.0758
 8804TIP3    H250608   3.848   3.885  11.041 -1.3941 -1.2028 -0.6189
 8805TIP3   OH250609   1.458   7.457  12.866 -0.0819 -1.0086 -0.2616
 8805TIP3    H150610   1.382   7.398  12.875 -1.2107  0.4749  0.4093
 8805TIP3    H250611   1.470   7.466  12.772 -0.7991 -1.2145 -0.3833
 8806TIP3   OH250612   5.475   0.550  10.501 -0.0846  0.4705  0.0894
 8806TIP3    H150613   5.394   0.509  10.471  0.8708 -0.7338 -0.9873
 8806TIP3    H250614   5.460   0.644  10.492 -0.8397  0.2143 -1.5817
 8807TIP3   OH250615   1.070   7.334  10.335  0.3819 -0.6884 -0.1527
 8807TIP3    H150616   0.990   7.312  10.288  0.0038  0.5750 -0.1401
 8807TIP3    H250617   1.039   7.370  10.419  1.0064 -1.4474  0.4223
 8808TIP3   OH250618   2.135   6.718  13.068 -0.3970 -0.1859 -0.2807
 8808TIP3    H150619   2.104   6.775  12.998 -0.0751 -0.0350 -0.2991
 8808TIP3    H250620   2.179   6.777  13.129  0.0091 -0.4277 -0.3428
 8809TIP3   OH250621   2.012   7.015  11.164 -0.1397  0.6539 -0.0521
 8809TIP3    H150622   2.060   7.096  11.145  1.6718 -0.3436 -0.0016
 8809TIP3    H250623   2.002   6.973  11.079  1.2276 -0.2444  0.1978
 8810TIP3   OH250624   0.377   4.695  12.079 -0.4025 -0.0311 -0.8682
 8810TIP3    H150625   0.423   4.768  12.120 -2.0519  0.9017 -0.6122
 8810TIP3    H250626   0.311   4.735  12.023 -1.2952 -1.3021 -0.7874
 8811TIP3   OH250627   0.510   3.540  12.517 -0.2332  0.3041  0.4537
 8811TIP3    H150628   0.445   3.503  12.578  1.8342 -1.5901  1.6461
 8811TIP3    H250629   0.592   3.537  12.566  0.8508  2.3116 -1.1375
 8812TIP3   OH250630   3.817   4.573   9.476 -0.0368  0.2284 -0.2516
 8812TIP3    H150631   3.864   4.551   9.395  1.2939  1.3239  0.1815
 8812TIP3    H250632   3.725   4.559   9.455  0.3590 -0.5030 -1.6307
 8813TIP3   OH250633   1.561   2.635  11.031  0.2679 -0.2507 -0.1565
 8813TIP3    H150634   1.563   2.545  11.064 -0.2177 -1.5487 -3.3148
 8813TIP3    H250635   1.468   2.655  11.020  0.3441  0.9252  1.0709
 8814TIP3   OH250636   4.891   5.841   9.825  0.5998  0.0241 -0.2231
 8814TIP3    H150637   4.953   5.901   9.783  0.3900  1.0878  0.9152
 8814TIP3    H250638   4.826   5.899   9.864 -0.2427 -1.0174 -0.0557
 8815TIP3   OH250639   6.697   3.241  12.548 -0.5439 -0.4672 -0.4625
 8815TIP3    H150640   6.684   3.201  12.634  0.2475  0.2707  0.0134
 8815TIP3    H250641   6.727   3.330  12.566 -1.0425 -0.0675 -1.5077
 8816TIP3   OH250642   6.001   1.938  10.391 -0.0088 -0.4727  0.8671
 8816TIP3    H150643   5.909   1.963  10.398 -1.1418 -4.3217  2.3321
 8816TIP3    H250644   6.005   1.883  10.312  2.0129  2.5681 -1.4022
 8817TIP3   OH250645   0.783   6.267  11.228 -0.6225 -0.3439  0.3063
 8817TIP3    H150646   0.822   6.337  11.176 -1.9423  1.5805  1.8155
 8817TIP3    H250647   0.750   6.205  11.162  1.0419  0.1032 -1.0504
 8818TIP3   OH250648   1.086   1.250  11.893 -0.0154 -0.2746  0.5383
 8818TIP3    H150649   1.105   1.292  11.977  0.6034  2.0536 -0.6787
 8818TIP3    H250650   1.001   1.285  11.868  0.0368 -0.5622 -0.0388
 8819TIP3   OH250651   1.036   7.328  10.855 -0.0386  0.2689  0.0966
 8819TIP3    H150652   1.102   7.291  10.914  1.6748  0.3964 -1.6240
 8819TIP3    H250653   1.050   7.423  10.860 -0.7219  0.3545  0.4168
 8820TIP3   OH250654   4.039   4.398  10.807  0.1206  0.4659  0.2653
 8820TIP3    H150655   3.986   4.477  10.794  0.7375  0.8549  0.0962
 8820TIP3    H250656   4.119   4.429  10.849  0.0545 -0.1783  0.8944
 8821TIP3   OH250657   4.343   6.955  10.686 -0.2210 -0.1435 -0.3756
 8821TIP3    H150658   4.419   6.925  10.636  0.9039 -0.0575  1.2000
 8821TIP3    H250659   4.268   6.913  10.643  0.5069  0.9720 -2.8989
 8822TIP3   OH250660   2.230   0.304  10.953  0.0877 -0.0288 -0.1713
 8822TIP3    H150661   2.215   0.393  10.921  0.7716  0.8008  1.6939
 8822TIP3    H250662   2.325   0.299  10.964  0.0241 -0.8953 -0.0039
 8823TIP3   OH250663   1.462   0.721  11.754 -0.4586 -0.1007 -0.3705
 8823TIP3    H150664   1.517   0.688  11.825  0.5529 -0.4782 -1.3007
 8823TIP3    H250665   1.479   0.661  11.682 -2.0086 -0.1362 -0.7270
 8824TIP3   OH250666   1.225   0.564  11.093  0.2449 -0.1781  0.0929
 8824TIP3    H150667   1.211   0.479  11.136 -1.5403  0.8652  1.7415
 8824TIP3    H250668   1.318   0.563  11.070  0.6066 -2.0105  1.3570
 8825TIP3   OH250669   1.951   7.110  11.688 -0.4801  0.0787  0.2863
 8825TIP3    H150670   1.884   7.178  11.696  1.7984  2.4438  0.6808
 8825TIP3    H250671   1.988   7.123  11.601 -0.5402 -1.2539  0.0403
 8826TIP3   OH250672   6.923   2.796  11.744 -0.0673 -1.1110  0.5554
 8826TIP3    H150673   6.957   2.770  11.830 -0.8612 -1.3324  0.8077
 8826TIP3    H250674   7.001   2.824  11.695  0.4574 -1.4646  1.1728
 8827TIP3   OH250675   5.459   6.288  10.289 -0.0189  0.2134 -0.2605
 8827TIP3    H150676   5.427   6.377  10.305 -0.5516 -0.2009  1.1760
 8827TIP3    H250677   5.532   6.278  10.350  1.6829  0.4862 -2.1683
 8828TIP3   OH250678   7.064   1.818  11.331 -0.3294  0.0945  0.2617
 8828TIP3    H150679   7.102   1.897  11.292  0.1881 -1.1151 -1.8556
 8828TIP3    H250680   6.970   1.836  11.334  0.0114  2.3193  3.6654
 8829TIP3   OH250681   3.418   2.832  10.827 -0.4065 -0.1256 -0.4706
 8829TIP3    H150682   3.428   2.849  10.921 -0.0549 -0.9644 -0.3457
 8829TIP3    H250683   3.421   2.919  10.786  0.1415  0.1951  0.2318
 8830TIP3   OH250684   3.459   1.045  11.753 -0.2404  0.0382  0.3025
 8830TIP3    H150685   3.437   1.001  11.670 -1.1131  0.6171  0.2148
 8830TIP3    H250686   3.489   1.132  11.726 -0.4838  0.2114  0.5872
 8831TIP3   OH250687   3.737   2.455  10.973 -0.1638  0.0285  0.1087
 8831TIP3    H150688   3.658   2.487  11.017  1.1278  2.5177  0.7541
 8831TIP3    H250689   3.749   2.366  11.008 -1.2876  0.5330  1.9194
 8832TIP3   OH250690   2.380   3.080  10.729 -0.8350  0.2024  0.3750
 8832TIP3    H150691   2.395   3.174  10.722 -1.6656  0.3706  0.7254
 8832TIP3    H250692   2.285   3.070  10.725 -0.7833 -0.5834  0.8003
 8833TIP3   OH250693   3.330   4.560  12.381 -0.2420 -0.4909 -0.1703
 8833TIP3    H150694   3.245   4.550  12.338 -0.3034  0.1250 -0.1997
 8833TIP3    H250695   3.378   4.481  12.358 -0.6393 -0.6243 -0.5482
 8834TIP3   OH250696   0.977   6.295  10.455  0.6539 -0.3682 -0.3358
 8834TIP3    H150697   0.955   6.345  10.376  2.0763 -0.9868 -1.1630
 8834TIP3    H250698   1.073   6.288  10.453  0.5966 -1.7899  0.5729
 8835TIP3   OH250699   0.620   6.250  11.942 -0.1458 -0.2523  0.6985
 8835TIP3    H150700   0.597   6.218  12.029  0.6982  1.0866  1.4374
 8835TIP3    H250701   0.710   6.220  11.928  0.2530  0.7841  0.9328
 8836TIP3   OH250702   2.025   4.875  11.855 -0.0401 -0.2525  0.0437
 8836TIP3    H150703   2.030   4.916  11.769  0.3253  0.1044  0.2357
 8836TIP3    H250704   2.112   4.838  11.870 -0.1784 -0.5429  0.1507
 8837TIP3   OH250705   2.045   2.834  10.989  0.2843 -0.5098 -0.1042
 8837TIP3    H150706   2.048   2.878  11.074 -2.7032  1.0392 -0.6298
 8837TIP3    H250707   2.004   2.749  11.007 -1.9946  0.5083 -0.0974
 8838TIP3   OH250708   4.492   0.162  10.463 -0.0545  0.1923  0.1453
 8838TIP3    H150709   4.406   0.192  10.494 -0.1092  1.5767 -1.2295
 8838TIP3    H250710   4.551   0.180  10.536 -0.7809  0.0328  0.7875
 8839TIP3   OH250711   0.791   5.966  12.249  0.0010  0.3818 -0.1258
 8839TIP3    H150712   0.767   5.955  12.157  0.2467  0.5451 -0.2101
 8839TIP3    H250713   0.711   5.996  12.292 -0.4881 -1.0095 -0.0260
 8840TIP3   OH250714   4.386   4.430  10.587  0.8972 -0.0882 -0.0771
 8840TIP3    H150715   4.456   4.369  10.565  2.1612  1.1298  0.4344
 8840TIP3    H250716   4.306   4.386  10.557  1.8497 -1.5528 -0.5904
 8841TIP3   OH250717   0.111   0.463  10.810  0.0149 -0.8359  0.7348
 8841TIP3    H150718   0.053   0.410  10.864 -0.4745 -0.0608  0.9911
 8841TIP3    H250719   0.059   0.542  10.790  0.1573 -1.1063 -0.8793
 8842TIP3   OH250720   6.959   3.280  11.950 -0.3670 -0.3425 -0.3848
 8842TIP3    H150721   6.980   3.196  11.990  1.7504  1.0545  1.7333
 8842TIP3    H250722   6.931   3.335  12.023 -0.7670  1.0907 -1.5605
 8843TIP3   OH250723   2.329   3.906  10.398  0.0489 -0.6095 -0.2024
 8843TIP3    H150724   2.388   3.962  10.347 -1.1344 -0.1623 -1.1367
 8843TIP3    H250725   2.247   3.907  10.348  0.0195 -3.2959 -0.3383
 8844TIP3   OH250726   2.161   0.396   9.654 -0.0593 -0.4997 -0.3850
 8844TIP3    H150727   2.197   0.415   9.740  0.2383  0.2205 -0.6546
 8844TIP3    H250728   2.226   0.431   9.593 -0.7995  0.0428 -0.8892
 8845TIP3   OH250729   6.926   2.463  11.857  0.7622  0.0311  0.7929
 8845TIP3    H150730   6.859   2.396  11.870 -1.5678  1.8933 -0.8479
 8845TIP3    H250731   6.905   2.532  11.920  0.9336  0.7763  0.0568
 8846TIP3   OH250732   2.742   6.243  10.802  0.4567 -0.0472 -0.2818
 8846TIP3    H150733   2.697   6.197  10.872 -0.1749  1.5455  0.4089
 8846TIP3    H250734   2.682   6.237  10.727 -0.6093  1.3747  0.4054
 8847TIP3   OH250735   0.303   3.649  11.755 -0.8791 -0.4418  0.1517
 8847TIP3    H150736   0.256   3.571  11.784  0.2514 -0.7148  1.3901
 8847TIP3    H250737   0.366   3.665  11.825 -2.0341  2.4457  0.6614
 8848TIP3   OH250738   7.343   5.847  10.390  0.3236 -0.4380 -0.1218
 8848TIP3    H150739   7.304   5.852  10.477 -0.4818 -0.3463 -0.4823
 8848TIP3    H250740   7.437   5.855  10.406  0.1829 -0.3650  0.7313
 8849TIP3   OH250741   1.972   6.276  11.424 -0.1098 -0.5416 -0.4481
 8849TIP3    H150742   2.028   6.308  11.353 -0.5363  1.3817  0.0163
 8849TIP3    H250743   2.028   6.278  11.502 -0.3154 -0.3115 -0.3041
 8850TIP3   OH250744   2.465   2.681  10.451  0.5907 -0.1579  0.1185
 8850TIP3    H150745   2.431   2.768  10.474 -0.7946 -0.5108 -0.4766
 8850TIP3    H250746   2.523   2.658  10.523 -0.7715  0.3164  1.4033
 8851TIP3   OH250747   3.498   2.582  11.047  0.6817  0.1123  0.0843
 8851TIP3    H150748   3.426   2.560  10.988  2.3652  0.2531 -2.1588
 8851TIP3    H250749   3.457   2.632  11.117 -1.1770  1.9655 -2.1482
 8852TIP3   OH250750   2.619   2.204  12.520  0.5368  0.2114  0.0987
 8852TIP3    H150751   2.664   2.143  12.461 -1.2425 -2.6689  1.4763
 8852TIP3    H250752   2.664   2.194  12.603 -0.0657  0.4737  0.4600
 8853TIP3   OH250753   2.806   1.130  12.859  0.1885 -0.0927  0.0017
 8853TIP3    H150754   2.862   1.052  12.850 -1.6563 -1.4830  0.1092
 8853TIP3    H250755   2.783   1.153  12.769 -0.4717 -0.5923  0.0391
 8854TIP3   OH250756   0.001   2.076  10.236 -0.0650 -0.0009 -0.1217
 8854TIP3    H150757  -0.015   2.169  10.248  0.6296 -0.0890  1.9643
 8854TIP3    H250758   0.063   2.053  10.305  0.0167 -1.9562 -0.7702
 8855TIP3   OH250759   1.533   5.942  11.581 -0.0080  0.4421 -0.5496
 8855TIP3    H150760   1.533   5.929  11.676 -0.7452  0.3345 -0.5607
 8855TIP3    H250761   1.603   6.005  11.565  0.1802  0.3882  0.0537
 8856TIP3   OH250762   3.040   0.451   9.776 -0.2884 -0.4764  0.2212
 8856TIP3    H150763   2.986   0.421   9.703  0.2097  1.6800 -1.1373
 8856TIP3    H250764   3.052   0.374   9.831 -0.4480 -2.2546 -2.1232
 8857TIP3   OH250765   4.769   7.062  10.263  0.4088 -0.4336  0.2464
 8857TIP3    H150766   4.741   7.125  10.197 -0.2552 -1.2846 -0.3075
 8857TIP3    H250767   4.772   7.112  10.345  1.7667  0.7742 -0.4869
 8858TIP3   OH250768   2.732   2.473  10.429  0.2668 -0.3209 -0.2972
 8858TIP3    H150769   2.805   2.535  10.432 -0.6323  0.8759 -1.6807
 8858TIP3    H250770   2.721   2.453  10.336 -0.4565 -1.3517 -0.0087
 8859TIP3   OH250771   3.318   2.346  10.307  0.2015  0.3187 -0.1592
 8859TIP3    H150772   3.249   2.410  10.289  0.4285  1.0211  1.2521
 8859TIP3    H250773   3.368   2.385  10.379  0.2459 -1.5335  0.8826
 8860TIP3   OH250774   3.781   3.151  11.115 -0.3866 -0.0821  0.2116
 8860TIP3    H150775   3.815   3.131  11.028 -0.8772  0.4794 -0.1230
 8860TIP3    H250776   3.853   3.196  11.159  0.8168 -2.6570  1.0616
 8861TIP3   OH250777   3.835   2.290  11.412 -0.2742 -0.3997 -0.1490
 8861TIP3    H150778   3.915   2.283  11.360  0.5901  0.7514  0.9549
 8861TIP3    H250779   3.767   2.310  11.349  0.5671 -0.0275 -0.9600
 8862TIP3   OH250780   6.787   6.381  11.189  0.8542  0.6392 -0.0312
 8862TIP3    H150781   6.846   6.415  11.256  0.8537  1.1434 -0.2781
 8862TIP3    H250782   6.741   6.459  11.156 -1.5181  0.0456  1.6467
 8863TIP3   OH250783   1.407   0.953  12.005 -0.0347  0.1663 -0.0918
 8863TIP3    H150784   1.456   1.015  12.058  0.3866  0.7269 -1.0954
 8863TIP3    H250785   1.406   0.993  11.917 -0.8798 -0.6221 -0.4570
 8864TIP3   OH250786   1.085   5.613  11.330 -0.5835  0.2539 -0.8207
 8864TIP3    H150787   1.123   5.572  11.252 -0.5045 -0.5202 -0.3857
 8864TIP3    H250788   1.105   5.706  11.320 -0.5060  0.1511 -1.6863
 8865TIP3   OH250789   1.291   5.889  10.576  0.5860  0.5050  0.4109
 8865TIP3    H150790   1.345   5.944  10.520 -0.5801  0.3999 -0.8775
 8865TIP3    H250791   1.217   5.945  10.601  0.7600  0.3458  1.3237
 8866TIP3   OH250792   0.844   4.482  11.847 -0.9336  0.3218 -0.2298
 8866TIP3    H150793   0.871   4.409  11.904  1.0012  0.1585 -1.2392
 8866TIP3    H250794   0.803   4.439  11.772 -1.1429  0.3634 -0.1379
 8867TIP3   OH250795   2.780   2.154   9.962 -0.1092 -0.6381 -0.6215
 8867TIP3    H150796   2.817   2.066   9.975  0.7656 -0.4962 -1.9697
 8867TIP3    H250797   2.857   2.209   9.947 -0.7958 -0.2923 -3.3634
 8868TIP3   OH250798   5.473   1.383  10.154  0.0721  0.7102 -0.0192
 8868TIP3    H150799   5.564   1.398  10.179 -0.5564  0.6925  2.4802
 8868TIP3    H250800   5.444   1.468  10.119  1.0788  0.6408 -1.1070
 8869TIP3   OH250801   4.152   5.720  11.223 -0.5440 -0.3794 -0.4080
 8869TIP3    H150802   4.212   5.795  11.219 -1.0244 -0.0297 -1.2182
 8869TIP3    H250803   4.175   5.667  11.146  0.0402 -1.2629  0.3586
 8870TIP3   OH250804   7.277   0.197  10.100  0.2069  0.4895 -0.0986
 8870TIP3    H150805   7.183   0.201  10.079  0.5946 -0.5208 -2.2640
 8870TIP3    H250806   7.306   0.112  10.066  1.2961 -0.8053  3.5283
 8871TIP3   OH250807   1.392   1.457   9.942 -0.2033  0.0393  0.4787
 8871TIP3    H150808   1.335   1.528   9.912  0.7177  0.7398  0.3593
 8871TIP3    H250809   1.471   1.500   9.973  0.6326 -0.9664 -0.1649
 8872TIP3   OH250810   5.037   6.031  11.114 -0.2153  0.2807  0.2996
 8872TIP3    H150811   5.052   6.003  11.023  0.2324  0.7872  0.2085
 8872TIP3    H250812   4.943   6.020  11.127  0.0323 -2.0205  0.5377
 8873TIP3   OH250813   3.040   1.403  11.080 -0.4314  0.6006  0.0249
 8873TIP3    H150814   3.099   1.394  11.005  0.1572  0.8150  0.4641
 8873TIP3    H250815   3.084   1.358  11.151 -0.7051  0.9282  0.4065
 8874TIP3   OH250816   4.303   7.602  11.214 -0.7587 -0.5455  0.1829
 8874TIP3    H150817   4.225   7.653  11.197  0.1197  0.7020 -0.2332
 8874TIP3    H250818   4.316   7.608  11.309 -0.3718  0.4789  0.0795
 8875TIP3   OH250819   0.418   0.212  11.134 -0.0217  0.1047 -0.8536
 8875TIP3    H150820   0.471   0.137  11.161  2.7861  2.5987  1.1660
 8875TIP3    H250821   0.438   0.225  11.042  0.0379 -1.1153 -1.0286
 8876TIP3   OH250822   2.967   3.730  10.319 -0.0709 -0.2431  0.3968
 8876TIP3    H150823   2.912   3.652  10.332  2.1159 -1.8885  0.4418
 8876TIP3    H250824   3.040   3.698  10.266  0.0777  2.2282 -1.0244
 8877TIP3   OH250825   5.120   7.166   9.849  0.3967 -0.0384 -0.2571
 8877TIP3    H150826   5.042   7.120   9.878  0.3607 -0.1893 -0.5843
 8877TIP3    H250827   5.088   7.253   9.824  0.0414 -0.6083 -1.9187
 8878TIP3   OH250828   4.819   1.119  12.326 -0.0377  0.1641  0.0034
 8878TIP3    H150829   4.798   1.078  12.411  0.9657 -0.7654 -0.1724
 8878TIP3    H250830   4.895   1.174  12.345 -0.3898  0.6948 -0.1077
 8879TIP3   OH250831   0.156   4.977   9.658 -0.1070  0.7491  0.2372
 8879TIP3    H150832   0.143   4.982   9.753  1.9466  0.8885  0.5740
 8879TIP3    H250833   0.151   4.883   9.639 -1.7519  0.8136  0.2479
 8880TIP3   OH250834   1.861   7.505  10.591  0.6772 -0.1320  0.6207
 8880TIP3    H150835   1.849   7.590  10.633 -0.7626  0.2417 -0.4688
 8880TIP3    H250836   1.790   7.500  10.527  1.3947 -1.6922 -0.0964
 8881TIP3   OH250837   3.580   6.242  10.102  0.1612 -0.6992 -0.4934
 8881TIP3    H150838   3.515   6.304  10.136  2.3351  0.5649  1.6624
 8881TIP3    H250839   3.546   6.218  10.015 -2.5141  0.8213  0.0048
 8882TIP3   OH250840   0.603   2.821  10.563 -0.1667  0.4368  0.0614
 8882TIP3    H150841   0.596   2.753  10.630  0.5415  0.2908 -0.0007
 8882TIP3    H250842   0.695   2.849  10.566  0.3856 -0.8776 -2.0986
 8883TIP3   OH250843   0.688   4.679  11.189  0.1129  0.2398 -0.1550
 8883TIP3    H150844   0.609   4.719  11.156 -0.0232  0.5456  0.5158
 8883TIP3    H250845   0.659   4.629  11.266  1.0047  3.2178  2.3523
 8884TIP3   OH250846   4.447   6.156  11.766 -0.1934 -0.5561 -0.2691
 8884TIP3    H150847   4.489   6.209  11.699 -1.6642  0.0600 -0.7415
 8884TIP3    H250848   4.464   6.202  11.849  0.0293 -0.3038 -0.4560
 8885TIP3   OH250849   4.144   2.995  11.892  0.1187  0.3844  0.9259
 8885TIP3    H150850   4.199   3.056  11.942 -0.7813  0.8221  1.4180
 8885TIP3    H250851   4.061   3.041  11.883  0.1603  0.1794 -0.7297
 8886TIP3   OH250852   7.512   1.610  10.946 -0.3049  0.1369 -0.0658
 8886TIP3    H150853   7.539   1.593  10.856  0.6681 -0.0648  0.2560
 8886TIP3    H250854   7.427   1.566  10.954 -0.1805 -0.2394 -0.7449
 8887TIP3   OH250855   4.159   2.077  11.102 -0.5092  0.4595 -0.0810
 8887TIP3    H150856   4.134   2.093  11.011 -1.7549  1.9564  0.4845
 8887TIP3    H250857   4.253   2.093  11.103 -0.8371  2.6998 -0.6813
 8888TIP3   OH250858   1.363   2.389   9.821 -0.2512  0.3131  0.6045
 8888TIP3    H150859   1.288   2.443   9.845 -0.4178  0.7286 -0.7178
 8888TIP3    H250860   1.396   2.429   9.740  0.9483 -0.2954  0.7619
 8889TIP3   OH250861   3.886   3.549  10.837  0.2815 -0.2988  0.3231
 8889TIP3    H150862   3.953   3.617  10.836 -0.1488  0.1686 -1.5820
 8889TIP3    H250863   3.897   3.503  10.754  0.5859 -2.6426  1.5923
 8890TIP3   OH250864   6.755   0.105  11.031  0.4584  0.0512 -0.1173
 8890TIP3    H150865   6.759   0.048  11.107 -1.9963 -1.1340 -0.7618
 8890TIP3    H250866   6.715   0.186  11.063  1.0974  0.2510  0.1875
 8891TIP3   OH250867   3.362   3.513  10.081  0.7452 -0.1779 -0.2308
 8891TIP3    H150868   3.445   3.553  10.105  0.2454 -0.9303  3.2519
 8891TIP3    H250869   3.297   3.582  10.095  0.4369 -0.6425  0.7391
 8892TIP3   OH250870   2.205   1.407  11.523  0.1734 -0.3662  0.2651
 8892TIP3    H150871   2.115   1.375  11.526 -0.0619  0.2380 -0.0321
 8892TIP3    H250872   2.197   1.501  11.540  0.9737 -0.6458  2.4336
 8893TIP3   OH250873   2.399   1.268  11.086  0.1607 -0.0256 -0.2097
 8893TIP3    H150874   2.451   1.347  11.070 -0.4031  0.1276 -1.3620
 8893TIP3    H250875   2.461   1.196  11.077  0.6036  0.2482  0.4926
 8894TIP3   OH250876   7.329   1.360  10.927  0.1213  0.2995 -0.3485
 8894TIP3    H150877   7.300   1.278  10.887  0.7160  0.2486 -0.6710
 8894TIP3    H250878   7.271   1.371  11.002 -0.8544  0.2709 -1.0677
 8895TIP3   OH250879   3.856   3.432  11.910  0.5736  0.2391 -0.1101
 8895TIP3    H150880   3.822   3.474  11.831 -1.7113 -0.1423  0.6192
 8895TIP3    H250881   3.782   3.384  11.946  2.2302 -1.7210  0.9088
 8896TIP3   OH250882   4.877   3.904   9.874  0.0077  0.1928 -0.2153
 8896TIP3    H150883   4.922   3.945   9.948 -0.4525  0.3527 -0.0177
 8896TIP3    H250884   4.942   3.846   9.835  0.2048 -0.0227  0.4176
 8897TIP3   OH250885   5.538   5.188  10.907 -0.2621 -0.5453  0.2972
 8897TIP3    H150886   5.567   5.199  10.817  1.1827  1.0438  0.8997
 8897TIP3    H250887   5.521   5.095  10.916  0.3411 -0.8413 -1.3934
 8898TIP3   OH250888   1.835   5.670  11.691  0.4315  0.7694 -0.4062
 8898TIP3    H150889   1.866   5.758  11.670 -0.2522  1.2964  0.7061
 8898TIP3    H250890   1.778   5.682  11.767 -0.2864 -0.5354 -0.7008
 8899TIP3   OH250891   4.814   2.411  11.966  0.0104  0.2186 -0.1987
 8899TIP3    H150892   4.835   2.332  11.917  1.4366  1.0617 -1.0065
 8899TIP3    H250893   4.823   2.386  12.058 -0.1636 -0.7032 -0.4277
 8900TIP3   OH250894   2.638   4.238   9.573 -0.0852  0.2105 -0.4406
 8900TIP3    H150895   2.621   4.324   9.612 -0.4775 -0.6531  1.3951
 8900TIP3    H250896   2.594   4.176   9.631  0.9458 -1.3099 -1.2154
 8901TIP3   OH250897   1.118   1.298  10.599 -0.0521 -0.3349 -0.1488
 8901TIP3    H150898   1.089   1.208  10.613  0.6547 -0.7811 -1.3596
 8901TIP3    H250899   1.180   1.292  10.525  0.0185  1.1361 -0.2417
 8902TIP3   OH250900   0.981   3.461  10.322  0.2780  0.8713  0.2823
 8902TIP3    H150901   0.933   3.538  10.294  2.3134  1.6419 -1.4109
 8902TIP3    H250902   1.021   3.485  10.406 -1.3212  0.6107  1.1457
 8903TIP3   OH250903   0.718   6.342  11.502 -0.2600 -0.1206  0.0528
 8903TIP3    H150904   0.743   6.424  11.461 -1.0737  1.1591  1.9619
 8903TIP3    H250905   0.717   6.278  11.430  0.3676  1.5175 -1.4801
 8904TIP3   OH250906   4.525   6.854  10.035 -0.4426 -0.2196 -0.2714
 8904TIP3    H150907   4.518   6.950  10.029 -3.7955 -0.1732  1.8857
 8904TIP3    H250908   4.438   6.822  10.012  0.4964 -2.7784 -0.5551
 8905TIP3   OH250909   6.952   1.638  11.055 -0.3408  0.5594 -0.0145
 8905TIP3    H150910   6.960   1.582  10.978  0.6827  0.1133  0.3928
 8905TIP3    H250911   6.858   1.641  11.073 -0.4838 -0.3507 -0.5479
 8906TIP3   OH250912   0.477   3.106   9.934 -0.3641 -0.2364  0.0042
 8906TIP3    H150913   0.547   3.172   9.931 -1.4657  0.9383 -1.3120
 8906TIP3    H250914   0.427   3.121   9.854  0.1642 -3.6560 -1.1034
 8907TIP3   OH250915   5.185   5.172  12.216  0.1060  0.1110 -0.5325
 8907TIP3    H150916   5.185   5.224  12.136 -1.2131 -0.6546 -1.0672
 8907TIP3    H250917   5.236   5.094  12.194 -1.2468 -0.6659 -1.0620
 8908TIP3   OH250918   0.386   0.201  10.277 -0.1577  0.0573  0.6299
 8908TIP3    H150919   0.317   0.168  10.334 -0.9906 -0.4588 -0.6115
 8908TIP3    H250920   0.367   0.160  10.192  1.2358  0.5103  0.0782
 8909TIP3   OH250921   6.590   3.842  12.016  0.1024  0.2104 -0.2922
 8909TIP3    H150922   6.585   3.755  12.056  1.2886 -0.8661 -2.3209
 8909TIP3    H250923   6.578   3.826  11.922 -1.7592  2.5255 -0.5417
 8910TIP3   OH250924   7.243   1.644  10.263  0.2110 -0.6200 -0.1106
 8910TIP3    H150925   7.246   1.683  10.176 -0.8439 -0.8169 -0.2514
 8910TIP3    H250926   7.239   1.719  10.323 -4.7719 -0.2191 -0.4681
 8911TIP3   OH250927   3.708   4.054  11.847  0.2341 -0.0760 -0.3445
 8911TIP3    H150928   3.677   4.014  11.928  1.1491 -0.3318 -0.1186
 8911TIP3    H250929   3.630   4.099  11.812 -0.3607 -0.6025  0.2719
 8912TIP3   OH250930   0.092   2.064  10.511 -0.2095 -0.7681 -0.0744
 8912TIP3    H150931   0.024   2.022  10.563 -0.6610 -0.8737 -0.7485
 8912TIP3    H250932   0.166   2.073  10.572 -0.7860 -0.7371  0.6326
 8913TIP3   OH250933   5.260   7.524   9.997 -0.1913  0.1643 -0.1487
 8913TIP3    H150934   5.187   7.583   9.980 -1.4611 -0.8669  1.4691
 8913TIP3    H250935   5.338   7.579   9.987 -1.1200  1.2124 -2.2322
 8914TIP3   OH250936   5.642   2.229  10.540  0.0070 -0.1643  0.4606
 8914TIP3    H150937   5.632   2.301  10.601  0.6035 -0.1407  0.5385
 8914TIP3    H250938   5.685   2.160  10.591 -0.7404 -0.6541  0.4436
 8915TIP3   OH250939   5.481   4.831  11.676 -0.2445 -0.4257  0.1896
 8915TIP3    H150940   5.557   4.873  11.716  0.3856 -1.6023  0.2673
 8915TIP3    H250941   5.507   4.815  11.585 -0.2887 -1.0489  0.2778
 8916TIP3   OH250942   4.409   2.753  10.732 -0.1094 -0.0721  0.2393
 8916TIP3    H150943   4.407   2.720  10.642 -0.7830 -1.2629  0.6677
 8916TIP3    H250944   4.342   2.702  10.778  1.2957 -0.6228  1.7903
 8917TIP3   OH250945   6.248   7.004  10.541  0.3892 -0.3699  0.6664
 8917TIP3    H150946   6.183   6.946  10.501 -0.1057  1.4151 -1.3097
 8917TIP3    H250947   6.304   7.030  10.468 -0.1267  2.5276  1.2114
 8918TIP3   OH250948   1.100   6.710  10.346 -0.3223 -0.1035  0.0832
 8918TIP3    H150949   1.124   6.781  10.405 -0.6638  0.6317 -0.6337
 8918TIP3    H250950   1.005   6.715  10.339 -0.5352 -1.7109  1.3218
 8919TIP3   OH250951   3.405   0.726  10.936 -0.0394 -0.5939 -0.1312
 8919TIP3    H150952   3.315   0.736  10.907 -0.3765 -1.4316  0.5783
 8919TIP3    H250953   3.458   0.749  10.860 -0.8681 -1.2954 -0.9377
 8920TIP3   OH250954   2.865   3.826  12.242 -0.7985 -0.2494  0.0770
 8920TIP3    H150955   2.856   3.823  12.337  2.1689  0.0437  0.4428
 8920TIP3    H250956   2.896   3.914  12.223  2.0770 -1.3024 -0.6977
 8921TIP3   OH250957   6.939   0.208  10.803  0.3685  0.3307  0.2471
 8921TIP3    H150958   6.922   0.138  10.740  2.1703 -1.1528  1.2733
 8921TIP3    H250959   6.861   0.263  10.800 -0.8818 -1.3896 -1.0542
 8922TIP3   OH250960   3.219   0.946  10.452  0.3728  0.5484 -0.0117
 8922TIP3    H150961   3.226   0.851  10.464  1.0980  0.8026  2.0395
 8922TIP3    H250962   3.126   0.961  10.435 -0.0617 -0.4084  1.3249
 8923TIP3   OH250963   5.860   3.426  10.002 -0.6908 -0.0770  0.3208
 8923TIP3    H150964   5.921   3.471   9.944 -1.4275  2.1500  1.1920
 8923TIP3    H250965   5.786   3.485  10.012 -2.3952 -2.1030  0.4279
 8924TIP3   OH250966   1.543   1.743  11.657  0.0873 -0.1043  0.2698
 8924TIP3    H150967   1.620   1.796  11.634 -0.0800  0.3539  0.7440
 8924TIP3    H250968   1.574   1.653  11.657  0.6156  0.0776  0.4273
 8925TIP3   OH250969   0.298   5.846  10.277  0.4706  0.2378 -0.6198
 8925TIP3    H150970   0.361   5.884  10.216  1.6503 -1.6750 -0.6853
 8925TIP3    H250971   0.234   5.802  10.221  0.3262  0.3191 -0.5186
 8926TIP3   OH250972   0.262   5.832  11.039  0.1976 -0.0084  0.1326
 8926TIP3    H150973   0.350   5.801  11.022  0.0281 -0.1115 -0.5772
 8926TIP3    H250974   0.253   5.911  10.985 -0.6776 -0.8795 -1.0413
 8927TIP3   OH250975   1.593   6.427  10.837 -0.6224  0.2267 -0.5875
 8927TIP3    H150976   1.569   6.339  10.808  0.1477 -0.4126  0.6299
 8927TIP3    H250977   1.548   6.437  10.921  0.2218  0.5393 -0.1694
 8928TIP3   OH250978   3.135   3.524  10.409 -0.3779 -0.1892  0.4753
 8928TIP3    H150979   3.228   3.543  10.418 -0.5209  0.0622  1.4840
 8928TIP3    H250980   3.092   3.584  10.469 -1.2305 -0.0285 -0.2753
 8929TIP3   OH250981   1.159   4.995  11.112  0.5275  0.2741  0.0287
 8929TIP3    H150982   1.153   4.905  11.144 -1.4829  0.2394 -0.2673
 8929TIP3    H250983   1.215   5.040  11.175  0.4816 -0.8816  0.9179
 8930TIP3   OH250984   2.101   1.056  11.875  0.1775 -0.3223 -0.4260
 8930TIP3    H150985   2.118   1.137  11.922  0.9857 -0.4325 -0.5132
 8930TIP3    H250986   2.084   0.991  11.944 -0.4081 -0.0925 -0.3549
 8931TIP3   OH250987   0.798   6.537  10.715 -1.2058 -0.0363  0.5706
 8931TIP3    H150988   0.870   6.570  10.769 -1.9111 -0.4785  1.8249
 8931TIP3    H250989   0.819   6.445  10.701 -1.4713 -0.1403  0.8512
 8932TIP3   OH250990   7.486   4.450  10.337  0.0452  0.3836  0.5349
 8932TIP3    H150991   7.512   4.359  10.325  0.2788  0.6725 -1.5069
 8932TIP3    H250992   7.390   4.447  10.340  0.0745  0.0009  1.3871
 8933TIP3   OH250993   2.779   4.638  10.718  0.0071  0.2533 -0.4198
 8933TIP3    H150994   2.714   4.657  10.786  1.0335  0.0971  0.6384
 8933TIP3    H250995   2.731   4.646  10.635 -1.0144  1.4811  0.2695
 8934TIP3   OH250996   2.891   7.003  11.072  0.2617  0.8229 -0.3759
 8934TIP3    H150997   2.907   7.075  11.010 -0.7432  2.2423  0.9452
 8934TIP3    H250998   2.969   7.002  11.127 -0.3073  1.8509  0.4752
 8935TIP3   OH250999   0.358   6.458  10.199  0.3998 -0.0609 -0.3292
 8935TIP3    H151000   0.321   6.370  10.211  1.4123 -0.3541  0.8106
 8935TIP3    H251001   0.449   6.449  10.227  0.7281  1.1841 -0.9425
 8936TIP3   OH251002   6.853   1.046  10.159  0.6555  0.9542 -0.5441
 8936TIP3    H151003   6.768   1.017  10.126  0.8595 -2.3167  1.4376
 8936TIP3    H251004   6.831   1.111  10.226 -0.5036 -1.0561  1.1467
 8937TIP3   OH251005   0.881   5.648  10.713 -0.6405 -0.3126 -0.1751
 8937TIP3    H151006   0.873   5.558  10.742 -0.2143 -0.1055  0.6032
 8937TIP3    H251007   0.868   5.644  10.618  1.1546 -1.4529 -0.4206
 8938TIP3   OH251008   3.086   0.107  11.830 -0.5313  0.0015  0.1400
 8938TIP3    H151009   3.076   0.066  11.916 -0.8658  2.1323  1.1623
 8938TIP3    H251010   3.180   0.104  11.812 -0.3550  0.3275  0.9919
 8939TIP3   OH251011   5.132   6.059   9.719  0.6935  0.2635 -0.1299
 8939TIP3    H151012   5.202   6.036   9.659  1.5769  0.4851  0.7830
 8939TIP3    H251013   5.167   6.037   9.806 -1.6671 -2.9969  0.1701
 8940TIP3   OH251014   6.067   0.949  11.304 -0.4067 -0.0114  0.0264
 8940TIP3    H151015   6.094   0.924  11.216  1.0000  1.1574  0.1027
 8940TIP3    H251016   6.087   0.872  11.358 -0.2544 -0.3248 -0.4657
 8941TIP3   OH251017   3.012   3.029  10.032 -0.4212  0.1529 -0.8805
 8941TIP3    H151018   3.077   3.088   9.996 -1.9368  1.5382 -1.4395
 8941TIP3    H251019   2.929   3.057   9.994 -1.7345  0.0139  1.6502
 8942TIP3   OH251020   2.007   5.859  10.681  0.5666 -0.3972 -0.0222
 8942TIP3    H151021   1.999   5.793  10.750 -0.4413 -0.6202 -0.3298
 8942TIP3    H251022   2.092   5.842  10.640  1.1385 -0.3109  1.0991
 8943TIP3   OH251023   4.764   5.017  11.884  0.5656 -0.5432 -0.4548
 8943TIP3    H151024   4.847   5.023  11.931 -0.0291 -0.0856  0.5740
 8943TIP3    H251025   4.723   4.937  11.916  0.9493 -1.2022 -1.5589
 8944TIP3   OH251026   3.270   6.396  12.357  0.4861  0.2872 -0.2860
 8944TIP3    H151027   3.326   6.372  12.431  1.7900  0.6746 -1.1084
 8944TIP3    H251028   3.185   6.416  12.396  1.1846  0.6092  1.1285
 8945TIP3   OH251029   2.724   6.326  11.552  0.3994 -0.4640  0.6718
 8945TIP3    H151030   2.787   6.321  11.624  1.5561 -2.2796 -0.3802
 8945TIP3    H251031   2.656   6.386  11.583  2.3259  1.1177  2.0992
 8946TIP3   OH251032   3.216   3.274  11.937  0.0952  0.7448 -0.0852
 8946TIP3    H151033   3.243   3.258  12.027 -1.7677  1.4108  0.6647
 8946TIP3    H251034   3.183   3.365  11.938  0.2121  0.8270 -1.4760
 8947TIP3   OH251035   3.520   7.057  11.493 -0.0369  0.2490 -0.2801
 8947TIP3    H151036   3.609   7.062  11.457 -0.8436  0.9153 -2.3261
 8947TIP3    H251037   3.533   7.050  11.588  2.2003 -0.5011 -0.5799
 8948TIP3   OH251038   2.097   1.492  10.209  0.2355  0.3237 -0.1843
 8948TIP3    H151039   2.159   1.419  10.211 -0.9935 -0.7525  0.7422
 8948TIP3    H251040   2.103   1.530  10.297  0.6393  1.1679 -0.5637
 8949TIP3   OH251041   2.423   6.371  10.248 -0.3674  0.5432  0.2415
 8949TIP3    H151042   2.468   6.450  10.220 -0.0181 -0.2519 -1.5901
 8949TIP3    H251043   2.343   6.369  10.195  0.1796 -0.8757 -0.5791
 8950TIP3   OH251044   0.418   6.216  12.501 -0.0823 -0.3757 -0.7523
 8950TIP3    H151045   0.430   6.169  12.584  1.4672  0.4381 -0.4589
 8950TIP3    H251046   0.507   6.227  12.467 -0.7726 -1.8456 -3.2347
 8951TIP3   OH251047   5.941   3.315  11.364 -0.1345  0.5603  0.3632
 8951TIP3    H151048   5.967   3.406  11.368  2.5869 -0.0338 -1.5213
 8951TIP3    H251049   5.856   3.316  11.319 -1.0821  2.2116  2.0609
 8952TIP3   OH251050   6.676   6.316  11.740 -0.2936 -0.8011 -0.4054
 8952TIP3    H151051   6.616   6.376  11.697  0.8872  0.6193 -0.1675
 8952TIP3    H251052   6.629   6.233  11.745 -1.5401 -0.2063 -1.7827
 8953TIP3   OH251053   2.479   7.192  12.351 -0.6587 -0.2341  0.1252
 8953TIP3    H151054   2.450   7.150  12.432 -0.8572  0.0802  0.2200
 8953TIP3    H251055   2.562   7.234  12.374 -1.7086  1.6219  0.7549
 8954TIP3   OH251056   1.246   4.489  11.879  0.0517  0.2421 -0.4348
 8954TIP3    H151057   1.212   4.440  11.955 -1.8621 -0.1636 -1.4850
 8954TIP3    H251058   1.294   4.423  11.829 -0.2696  0.0538 -0.5023
 8955TIP3   OH251059   5.261   5.707  10.802  0.2233 -0.3547 -0.2186
 8955TIP3    H151060   5.332   5.769  10.818  0.3099 -0.5659  0.2151
 8955TIP3    H251061   5.299   5.642  10.744 -0.3646  0.9288 -2.1576
 8956TIP3   OH251062   5.460   4.329  11.471 -0.1410 -0.0243  0.3498
 8956TIP3    H151063   5.525   4.317  11.541  1.3556  2.1857 -0.5262
 8956TIP3    H251064   5.420   4.414  11.491 -0.2459  0.2623 -1.0313
 8957TIP3   OH251065   1.317   1.627  10.223 -0.0429  0.6265 -0.3972
 8957TIP3    H151066   1.289   1.708  10.179 -0.7994  0.5162 -0.1407
 8957TIP3    H251067   1.257   1.618  10.297 -0.5904 -0.6510 -0.9530
 8958TIP3   OH251068   7.594   5.529  10.775 -0.0227  0.7247  0.0534
 8958TIP3    H151069   7.566   5.540  10.866 -0.7627  1.6628 -0.2660
 8958TIP3    H251070   7.658   5.599  10.761 -0.3581  0.9711 -0.3024
 8959TIP3   OH251071   3.908   6.329  10.749  0.4345 -0.3346 -0.3880
 8959TIP3    H151072   3.886   6.409  10.796  0.8665 -0.3041 -0.2283
 8959TIP3    H251073   3.955   6.276  10.814  0.2592 -0.6650 -0.5273
 8960TIP3   OH251074   2.705   6.696  12.154  0.5371 -0.6223  0.1428
 8960TIP3    H151075   2.751   6.753  12.092 -0.1913  0.3055  0.4353
 8960TIP3    H251076   2.631   6.748  12.184 -0.0241 -1.6545  0.5922
 8961TIP3   OH251077   5.915   4.654  11.460 -0.4528  0.1869 -0.5729
 8961TIP3    H151078   5.857   4.594  11.507  0.4196 -0.2881 -0.0818
 8961TIP3    H251079   5.965   4.699  11.528  1.1657 -0.8472 -1.0097
 8962TIP3   OH251080   4.296   3.211  11.970  0.1121  0.9387 -0.4324
 8962TIP3    H151081   4.227   3.258  11.924 -0.5242 -1.0877 -1.6557
 8962TIP3    H251082   4.373   3.219  11.914 -0.2115 -0.0843 -1.0583
 8963TIP3   OH251083   5.483   1.036  11.836  0.1313 -0.2599 -0.0468
 8963TIP3    H151084   5.497   1.082  11.753  2.1887  0.8257  0.8267
 8963TIP3    H251085   5.483   0.943  11.812  1.2231  0.0090 -1.2251
 8964TIP3   OH251086   2.202   3.755  10.844 -0.4860 -0.0808 -0.3252
 8964TIP3    H151087   2.132   3.754  10.908 -0.2017  0.1016 -0.0110
 8964TIP3    H251088   2.275   3.798  10.888  0.5352 -2.1524  0.1144
 8965TIP3   OH251089   2.446   7.591   9.851 -0.2159  0.0428  0.4360
 8965TIP3    H151090   2.375   7.625   9.797  0.5164  1.5159  0.3241
 8965TIP3    H251091   2.439   7.641   9.933 -0.9484 -1.7357  1.5006
 8966TIP3   OH251092   2.063   5.496  11.742 -0.1426 -0.3806 -0.2032
 8966TIP3    H151093   2.096   5.564  11.800 -1.5525  0.5755 -0.4701
 8966TIP3    H251094   2.002   5.542  11.684 -0.6449 -1.7594 -0.7984
 8967TIP3   OH251095   3.793   3.185  10.169  0.0155  0.2192 -0.3058
 8967TIP3    H151096   3.847   3.128  10.115  0.1641  0.9783 -0.9822
 8967TIP3    H251097   3.752   3.126  10.233  1.0688 -0.4609 -0.2429
 8968TIP3   OH251098   6.743   0.226  12.402 -0.2815  0.2743  0.0419
 8968TIP3    H151099   6.730   0.131  12.400  0.4151  0.1573 -2.6141
 8968TIP3    H251100   6.657   0.263  12.384 -0.1011  0.0258 -1.4493
 8969TIP3   OH251101   0.069   3.273  10.542 -0.2437  0.4006  0.1816
 8969TIP3    H151102   0.092   3.359  10.577  1.0914  0.6599 -1.2116
 8969TIP3    H251103   0.147   3.245  10.494 -0.9126 -1.2736 -0.0034
 8970TIP3   OH251104   2.158   7.043  12.513 -0.0430 -0.2376 -0.5177
 8970TIP3    H151105   2.252   7.041  12.527 -0.1112 -0.5293 -0.0908
 8970TIP3    H251106   2.121   7.061  12.600 -0.1987  4.1656 -1.2632
 8971TIP3   OH251107   1.692   4.460  11.878 -0.0817 -0.4426  0.3693
 8971TIP3    H151108   1.605   4.469  11.917 -0.0228 -0.9280  0.6202
 8971TIP3    H251109   1.747   4.429  11.950  0.1968 -0.5896  0.0926
 8972TIP3   OH251110   2.005   1.140  10.340 -0.0313 -0.3145 -0.3759
 8972TIP3    H151111   2.085   1.144  10.392 -0.0925 -2.8304  0.0788
 8972TIP3    H251112   1.949   1.209  10.375  1.0306 -0.0979  0.9548
 8973TIP3   OH251113   4.073   6.594  12.781 -0.8447  0.3611  0.7598
 8973TIP3    H151114   4.143   6.591  12.846  1.5464  0.2640 -1.6503
 8973TIP3    H251115   4.083   6.678  12.738 -1.9150  0.1408  0.0343
 8974TIP3   OH251116   3.430   3.806  12.003 -0.3017  0.1915  0.0007
 8974TIP3    H151117   3.405   3.832  12.092  0.4400  2.4018 -0.3735
 8974TIP3    H251118   3.525   3.798  12.006 -0.3375 -0.4354 -0.4250
 8975TIP3   OH251119   1.927   0.910   9.973  0.0810 -0.1701 -1.0135
 8975TIP3    H151120   1.889   0.967   9.907 -0.1912 -1.1871 -1.7458
 8975TIP3    H251121   1.854   0.886  10.030  0.5763  1.9956  0.6984
 8976TIP3   OH251122   0.424   7.226  10.664  0.6491  0.3733 -0.1618
 8976TIP3    H151123   0.499   7.259  10.713  2.5883 -1.2787 -1.8178
 8976TIP3    H251124   0.395   7.300  10.611  1.5535  0.8693  0.0163
 8977TIP3   OH251125   4.013   3.928  11.267  0.7563 -0.2930  0.5176
 8977TIP3    H151126   3.942   3.963  11.320  0.1990 -0.3656 -0.1587
 8977TIP3    H251127   3.968   3.884  11.194  1.5057  1.1737 -0.8812
 8978TIP3   OH251128   0.346   5.838  11.305 -0.2281  0.3319  0.4372
 8978TIP3    H151129   0.357   5.768  11.241  1.4142  1.5375 -0.6668
 8978TIP3    H251130   0.270   5.887  11.274  0.6581  1.0133 -0.7553
 8979TIP3   OH251131   3.855   4.522  11.181 -0.2141  0.0978 -0.0440
 8979TIP3    H151132   3.877   4.615  11.174  0.5027 -0.0744 -0.2101
 8979TIP3    H251133   3.916   4.489  11.247  0.4922 -0.5345 -0.9952
 8980TIP3   OH251134   2.319   7.400  10.307 -0.3366 -0.4562 -0.0686
 8980TIP3    H151135   2.280   7.314  10.291  0.4960 -0.9275  0.3866
 8980TIP3    H251136   2.353   7.426  10.222 -1.0038 -0.3562 -0.3136
 8981TIP3   OH251137   2.136   2.540   9.793  0.9834  0.0503  0.2856
 8981TIP3    H151138   2.219   2.582   9.816  1.2501 -1.5967  2.7518
 8981TIP3    H251139   2.162   2.458   9.751  0.5334  0.3604 -0.6241
 8982TIP3   OH251140   6.433   4.049  11.652  0.5432 -0.0845 -0.4183
 8982TIP3    H151141   6.480   4.107  11.593  0.1576  0.1037 -0.5452
 8982TIP3    H251142   6.357   4.019  11.601  0.5633 -0.4418 -0.2438
 8983TIP3   OH251143   3.605   6.572  12.210 -0.0684  0.0514 -0.2396
 8983TIP3    H151144   3.512   6.576  12.191  0.0981  1.4173 -0.9357
 8983TIP3    H251145   3.630   6.663  12.228  1.1405 -0.2818 -0.1086
 8984TIP3   OH251146   5.071   7.526  11.102  0.7530 -0.0200  0.1685
 8984TIP3    H151147   5.008   7.519  11.030 -0.4411 -0.9513  1.2761
 8984TIP3    H251148   5.101   7.617  11.098 -0.6750  0.4607 -0.3735
 8985TIP3   OH251149   5.991   6.289  11.682 -0.6614 -0.6781  0.1745
 8985TIP3    H151150   6.062   6.305  11.743 -0.7017  0.2582 -0.0091
 8985TIP3    H251151   5.941   6.371  11.680 -1.9899 -1.4430  0.6061
 8986TIP3   OH251152   4.662   1.099   9.687  0.2422  0.4520 -0.1515
 8986TIP3    H151153   4.595   1.058   9.741  0.0035  0.4044 -0.4770
 8986TIP3    H251154   4.647   1.193   9.697 -0.5775  0.4351 -1.0778
 8987TIP3   OH251155   6.700   6.792  12.880  0.0047  0.5523 -0.0956
 8987TIP3    H151156   6.649   6.846  12.819  0.3328 -0.2827 -1.1279
 8987TIP3    H251157   6.662   6.812  12.966 -0.2143  2.0425 -0.5057
 8988TIP3   OH251158   2.827   5.344   9.869 -0.1733 -0.2488 -0.3700
 8988TIP3    H151159   2.836   5.248   9.869 -1.0016 -0.3374 -0.0999
 8988TIP3    H251160   2.915   5.376   9.885 -0.1111 -1.0122  1.0388
 8989TIP3   OH251161   0.164   7.542  10.933 -0.7018  0.2176 -0.0900
 8989TIP3    H151162   0.258   7.524  10.942 -0.6028 -0.6608 -2.2956
 8989TIP3    H251163   0.159   7.638  10.930  0.3740  0.2633 -1.7576
 8990TIP3   OH251164   2.059   0.621  11.376 -0.3553 -0.2875 -0.3221
 8990TIP3    H151165   2.026   0.627  11.465 -1.3074  0.5181 -0.7131
 8990TIP3    H251166   2.127   0.554  11.380 -0.7555 -0.6409  0.8922
 8991TIP3   OH251167   2.757   6.668  10.910 -0.2030 -0.5936  0.1021
 8991TIP3    H151168   2.694   6.739  10.903  1.3091  0.7899 -0.1805
 8991TIP3    H251169   2.726   6.614  10.982 -2.3764 -0.7022 -0.8500
 8992TIP3   OH251170   5.034   1.683  10.152  0.2739 -0.0256 -0.4580
 8992TIP3    H151171   5.020   1.675  10.058  0.5883 -0.0344 -0.5046
 8992TIP3    H251172   5.072   1.770  10.163  1.2544 -0.4335 -0.4613
 8993TIP3   OH251173   7.217   4.581  12.246 -0.4170  0.1279  0.7486
 8993TIP3    H151174   7.234   4.675  12.249  0.4838 -0.0264  0.5485
 8993TIP3    H251175   7.262   4.546  12.323  0.2555 -0.2905  0.1786
 8994TIP3   OH251176   6.217   5.490  11.704 -0.3003  0.2880 -0.7917
 8994TIP3    H151177   6.269   5.549  11.760 -0.0663  0.5745 -1.3034
 8994TIP3    H251178   6.275   5.470  11.631  0.1343 -1.6920  0.0401
 8995TIP3   OH251179   0.195   0.967  12.359 -0.1825  0.7526  0.7487
 8995TIP3    H151180   0.117   0.971  12.414 -1.1017  0.0649 -0.4581
 8995TIP3    H251181   0.168   0.917  12.282  1.4776  0.4278  0.3338
 8996TIP3   OH251182   2.241   2.123   9.801  0.1184 -0.6217  0.0746
 8996TIP3    H151183   2.248   2.197   9.740  0.4666 -0.3040  0.4937
 8996TIP3    H251184   2.211   2.162   9.883  2.0497 -0.6332  0.8437
 8997TIP3   OH251185   7.336   5.143  10.503 -0.4623 -0.2287 -0.3171
 8997TIP3    H151186   7.317   5.071  10.562  0.6557  0.3210  0.7713
 8997TIP3    H251187   7.275   5.212  10.529  1.9548  1.1263  2.4019
 8998TIP3   OH251188   0.306   4.368  11.646  0.4123  0.2647  0.1393
 8998TIP3    H151189   0.213   4.358  11.626  0.7228 -1.0817 -0.8152
 8998TIP3    H251190   0.309   4.400  11.736 -0.9666 -0.2338  0.3737
 8999TIP3   OH251191   6.551   5.572  10.121 -1.1718  0.2980 -0.8762
 8999TIP3    H151192   6.635   5.568  10.076 -0.3706 -0.2624  0.5927
 8999TIP3    H251193   6.492   5.614  10.058  0.6192  2.3510 -1.3137
 9000TIP3   OH251194   6.362   3.065  10.565 -0.0095 -0.3425  0.0135
 9000TIP3    H151195   6.357   3.058  10.470  0.0843  0.4044 -0.0520
 9000TIP3    H251196   6.290   3.124  10.589  0.4210  0.0549  0.3346
 9001TIP3   OH251197   6.172   3.605  10.081  0.1173  0.6495  0.0434
 9001TIP3    H151198   6.090   3.638  10.118 -0.3674  0.2371 -0.6277
 9001TIP3    H251199   6.155   3.602   9.986  0.8434  0.3827 -0.0811
 9002TIP3   OH251200   1.505   7.325  10.221 -0.5043 -0.6161  0.3251
 9002TIP3    H151201   1.425   7.379  10.220  0.4265  0.8339  0.7968
 9002TIP3    H251202   1.576   7.388  10.234  0.7986 -1.7992 -0.7935
 9003TIP3   OH251203   2.375   2.015  11.605  0.1872  0.4531  0.7779
 9003TIP3    H151204   2.320   2.001  11.528 -0.0084 -0.1661  1.0192
 9003TIP3    H251205   2.456   1.967  11.586  1.1262  2.2374 -0.0388
 9004TIP3   OH251206   1.281   7.676  11.724  0.0175 -0.1884 -0.3993
 9004TIP3    H151207   1.213   7.722  11.675 -0.0404 -0.7834 -0.8812
 9004TIP3    H251208   1.248   7.587  11.733 -0.2913  0.0724  1.3273
 9005TIP3   OH251209   5.190   2.580  11.840 -0.0946  0.6271  0.3627
 9005TIP3    H151210   5.257   2.628  11.792  0.9791 -1.4164 -0.2851
 9005TIP3    H251211   5.233   2.500  11.868 -1.8680 -0.0733  1.2166
 9006TIP3   OH251212   2.977   1.643  11.762 -0.3048  0.0783 -0.1070
 9006TIP3    H151213   2.992   1.624  11.670 -0.8122 -1.0891  0.0428
 9006TIP3    H251214   3.016   1.569  11.809 -0.0298  0.6694  0.6209
 9007TIP3   OH251215   4.056   1.026  12.127 -0.5023 -0.4195  0.1450
 9007TIP3    H151216   4.002   1.083  12.183  0.4576  0.1919  0.4765
 9007TIP3    H251217   4.045   1.061  12.039 -0.3244 -0.0487  0.2713
 9008TIP3   OH251218   0.430   1.316  11.926 -0.1060 -0.0334  0.1737
 9008TIP3    H151219   0.475   1.242  11.886  2.2334 -0.1024  2.6540
 9008TIP3    H251220   0.446   1.389  11.866  2.2275 -0.3795  0.2819
 9009TIP3   OH251221   2.610   5.024  12.489  0.1082 -0.1634  0.2575
 9009TIP3    H151222   2.585   4.932  12.483  0.6100 -0.7156  3.9803
 9009TIP3    H251223   2.553   5.068  12.426 -1.0639 -2.8514 -0.7254
 9010TIP3   OH251224   3.759   1.403   9.749 -0.4460  0.5521 -0.3933
 9010TIP3    H151225   3.834   1.445   9.705  1.4924  0.9672  2.9844
 9010TIP3    H251226   3.798   1.329   9.797 -1.9508  1.3860  2.2945
 9011TIP3   OH251227   0.632   0.894  11.282 -0.1562 -0.4045 -0.2178
 9011TIP3    H151228   0.719   0.910  11.244 -0.5908 -0.0252 -1.0790
 9011TIP3    H251229   0.645   0.820  11.341  0.4908 -1.1638 -1.2866
 9012TIP3   OH251230   6.895   5.508  11.225  0.1953 -0.1320 -0.3831
 9012TIP3    H151231   6.881   5.540  11.136  2.7196 -0.1759 -0.8608
 9012TIP3    H251232   6.876   5.583  11.281 -0.3777  0.2064 -1.0141
 9013TIP3   OH251233   1.492   6.451  10.398  0.2736 -0.4613  0.1875
 9013TIP3    H151234   1.445   6.512  10.454 -0.4632 -0.4897 -0.3852
 9013TIP3    H251235   1.548   6.506  10.343  3.0108 -0.5330  2.6392
 9014TIP3   OH251236   1.559   5.703  11.341 -0.2428  0.0404 -1.4854
 9014TIP3    H151237   1.645   5.695  11.301  0.3870 -1.1521  0.0098
 9014TIP3    H251238   1.554   5.794  11.369  0.5881  0.0863 -1.4697
 9015TIP3   OH251239   4.530   2.008  11.313 -0.2529  0.3858  0.2289
 9015TIP3    H151240   4.581   1.929  11.332  0.2194  0.4012 -0.9187
 9015TIP3    H251241   4.475   2.019  11.391  0.9286 -0.0608  1.1662
 9016TIP3   OH251242   7.196   5.339  11.166 -0.4974  0.8145 -0.0725
 9016TIP3    H151243   7.138   5.311  11.094 -1.5918 -0.5491  1.2773
 9016TIP3    H251244   7.280   5.299  11.145 -0.5595  1.1654 -1.0402
 9017TIP3   OH251245   4.249   4.813  10.961 -0.0481 -0.4686  0.6329
 9017TIP3    H151246   4.262   4.906  10.943 -0.7822 -0.4715  0.0527
 9017TIP3    H251247   4.268   4.769  10.878 -1.2511 -0.6849  0.4512
 9018TIP3   OH251248   0.116   3.480  12.164 -0.3906 -0.2207 -0.9128
 9018TIP3    H151249   0.187   3.507  12.223 -0.6238  0.2268 -0.8333
 9018TIP3    H251250   0.099   3.558  12.111 -0.2190 -0.6045 -1.5397
 9019TIP3   OH251251   6.552   0.058  10.871 -0.2376 -0.3534 -0.1056
 9019TIP3    H151252   6.526   0.146  10.843  0.9548 -0.5210 -1.9145
 9019TIP3    H251253   6.617   0.072  10.940 -0.9081  0.1352  0.4463
 9020TIP3   OH251254   1.413   7.160  10.724  0.3973 -0.3207 -0.3717
 9020TIP3    H151255   1.505   7.151  10.701  0.3926  0.9559 -0.9280
 9020TIP3    H251256   1.366   7.152  10.641  0.1996  1.5792 -0.4742
 9021TIP3   OH251257   4.248   4.328  10.281  0.4031 -0.5798 -0.1909
 9021TIP3    H151258   4.308   4.300  10.351  1.3412  0.4858 -0.5242
 9021TIP3    H251259   4.292   4.301  10.200  0.1610 -0.2960 -0.4184
 9022TIP3   OH251260   2.033   4.414  10.520  0.4212 -0.1412 -0.4701
 9022TIP3    H151261   2.072   4.395  10.605 -1.9503 -0.7376  0.5820
 9022TIP3    H251262   2.013   4.328  10.484  0.3407  0.1338 -1.0879
 9023TIP3   OH251263   2.470   3.157  11.182 -0.0683  0.4471 -0.2267
 9023TIP3    H151264   2.560   3.167  11.214 -0.1862 -2.3345  1.2733
 9023TIP3    H251265   2.480   3.119  11.094  0.2916 -1.3765  0.5604
 9024TIP3   OH251266   4.028   3.638  11.407 -0.0655  0.2718 -0.5198
 9024TIP3    H151267   4.049   3.548  11.431  0.6149  0.5784  0.0790
 9024TIP3    H251268   4.088   3.659  11.336  0.0457  0.3773 -0.3963
 9025TIP3   OH251269   4.598   0.779  10.920 -0.3462 -0.2657  0.0643
 9025TIP3    H151270   4.572   0.719  10.850  0.5013 -0.8352  0.2195
 9025TIP3    H251271   4.518   0.794  10.970 -0.9556  0.1118 -0.9917
 9026TIP3   OH251272   0.465   3.640   9.999  0.1389 -0.8850 -0.3003
 9026TIP3    H151273   0.546   3.659   9.953  0.2908 -0.0512  0.2698
 9026TIP3    H251274   0.486   3.654  10.091 -0.6026 -0.8297 -0.1313
 9027TIP3   OH251275   1.357   2.440  10.693  0.4814 -0.4345 -0.3193
 9027TIP3    H151276   1.394   2.499  10.628  3.4234 -1.2887  0.4120
 9027TIP3    H251277   1.377   2.352  10.660 -1.3250 -0.9972 -0.0390
 9028TIP3   OH251278   1.654   1.106  12.769 -0.3072  0.8154 -0.5752
 9028TIP3    H151279   1.730   1.048  12.782  1.4730  3.2554  0.6889
 9028TIP3    H251280   1.586   1.048  12.734  1.7691 -1.7245 -0.7506
 9029TIP3   OH251281   3.635   4.790  12.153 -0.2151  0.4668  0.3125
 9029TIP3    H151282   3.543   4.806  12.176 -0.7784 -1.4423 -0.4263
 9029TIP3    H251283   3.646   4.696  12.161  1.6803  0.6428  0.2751
 9030TIP3   OH251284   2.075   6.395  11.171  0.2462 -0.0233 -0.1224
 9030TIP3    H151285   1.988   6.432  11.189  0.0599 -0.7478  0.5220
 9030TIP3    H251286   2.097   6.427  11.084 -0.1621  1.1134  0.1706
 9031TIP3   OH251287   4.536   1.697  11.081 -0.5815  0.3193 -0.0523
 9031TIP3    H151288   4.596   1.694  11.006 -2.0484 -0.1030 -1.2753
 9031TIP3    H251289   4.449   1.709  11.041 -1.4354 -0.1980  1.5659
 9032TIP3   OH251290   6.428   2.989  12.526  0.4602  0.1148 -0.1737
 9032TIP3    H151291   6.474   3.002  12.610 -0.6329  0.8024  0.3384
 9032TIP3    H251292   6.353   3.047  12.531  0.7053  0.6312 -1.9077
 9033TIP3   OH251293   4.721   4.123   9.929 -0.6315  0.2862  0.6968
 9033TIP3    H151294   4.727   4.033   9.895  0.0482 -0.0225  1.5940
 9033TIP3    H251295   4.812   4.155   9.926 -1.0763  1.5275 -1.1110
 9034TIP3   OH251296   3.660   6.991  11.032 -0.0387 -0.1651  0.7226
 9034TIP3    H151297   3.731   6.951  11.082 -0.6646 -2.0283  0.2116
 9034TIP3    H251298   3.583   6.938  11.054 -0.7347  0.2176 -0.6920
 9035TIP3   OH251299   6.919   2.209  10.444 -0.0794  0.3902 -0.2553
 9035TIP3    H151300   6.866   2.259  10.505 -1.0370 -0.9466  0.0500
 9035TIP3    H251301   7.009   2.219  10.475 -0.5289 -0.1190  1.2793
 9036TIP3   OH251302   6.255   3.612   9.648 -0.4385  0.2083  0.2134
 9036TIP3    H151303   6.348   3.616   9.671 -0.7859  0.9485  1.6222
 9036TIP3    H251304   6.249   3.543   9.583  1.0854  0.0699  0.1862
 9037TIP3   OH251305   1.319   1.014  10.305  0.6235 -0.8126 -0.5196
 9037TIP3    H151306   1.250   1.009  10.238  0.2132  0.6012 -0.2503
 9037TIP3    H251307   1.400   1.002  10.257  0.3503  0.4394 -1.3548
 9038TIP3   OH251308   3.604   6.563  11.525  0.1011 -0.3046  0.1390
 9038TIP3    H151309   3.635   6.651  11.545  1.3710 -1.0228  1.5916
 9038TIP3    H251310   3.515   6.575  11.493  0.9450  1.6715 -1.7390
 9039TIP3   OH251311   4.788   2.450   9.886  0.2938  0.0050 -0.0229
 9039TIP3    H151312   4.791   2.358   9.913  0.6450  0.1027  0.2840
 9039TIP3    H251313   4.774   2.498   9.968  1.1759  0.2931 -0.0324
 9040TIP3   OH251314   7.324   4.226  12.299  0.4995 -0.5468 -0.6189
 9040TIP3    H151315   7.290   4.316  12.302  1.5842 -0.1473  0.3273
 9040TIP3    H251316   7.255   4.173  12.339  1.1146  0.3334  1.8228
 9041TIP3   OH251317   3.350   6.554  11.450  0.5190 -0.2904  0.3606
 9041TIP3    H151318   3.354   6.644  11.416  0.0787 -0.4735 -0.1982
 9041TIP3    H251319   3.362   6.499  11.373  1.7447 -0.7242  0.8323
 9042TIP3   OH251320   2.399   3.512   9.961 -0.0932 -0.7584 -0.0270
 9042TIP3    H151321   2.402   3.576  10.032 -0.4945 -1.2687  0.4576
 9042TIP3    H251322   2.333   3.448   9.989  0.3061 -1.3893 -0.4937
 9043TIP3   OH251323   1.414   6.532  10.043  0.4576  0.0277 -0.2714
 9043TIP3    H151324   1.468   6.457  10.017  0.5747  0.2207 -0.5964
 9043TIP3    H251325   1.476   6.592  10.086  0.4961  0.2273 -0.6004
 9044TIP3   OH251326   0.710   2.616  11.689  0.0539  0.0021  0.5995
 9044TIP3    H151327   0.656   2.537  11.690  0.6920 -0.4393  0.8471
 9044TIP3    H251328   0.800   2.583  11.696  0.4570  0.6394 -1.0223
 9045TIP3   OH251329   2.414   4.766  10.821  0.2312 -0.2667  0.6872
 9045TIP3    H151330   2.370   4.798  10.900 -0.7704  2.8931 -0.9865
 9045TIP3    H251331   2.499   4.809  10.822 -0.8828  2.1906 -1.2787
 9046TIP3   OH251332   5.056   0.522  11.811 -0.2700  0.6052 -0.0704
 9046TIP3    H151333   5.023   0.535  11.900 -0.7215  0.1333 -0.1648
 9046TIP3    H251334   4.994   0.569  11.756 -0.5798  0.0429 -0.2152
 9047TIP3   OH251335   6.515   0.141  11.509  0.0047 -0.6122  0.0036
 9047TIP3    H151336   6.443   0.204  11.519  1.6744  1.2770  0.8562
 9047TIP3    H251337   6.544   0.125  11.599  1.1997 -0.6608 -0.3836
 9048TIP3   OH251338   6.263   2.333  10.595  0.1221 -0.4236  0.5529
 9048TIP3    H151339   6.196   2.292  10.540 -1.5713  2.9343 -0.1046
 9048TIP3    H251340   6.339   2.342  10.537 -0.9042  1.0852 -0.6283
 9049TIP3   OH251341   4.802   0.148  11.722 -0.3992 -0.1100  0.0631
 9049TIP3    H151342   4.740   0.205  11.676 -0.2827 -0.9629 -1.2052
 9049TIP3    H251343   4.752   0.114  11.796 -1.2218 -0.1869 -0.5074
 9050TIP3   OH251344   1.537   4.092  12.476  0.1279  0.0332  0.2036
 9050TIP3    H151345   1.487   4.022  12.434  0.1509  1.1122 -1.7623
 9050TIP3    H251346   1.474   4.163  12.486  0.2902  0.0110  1.4757
 9051TIP3   OH251347   1.795   3.085  12.596  0.1257 -0.0842 -0.2053
 9051TIP3    H151348   1.844   3.162  12.567  0.7166 -0.7606 -1.0657
 9051TIP3    H251349   1.703   3.113  12.596  0.1952  0.2425 -1.8337
 9052TIP3   OH251350   0.521   5.094   9.511 -0.1885  0.8545  0.2206
 9052TIP3    H151351   0.437   5.077   9.554  0.4351  0.1629  1.2170
 9052TIP3    H251352   0.503   5.164   9.449 -2.0234 -0.7573 -1.1857
 9053TIP3   OH251353   1.876   1.554  10.923 -0.2808  0.6410  0.0174
 9053TIP3    H151354   1.818   1.609  10.871  0.2282  1.0695 -0.1104
 9053TIP3    H251355   1.817   1.498  10.974 -0.8516  2.1243  1.0599
 9054TIP3   OH251356   5.296   0.865  11.299  0.3929  0.5867  0.1266
 9054TIP3    H151357   5.384   0.898  11.313  0.4789  0.1001  0.8116
 9054TIP3    H251358   5.278   0.812  11.377 -0.5954  0.8793  0.1155
 9055TIP3   OH251359   0.188   0.790  10.929 -0.2656 -0.2960  0.2319
 9055TIP3    H151360   0.231   0.860  10.978 -0.7555 -1.0205  1.7750
 9055TIP3    H251361   0.177   0.719  10.993 -1.7365 -0.9548 -0.6890
 9056TIP3   OH251362   1.520   5.500  12.442 -0.3932 -0.0072 -0.7254
 9056TIP3    H151363   1.511   5.410  12.475 -0.2204  0.2972  0.1665
 9056TIP3    H251364   1.430   5.529  12.426 -0.5294  0.1056  0.2134
 9057TIP3   OH251365   2.268   5.178  11.227  0.2048 -0.0256  0.2323
 9057TIP3    H151366   2.338   5.233  11.192  0.4541 -1.8533 -2.4851
 9057TIP3    H251367   2.313   5.106  11.271 -0.0232 -0.1056  0.3365
 9058TIP3   OH251368   2.959   2.337  10.786 -0.1682  0.3789  0.4939
 9058TIP3    H151369   2.877   2.360  10.829  0.4846  0.2400  1.8520
 9058TIP3    H251370   2.940   2.253  10.743 -0.9353  0.6982  0.1963
 9059TIP3   OH251371   7.380   2.168  11.273 -0.1251  0.0910 -0.0782
 9059TIP3    H151372   7.393   2.237  11.208 -0.1864 -0.1580 -0.3579
 9059TIP3    H251373   7.469   2.146  11.301 -0.1070  0.3048  0.0390
 9060TIP3   OH251374   3.813   3.400  11.320  0.1865  0.2163 -0.1943
 9060TIP3    H151375   3.846   3.341  11.387  1.9811  1.4510  0.0745
 9060TIP3    H251376   3.890   3.423  11.268 -1.1121 -0.5645 -2.6198
 9061TIP3   OH251377   1.160   6.745  11.722 -0.2946 -0.1090  0.0183
 9061TIP3    H151378   1.078   6.737  11.673  0.8161 -1.9832 -1.6919
 9061TIP3    H251379   1.213   6.806  11.670 -0.2688  0.4017  0.6332
 9062TIP3   OH251380   3.642   4.689  10.306 -0.6933  0.0493  0.9095
 9062TIP3    H151381   3.690   4.682  10.389  0.7690  0.2162  0.1224
 9062TIP3    H251382   3.693   4.635  10.245 -2.1186 -0.6103  0.2646
 9063TIP3   OH251383   2.970   4.248  10.345 -0.9601  0.5223  0.5031
 9063TIP3    H151384   2.981   4.317  10.280  0.2427  1.7875  1.9586
 9063TIP3    H251385   3.056   4.206  10.350 -1.2220  0.0153  0.8061
 9064TIP3   OH251386   3.338   1.068  10.664 -0.4908  0.3625  0.3845
 9064TIP3    H151387   3.316   1.056  10.756 -0.6990  0.2397  0.3193
 9064TIP3    H251388   3.267   1.025  10.616 -0.8521  1.1954  0.1531
 9065TIP3   OH251389   2.884   0.228  12.194  0.6009  0.3248 -0.5428
 9065TIP3    H151390   2.930   0.312  12.194  0.4411  0.4880 -2.9927
 9065TIP3    H251391   2.810   0.242  12.254  1.5040  1.3416  0.3983
 9066TIP3   OH251392   1.206   7.418  11.753  0.7887  0.3105  0.5668
 9066TIP3    H151393   1.196   7.418  11.658 -0.5936 -0.1958  0.6868
 9066TIP3    H251394   1.240   7.331  11.774 -0.9140 -0.3761  0.6750
 9067TIP3   OH251395   2.517   7.481  11.733 -0.1171 -0.1064  0.0935
 9067TIP3    H151396   2.588   7.418  11.721 -0.3524 -0.5040  0.7462
 9067TIP3    H251397   2.477   7.457  11.817 -0.5254  0.6010  0.1102
 9068TIP3   OH251398   1.900   5.159  11.642  0.9885  0.5316 -0.4489
 9068TIP3    H151399   1.827   5.097  11.641 -0.2779  1.9497  0.1214
 9068TIP3    H251400   1.868   5.234  11.593  1.2794  1.9786  1.4564
 9069TIP3   OH251401   3.675   0.727   9.995  0.6158 -0.0410  0.7580
 9069TIP3    H151402   3.585   0.741   9.964  1.2796 -0.7161 -1.6674
 9069TIP3    H251403   3.702   0.813  10.027 -0.6648  0.3307  0.9092
 9070TIP3   OH251404   2.069   6.890  12.284  0.3458 -0.0548  0.7335
 9070TIP3    H151405   2.066   6.936  12.368  1.1157  0.5391  0.4489
 9070TIP3    H251406   1.996   6.925  12.235 -0.4445 -0.8062  1.3483
 9071TIP3   OH251407   2.936   6.840  10.577  0.3312 -0.7969 -0.2109
 9071TIP3    H151408   2.879   6.895  10.631  0.4586 -0.2949 -0.5797
 9071TIP3    H251409   2.947   6.890  10.496  3.9035  0.7097  0.9970
 9072TIP3   OH251410   2.250   2.847  10.348 -0.2585 -0.6233 -0.3194
 9072TIP3    H151411   2.292   2.810  10.270  0.8900 -3.8444  1.5941
 9072TIP3    H251412   2.157   2.839  10.331 -0.1645  1.7721 -2.5561
 9073TIP3   OH251413   3.599   5.183   9.835  0.2424 -0.0234  0.2728
 9073TIP3    H151414   3.692   5.168   9.816  0.5687 -0.4965  2.0410
 9073TIP3    H251415   3.555   5.104   9.802  0.2804  0.6827 -1.5765
 9074TIP3   OH251416   1.961   2.765  10.261 -0.2622 -0.0905 -0.2253
 9074TIP3    H151417   1.927   2.695  10.317  1.8972 -0.4107  0.8146
 9074TIP3    H251418   1.979   2.721  10.177 -1.6662 -0.0680 -0.5548
 9075TIP3   OH251419   6.547   5.387   9.862 -0.2369 -0.0236  0.5222
 9075TIP3    H151420   6.628   5.422   9.899 -1.5311  1.5795  2.0404
 9075TIP3    H251421   6.485   5.460   9.866 -1.4535 -0.8134 -1.7570
 9076TIP3   OH251422   1.911   0.613  11.058 -0.5225 -0.6972 -0.1897
 9076TIP3    H151423   1.836   0.594  11.002  0.1775 -1.4412 -0.8953
 9076TIP3    H251424   1.947   0.528  11.082 -0.0603 -0.3613  0.3675
 9077TIP3   OH251425   1.176   0.994  11.803 -0.1082  0.0992  0.2981
 9077TIP3    H151426   1.144   0.954  11.884 -0.3837  0.4041  0.3399
 9077TIP3    H251427   1.134   1.080  11.800  0.0222  0.1521 -0.0901
 9078TIP3   OH251428   4.386   6.462  10.531 -0.3721 -0.4461 -0.3419
 9078TIP3    H151429   4.351   6.373  10.537 -0.6805 -0.3187 -0.2205
 9078TIP3    H251430   4.326   6.507  10.471 -0.0710 -0.3908 -0.6049
 9079TIP3   OH251431   1.355   3.536  10.696 -0.0451 -0.0744 -0.1711
 9079TIP3    H151432   1.292   3.464  10.699 -0.0276 -0.0586  1.2563
 9079TIP3    H251433   1.309   3.606  10.650 -2.1266  0.8462  2.9933
 9080TIP3   OH251434   4.783   2.486  11.166  0.5425 -0.1183 -0.0906
 9080TIP3    H151435   4.726   2.517  11.095 -1.7911 -1.6749  0.9646
 9080TIP3    H251436   4.724   2.440  11.226  3.1596 -3.2436  0.3551
 9081TIP3   OH251437   6.789   6.106  10.084 -0.0653 -0.3879  0.5575
 9081TIP3    H151438   6.866   6.135  10.035  0.3885  1.0917  2.0432
 9081TIP3    H251439   6.736   6.185  10.093 -1.0751 -1.0782  0.7917
 9082TIP3   OH251440   6.556   6.300  11.087 -0.1864  0.0218  1.2613
 9082TIP3    H151441   6.559   6.368  11.020  0.3987 -0.7512  0.4733
 9082TIP3    H251442   6.641   6.303  11.129  1.0800 -2.2101 -0.8779
 9083TIP3   OH251443   6.566   0.797  10.090 -0.0077  0.7506 -0.0494
 9083TIP3    H151444   6.503   0.854  10.045  0.4773  1.1090 -0.2875
 9083TIP3    H251445   6.574   0.721  10.033  3.0743  2.5807 -2.4243
 9084TIP3   OH251446   1.646   5.674  11.886  0.0468  0.4493  0.9306
 9084TIP3    H151447   1.578   5.612  11.912  0.8285 -1.0214 -0.3777
 9084TIP3    H251448   1.599   5.756  11.869 -1.1274 -0.0123  1.8299
 9085TIP3   OH251449   4.667   4.102  10.634 -0.3589  0.1779  0.0260
 9085TIP3    H151450   4.611   4.053  10.695  1.5057  0.2069  1.8955
 9085TIP3    H251451   4.690   4.182  10.681  0.8855  0.3679 -0.8354
 9086TIP3   OH251452   6.353   1.371  10.084 -0.1319  0.0618 -0.6186
 9086TIP3    H151453   6.391   1.327  10.008  1.9096  2.2040 -0.9487
 9086TIP3    H251454   6.343   1.462  10.057 -1.4655  0.4462  0.9925
 9087TIP3   OH251455   2.240   0.442  11.270  0.5552  0.6831  0.2583
 9087TIP3    H151456   2.159   0.444  11.219  0.0478 -0.1466  1.0174
 9087TIP3    H251457   2.291   0.515  11.235 -1.5551  2.9180  1.5050
 9088TIP3   OH251458   5.104   6.373  10.270  0.3800 -0.8325 -0.1328
 9088TIP3    H151459   5.106   6.440  10.339 -0.1519  0.4593 -1.3454
 9088TIP3    H251460   5.034   6.400  10.211  2.2113 -0.6945 -2.3690
 9089TIP3   OH251461   6.866   3.396  10.202  0.6209  0.0419  0.5313
 9089TIP3    H151462   6.776   3.391  10.234  0.0919 -0.4848 -0.9073
 9089TIP3    H251463   6.912   3.326  10.249 -0.0196 -0.4547  0.4375
 9090TIP3   OH251464   2.116   0.162  11.314 -0.1614  0.5497 -0.2552
 9090TIP3    H151465   2.165   0.244  11.302 -0.1425  0.4147 -1.1958
 9090TIP3    H251466   2.133   0.113  11.234 -0.3632 -0.2807  0.2057
 9091TIP3   OH251467   6.321   5.004  10.659 -0.2432 -0.6183 -0.1026
 9091TIP3    H151468   6.304   4.946  10.733 -0.2759 -0.0556  0.3356
 9091TIP3    H251469   6.304   4.950  10.582 -2.4580 -0.5521  0.2828
 9092TIP3   OH251470   6.697   2.601  11.594  0.1141  0.2772  1.0016
 9092TIP3    H151471   6.632   2.659  11.634 -0.0857  0.5897  0.2372
 9092TIP3    H251472   6.780   2.627  11.633  0.4399  2.7861 -1.0503
 9093TIP3   OH251473   1.173   2.646  12.578  0.7905 -0.1652  0.2655
 9093TIP3    H151474   1.110   2.602  12.635 -0.0050  0.3749 -0.1775
 9093TIP3    H251475   1.173   2.595  12.498 -1.4598  1.5273 -0.9378
 9094TIP3   OH251476   5.080   0.301  12.164  0.0165  0.5907  0.2210
 9094TIP3    H151477   5.047   0.388  12.143  0.3698  0.7160  0.1722
 9094TIP3    H251478   5.114   0.309  12.253  2.0610  1.1099 -0.5502
 9095TIP3   OH251479   2.462   3.346  10.274 -0.4015  0.4110 -0.5294
 9095TIP3    H151480   2.554   3.319  10.283 -0.4691 -0.4385 -2.0210
 9095TIP3    H251481   2.412   3.281  10.323 -0.1950  1.1064  0.6268
 9096TIP3   OH251482   2.368   5.986  10.061  0.1637 -0.0951 -0.2094
 9096TIP3    H151483   2.294   5.931  10.037  0.2784 -0.6264  0.6239
 9096TIP3    H251484   2.410   5.941  10.134  0.1733  1.1687  0.6025
 9097TIP3   OH251485   1.544   2.607  11.772  0.6964 -0.0197  0.3447
 9097TIP3    H151486   1.522   2.579  11.861  2.0733  1.6610  1.2786
 9097TIP3    H251487   1.617   2.551  11.746  0.2711 -0.5359  0.2466
 9098TIP3   OH251488   7.131   1.289  11.437  0.3333  0.1568 -0.5360
 9098TIP3    H151489   7.140   1.204  11.479  1.7044  0.3463 -0.3863
 9098TIP3    H251490   7.037   1.304  11.431  0.0806 -0.2755  1.6554
 9099TIP3   OH251491   1.479   4.713  10.462 -0.3573  0.0073  0.0069
 9099TIP3    H151492   1.531   4.793  10.464 -0.4127  0.0377  0.2513
 9099TIP3    H251493   1.484   4.683  10.371  1.9670 -1.2216  0.4579
 9100TIP3   OH251494   0.435   5.840  10.024  0.4273 -0.4074  0.4506
 9100TIP3    H151495   0.439   5.744  10.029 -0.0264 -0.4120  0.6880
 9100TIP3    H251496   0.427   5.858   9.930 -0.4874 -0.6396  0.4737
 9101TIP3   OH251497   0.459   3.974  10.009 -0.1223 -0.1773 -0.2191
 9101TIP3    H151498   0.425   3.986  10.098  1.9824  0.5426  0.5384
 9101TIP3    H251499   0.383   3.992   9.953 -1.2311  0.4427  1.3772
 9102TIP3   OH251500   7.364   1.174  10.260  0.1625  0.3605 -0.2502
 9102TIP3    H151501   7.357   1.222  10.178  0.4519 -0.3363 -0.6898
 9102TIP3    H251502   7.387   1.241  10.325  0.2806  0.8551 -0.7920
 9103TIP3   OH251503   7.653   6.114  10.490 -0.2557 -0.1419  0.0951
 9103TIP3    H151504   7.680   6.205  10.481 -0.5506 -0.1366 -0.8916
 9103TIP3    H251505   7.558   6.117  10.498 -0.5654 -0.4549 -2.5311
 9104TIP3   OH251506   1.490   7.367  11.044 -0.0373  0.1382 -0.6023
 9104TIP3    H151507   1.516   7.385  10.954 -0.7759  0.7808 -0.6980
 9104TIP3    H251508   1.550   7.419  11.098  0.3070 -0.1306 -0.7227
 9105TIP3   OH251509   4.016   1.476  10.410 -0.1044  0.2545  0.4248
 9105TIP3    H151510   4.069   1.518  10.342 -0.9591  1.0078  0.1949
 9105TIP3    H251511   4.061   1.394  10.429 -0.8924 -0.9626 -2.4926
 9106TIP3   OH251512   4.561   6.726  12.739  0.0007  0.3017  0.0192
 9106TIP3    H151513   4.634   6.664  12.741  0.1334  0.4750  0.6820
 9106TIP3    H251514   4.483   6.671  12.738  0.1271  0.1230 -0.0078
 9107TIP3   OH251515   5.836   6.364  10.875 -0.2326  0.1867 -0.9667
 9107TIP3    H151516   5.813   6.453  10.899  0.4024  0.3070 -0.7990
 9107TIP3    H251517   5.795   6.351  10.789 -0.9048  0.3988 -0.6786
 9108TIP3   OH251518   5.220   0.570  10.776 -0.1111  0.3331  0.5862
 9108TIP3    H151519   5.252   0.660  10.772  0.2597  0.1944  0.3263
 9108TIP3    H251520   5.277   0.527  10.841 -0.2886  0.2838  0.7118
 9109TIP3   OH251521   0.432   0.783  11.142 -0.2565 -0.0222 -0.4909
 9109TIP3    H151522   0.464   0.696  11.118 -0.0197 -0.0582 -0.0467
 9109TIP3    H251523   0.508   0.828  11.177 -0.2678  0.5350 -1.1650
 9110TIP3   OH251524   3.493   5.609  10.945  0.0589  0.2631  0.0052
 9110TIP3    H151525   3.495   5.526  10.994 -1.5586 -0.3601 -0.9020
 9110TIP3    H251526   3.550   5.667  10.994 -0.3527 -0.7823  1.8077
 9111TIP3   OH251527   7.370   5.624  11.775 -0.1142 -0.4288 -0.1330
 9111TIP3    H151528   7.431   5.697  11.780 -0.3787 -0.1736 -0.6076
 9111TIP3    H251529   7.344   5.620  11.683 -1.9553  0.4287  0.2867
 9112TIP3   OH251530   0.479   2.429  11.637  0.5828  0.1135 -0.2380
 9112TIP3    H151531   0.467   2.341  11.673 -1.7824  0.4494 -0.0313
 9112TIP3    H251532   0.512   2.415  11.549  0.8036 -0.9472 -0.0035
 9113TIP3   OH251533   2.803   1.765  10.412  0.3007  0.3477  0.4259
 9113TIP3    H151534   2.741   1.704  10.372  1.2342 -1.0700  1.0509
 9113TIP3    H251535   2.755   1.802  10.486  0.2877 -0.9982  1.1197
 9114TIP3   OH251536   6.029   4.516  12.220  0.5311  0.2214 -0.1487
 9114TIP3    H151537   6.093   4.455  12.254 -0.1901 -1.2983 -1.4095
 9114TIP3    H251538   5.944   4.475  12.238 -0.1101  1.9777  1.1010
 9115TIP3   OH251539   3.022   5.306  11.563  0.2628  0.3756  0.1923
 9115TIP3    H151540   2.945   5.362  11.567  1.3754  2.0163 -0.5506
 9115TIP3    H251541   3.036   5.290  11.470  1.5348  1.1562  0.2259
 9116TIP3   OH251542   6.836   0.187  10.454  0.1030 -0.0495 -0.5445
 9116TIP3    H151543   6.768   0.202  10.388 -0.5245 -0.4809 -0.0063
 9116TIP3    H251544   6.827   0.095  10.478  0.4450  0.0556  0.0115
 9117TIP3   OH251545   0.357   5.188  12.043  0.0533  0.3123  0.4940
 9117TIP3    H151546   0.288   5.137  12.085  0.3035  0.4158  1.0377
 9117TIP3    H251547   0.409   5.122  11.996  0.3062  0.0692  1.0985
 9118TIP3   OH251548   0.172   4.034  10.571  0.3875 -0.1275 -0.2958
 9118TIP3    H151549   0.081   4.041  10.601  0.9320 -0.8213  1.6838
 9118TIP3    H251550   0.203   4.125  10.567  0.0785  0.0329  0.6418
 9119TIP3   OH251551   4.864   0.843  10.827  0.5971  0.4349 -0.0084
 9119TIP3    H151552   4.944   0.809  10.866 -0.6195 -2.3673  0.3219
 9119TIP3    H251553   4.794   0.813  10.886 -0.7194  2.7876 -0.2755
 9120TIP3   OH251554   4.356   6.576  11.940 -0.1741  0.0158 -0.1724
 9120TIP3    H151555   4.409   6.598  12.016  3.6290 -2.6450 -1.7829
 9120TIP3    H251556   4.370   6.649  11.879  2.4718 -0.9869 -0.8721
 9121TIP3   OH251557   2.992   6.339  12.523 -0.4917 -0.0258  0.0957
 9121TIP3    H151558   3.060   6.282  12.560 -0.0210  1.1766  1.1667
 9121TIP3    H251559   2.916   6.282  12.513  0.2716 -1.0840  0.1590
 9122TIP3   OH251560   6.002   0.670  10.947 -0.1420  0.2444 -0.0017
 9122TIP3    H151561   5.996   0.577  10.969 -1.4376 -0.1893 -1.9845
 9122TIP3    H251562   5.912   0.698  10.931  0.2405  1.8049  0.3470
 9123TIP3   OH251563   4.625   1.457  10.462 -0.1973  0.6001  0.3880
 9123TIP3    H151564   4.696   1.416  10.510  0.4035 -0.2619 -1.1589
 9123TIP3    H251565   4.669   1.520  10.404 -0.6215 -0.2388 -0.8866
 9124TIP3   OH251566   2.652   2.197  10.484  0.2191  0.0087 -0.1852
 9124TIP3    H151567   2.672   2.286  10.455 -1.1431  0.1848 -0.6488
 9124TIP3    H251568   2.592   2.208  10.557  0.5845 -0.5205  0.1981
 9125TIP3   OH251569   4.502   7.470   9.906  0.0387 -0.5475 -0.4405
 9125TIP3    H151570   4.415   7.503   9.928  0.7955  0.4256  1.3273
 9125TIP3    H251571   4.501   7.379   9.935 -0.3026 -0.4500 -0.1358
 9126TIP3   OH251572   5.109   7.166  11.979 -0.0134  0.3596  0.0477
 9126TIP3    H151573   5.176   7.139  11.917 -0.2121 -0.4646  0.1819
 9126TIP3    H251574   5.084   7.254  11.950  0.5602  0.3577 -0.4734
 9127TIP3   OH251575   3.342   1.309  11.958 -0.5425 -0.0574 -0.0735
 9127TIP3    H151576   3.355   1.290  11.865 -0.9801  0.8570 -0.3292
 9127TIP3    H251577   3.252   1.280  11.976 -0.1225 -1.1739  0.3278
 9128TIP3   OH251578   3.447   0.545  11.142  0.2473  0.0699 -1.0169
 9128TIP3    H151579   3.381   0.476  11.133  0.6690 -0.2162 -2.0770
 9128TIP3    H251580   3.431   0.602  11.066  0.4754  0.6461 -0.6372
 9129TIP3   OH251581   3.800   6.406  11.801  0.4391  0.6312 -0.1209
 9129TIP3    H151582   3.745   6.366  11.869 -0.8553 -1.8562 -2.4119
 9129TIP3    H251583   3.775   6.498  11.802 -0.8021  0.3425  1.6164
 9130TIP3   OH251584   1.862   7.204  10.312 -0.3996  0.0023 -0.2701
 9130TIP3    H151585   1.884   7.200  10.405 -3.3473  1.0727  0.5765
 9130TIP3    H251586   1.921   7.270  10.276  1.1389 -0.8088  0.6780
 9131TIP3   OH251587   4.664   6.588  12.396 -0.8269  0.5789 -0.2292
 9131TIP3    H151588   4.712   6.518  12.352 -0.5140  0.9239 -0.4478
 9131TIP3    H251589   4.713   6.603  12.477  0.0975  1.6661 -0.9477
 9132TIP3   OH251590   5.958   7.082  10.961 -0.2576 -0.3041 -0.3966
 9132TIP3    H151591   5.868   7.103  10.934 -0.2278 -0.8838 -0.9758
 9132TIP3    H251592   5.963   6.986  10.956  0.2518 -0.3076  0.0925
 9133TIP3   OH251593   7.112   0.933  10.451 -0.1325 -0.2552 -0.2679
 9133TIP3    H151594   7.064   0.990  10.510 -3.1505 -0.9972 -1.8137
 9133TIP3    H251595   7.115   0.849  10.495 -1.3468 -0.5026 -0.6153
 9134TIP3   OH251596   1.778   0.250  12.584  0.4112  0.3463 -0.9483
 9134TIP3    H151597   1.829   0.329  12.601  1.5611 -0.5674  0.0428
 9134TIP3    H251598   1.751   0.220  12.671 -1.1455  0.3521 -1.4026
 9135TIP3   OH251599   5.677   5.323  10.613  0.0641  0.3202 -0.3399
 9135TIP3    H151600   5.643   5.407  10.646 -0.4180 -0.3172  0.8652
 9135TIP3    H251601   5.746   5.299  10.676 -0.7217 -0.8212  0.1179
 9136TIP3   OH251602   7.152   2.443  12.608 -0.3260 -0.7208  0.3237
 9136TIP3    H151603   7.089   2.507  12.576  1.0010  1.8594  2.4707
 9136TIP3    H251604   7.108   2.399  12.680 -0.1824  0.0728  0.9037
 9137TIP3   OH251605   3.748   1.588  10.007  0.5361 -0.2711 -0.2274
 9137TIP3    H151606   3.773   1.560   9.919  0.5984  0.2129 -0.3681
 9137TIP3    H251607   3.674   1.647   9.993  0.7374  0.0479  0.0168
 9138TIP3   OH251608   3.107   2.843  10.732  0.0207 -0.4338  0.1173
 9138TIP3    H151609   3.172   2.780  10.764  0.4979  0.4517  0.9397
 9138TIP3    H251610   3.148   2.883  10.655 -0.2813 -1.0981 -0.4043
 9139TIP3   OH251611   4.015   5.727  11.473 -0.3674  0.0836  0.3914
 9139TIP3    H151612   4.073   5.736  11.398  0.9221 -0.5504  1.2780
 9139TIP3    H251613   3.971   5.643  11.460  0.7752 -0.6298  0.9190
 9140TIP3   OH251614   1.762   4.565  11.505  0.1647 -0.3890 -0.2713
 9140TIP3    H151615   1.790   4.581  11.414  1.4728  1.2700  0.3711
 9140TIP3    H251616   1.821   4.496  11.536  2.4009  1.6967  0.4415
 9141TIP3   OH251617   7.570   4.942  10.080 -0.0242 -0.1390 -0.7256
 9141TIP3    H151618   7.530   5.019  10.120 -0.4256 -0.9422  0.4704
 9141TIP3    H251619   7.533   4.868  10.128  0.8039 -1.0525 -1.4545
 9142TIP3   OH251620   4.314   1.039  10.180 -0.2846 -0.3102 -0.1192
 9142TIP3    H151621   4.314   0.943  10.191  1.0125 -0.2611  0.5389
 9142TIP3    H251622   4.364   1.071  10.255 -0.3815  0.8636 -0.5404
 9143TIP3   OH251623   4.600   7.192  12.149 -0.2964  0.7775 -0.0774
 9143TIP3    H151624   4.627   7.249  12.077 -2.3819  1.6330 -0.2356
 9143TIP3    H251625   4.543   7.127  12.107  0.4181 -0.2213  0.4440
 9144TIP3   OH251626   0.806   4.639  10.388 -0.0202  0.6458 -0.0508
 9144TIP3    H151627   0.854   4.705  10.438 -0.6094 -0.0462  1.4746
 9144TIP3    H251628   0.872   4.575  10.362  0.3124  1.0852 -0.2977
 9145TIP3   OH251629   5.252   5.778  12.401  0.3071 -0.7433  0.6444
 9145TIP3    H151630   5.227   5.864  12.435 -0.0075 -0.7560  0.4505
 9145TIP3    H251631   5.293   5.796  12.317 -0.0868 -0.8070  0.4362
 9146TIP3   OH251632   6.428   0.973  10.887 -0.0497 -0.2616  0.6186
 9146TIP3    H151633   6.490   1.040  10.857  0.4477 -0.4923  1.1220
 9146TIP3    H251634   6.433   0.904  10.820 -2.3504  1.2142 -1.2260
 9147TIP3   OH251635   3.209   2.613  12.396  0.2680  0.2239  0.3271
 9147TIP3    H151636   3.229   2.520  12.404  1.4250  0.5801  2.9266
 9147TIP3    H251637   3.133   2.626  12.454  0.8689  1.0424  0.9676
 9148TIP3   OH251638   1.643   6.592  11.573 -0.7279 -0.3608 -0.5471
 9148TIP3    H151639   1.572   6.614  11.513  0.1673 -0.1038 -1.5391
 9148TIP3    H251640   1.598   6.568  11.654 -1.9207  0.4254 -0.9386
 9149TIP3   OH251641   3.845   5.051   9.760 -0.0592 -0.1140  0.1831
 9149TIP3    H151642   3.895   5.009   9.830  0.0162  0.4972  0.5098
 9149TIP3    H251643   3.897   5.038   9.681 -0.6473 -1.7268  0.0180
 9150TIP3   OH251644   1.711   3.911  11.406 -0.1282 -0.3254  0.0832
 9150TIP3    H151645   1.665   3.937  11.326  2.4087 -0.8604 -1.6966
 9150TIP3    H251646   1.695   3.983  11.467 -2.3992 -0.0417 -0.7422
 9151TIP3   OH251647   2.097   5.806  10.071  0.2691  0.2444  1.1928
 9151TIP3    H151648   2.033   5.865  10.111  0.2163  1.4315 -0.5283
 9151TIP3    H251649   2.056   5.720  10.074 -1.5119  0.9990  0.0305
 9152TIP3   OH251650   3.902   1.587  11.592  0.0379 -1.1967  0.6487
 9152TIP3    H151651   3.811   1.566  11.569 -0.1456  0.4715 -0.3163
 9152TIP3    H251652   3.896   1.637  11.673 -0.2311  1.4588 -0.9150
 9153TIP3   OH251653   5.340   7.021  10.554  0.0336  0.2618 -0.0846
 9153TIP3    H151654   5.338   7.114  10.578 -0.9868  0.8618 -2.2583
 9153TIP3    H251655   5.337   7.020  10.459 -0.0549 -2.0277 -0.1274
 9154TIP3   OH251656   4.852   4.110  11.226 -0.0195  0.8615 -0.1256
 9154TIP3    H151657   4.783   4.120  11.160 -2.1138 -1.3560  1.5446
 9154TIP3    H251658   4.858   4.196  11.268 -0.5177  1.5721 -1.4592
 9155TIP3   OH251659   7.460   0.731  11.427 -0.0399 -0.0517  0.3753
 9155TIP3    H151660   7.369   0.759  11.417  0.1207  0.2602 -0.2404
 9155TIP3    H251661   7.497   0.794  11.490 -0.8820 -1.6542  2.6295
 9156TIP3   OH251662   4.966   3.535  10.660  0.2657  0.0467 -0.0225
 9156TIP3    H151663   5.001   3.624  10.669  0.6889  0.0537 -1.4389
 9156TIP3    H251664   4.892   3.532  10.720  0.2738  1.3502  0.0796
 9157TIP3   OH251665   5.271   6.700  12.022  0.5734 -0.0659 -0.5070
 9157TIP3    H151666   5.283   6.605  12.013  0.1729 -0.2139  0.4410
 9157TIP3    H251667   5.359   6.733  12.042  0.6877 -0.2483 -0.7025
 9158TIP3   OH251668   1.343   4.261  11.745 -0.4587  0.1151 -0.1078
 9158TIP3    H151669   1.407   4.287  11.679 -0.8141  1.8562  0.1771
 9158TIP3    H251670   1.389   4.195  11.798  0.0053 -0.9321 -1.7301
 9159TIP3   OH251671   1.862   5.175  10.400 -0.1018 -0.3490  0.0704
 9159TIP3    H151672   1.898   5.131  10.477  0.7135  1.6184  0.8781
 9159TIP3    H251673   1.880   5.115  10.328  1.1782 -1.2328  1.0702
 9160TIP3   OH251674   3.075   5.950  12.356 -0.2419 -0.4203  0.7121
 9160TIP3    H151675   3.054   5.962  12.449 -0.3861 -1.6067  0.8511
 9160TIP3    H251676   3.016   6.010  12.310 -0.2733  0.0677  1.3810
 9161TIP3   OH251677   4.012   4.530  11.695  0.6208 -0.9480  0.0568
 9161TIP3    H151678   4.100   4.510  11.664  1.1806  2.3790 -0.8865
 9161TIP3    H251679   4.024   4.559  11.786  1.3035  3.2512 -1.1526
 9162TIP3   OH251680   1.815   0.305  12.216  0.1084 -0.3937 -0.4447
 9162TIP3    H151681   1.779   0.382  12.171  0.6474 -0.3607 -0.8263
 9162TIP3    H251682   1.740   0.267  12.262  0.2019  1.6021  1.5610
 9163TIP3   OH251683   2.802   0.100  11.472  0.8659  0.2180 -0.2874
 9163TIP3    H151684   2.820   0.040  11.545 -0.0874  0.6719  0.3455
 9163TIP3    H251685   2.726   0.151  11.501  0.0414 -0.0414 -1.8736
 9164TIP3   OH251686   1.439   7.195  11.337  0.7428 -0.6160 -1.0461
 9164TIP3    H151687   1.471   7.236  11.417 -0.9995 -2.0487  0.4588
 9164TIP3    H251688   1.376   7.259  11.301 -0.1855 -0.9163  0.0003
 9165TIP3   OH251689   2.661   2.018  10.269  0.0236  0.1698 -0.1070
 9165TIP3    H151690   2.661   2.086  10.337 -1.2475 -0.5287  0.6302
 9165TIP3    H251691   2.653   2.067  10.187 -2.2563  0.9242  0.4800
 9166TIP3   OH251692   6.686   2.501  10.985  0.4548 -0.4536  0.3113
 9166TIP3    H151693   6.662   2.453  10.905 -0.0971 -2.2989  1.5187
 9166TIP3    H251694   6.777   2.525  10.972  0.5168 -1.1734 -0.6752
 9167TIP3   OH251695   1.662   6.551   9.778 -0.2422 -0.0280 -0.6353
 9167TIP3    H151696   1.625   6.471   9.740 -1.4041 -0.0258  0.4355
 9167TIP3    H251697   1.743   6.522   9.821  0.1914 -0.3256 -1.6219
 9168TIP3   OH251698   5.854   7.332  10.863  0.3820  0.2936  0.1574
 9168TIP3    H151699   5.855   7.381  10.781  1.3144 -0.1523 -0.1050
 9168TIP3    H251700   5.925   7.269  10.854  1.6341  1.3838  2.0280
 9169TIP3   OH251701   2.310   2.367   9.679 -0.8742  0.1986 -0.0330
 9169TIP3    H151702   2.335   2.445   9.629  0.2083 -0.4166 -0.5009
 9169TIP3    H251703   2.394   2.332   9.710 -1.1052 -1.9138 -1.5727
 9170TIP3   OH251704   1.809   0.275  10.644  0.0731 -0.1418  0.5628
 9170TIP3    H151705   1.733   0.262  10.587  0.2867  0.1193  0.2138
 9170TIP3    H251706   1.841   0.186  10.661 -0.7199 -0.3013  1.2896
 9171TIP3   OH251707   2.654   4.882  10.798  0.2315 -0.2968  0.0415
 9171TIP3    H151708   2.605   4.962  10.780 -0.4415 -0.7362 -0.0939
 9171TIP3    H251709   2.743   4.912  10.818  0.2406  0.4095 -1.0356
 9172TIP3   OH251710   2.220   6.671   9.921 -0.2674  0.2319  0.2198
 9172TIP3    H151711   2.154   6.689   9.854 -0.1568  0.4809  0.1758
 9172TIP3    H251712   2.274   6.602   9.882  0.9921  1.7079 -0.7989
 9173TIP3   OH251713   0.665   6.235  12.408  0.2413 -0.1705 -0.5954
 9173TIP3    H151714   0.721   6.312  12.398 -1.8149  1.7305  1.4473
 9173TIP3    H251715   0.707   6.183  12.476  0.0208  0.8065  0.3134
 9174TIP3   OH251716   3.468   2.562   9.990 -0.1101  0.0229 -0.2066
 9174TIP3    H151717   3.464   2.560  10.086 -0.1598 -1.6986 -0.2010
 9174TIP3    H251718   3.482   2.654   9.968 -0.0000  0.4385  1.4526
 9175TIP3   OH251719   7.077   0.546  12.274 -0.0686 -0.2070 -0.3738
 9175TIP3    H151720   7.123   0.621  12.236  0.6248 -0.4595 -0.0436
 9175TIP3    H251721   6.988   0.553  12.240 -0.5085  1.7392  1.0149
 9176TIP3   OH251722   6.389   6.886  12.338 -0.2811  0.2325 -0.2733
 9176TIP3    H151723   6.391   6.979  12.318  0.1472  0.2902  0.0225
 9176TIP3    H251724   6.458   6.874  12.404 -1.2466 -0.0381  0.7232
 9177TIP3   OH251725   3.546   5.022  11.333  0.2996  0.0485  0.2622
 9177TIP3    H151726   3.638   5.032  11.354  0.7351  0.2044 -1.5375
 9177TIP3    H251727   3.514   5.111  11.320 -0.3835  0.0621  1.8888
 9178TIP3   OH251728   7.259   7.445  10.237 -0.1543 -0.0358 -0.9228
 9178TIP3    H151729   7.286   7.360  10.203  1.4386  0.1240 -0.1376
 9178TIP3    H251730   7.304   7.453  10.321  0.3130  1.8833 -1.2948
 9179TIP3   OH251731   2.228   7.275  11.622 -0.5487 -0.1696  0.7463
 9179TIP3    H151732   2.160   7.302  11.560 -0.4353  0.6121  0.9452
 9179TIP3    H251733   2.253   7.357  11.666  2.0372 -0.0545 -0.7703
 9180TIP3   OH251734   1.384   3.095  11.333  0.1887  0.2223  0.1357
 9180TIP3    H151735   1.429   3.048  11.404 -0.0522  1.9516  1.5040
 9180TIP3    H251736   1.291   3.085  11.353  0.1234  0.8047  0.1307
 9181TIP3   OH251737   7.120   2.257  11.354  0.2176  0.2338  0.5316
 9181TIP3    H151738   7.145   2.317  11.424  0.9561  1.8317 -1.0085
 9181TIP3    H251739   7.200   2.208  11.335  0.0063 -0.2314  0.8595
 9182TIP3   OH251740   7.195   5.254  10.007 -0.0464 -0.1569  0.1147
 9182TIP3    H151741   7.151   5.273  10.090  0.0143  2.4076 -0.3472
 9182TIP3    H251742   7.124   5.233   9.947 -0.0837 -2.1450  0.7875
 9183TIP3   OH251743   6.705   3.235  12.235 -0.1387  0.3717  0.0146
 9183TIP3    H151744   6.643   3.245  12.162 -0.9964  0.0752  0.6831
 9183TIP3    H251745   6.765   3.309  12.225 -1.7881  1.8438  0.4613
 9184TIP3   OH251746   4.694   5.589  10.532 -0.1695 -0.1588 -0.1104
 9184TIP3    H151747   4.775   5.595  10.482  0.2036  1.6672  0.6386
 9184TIP3    H251748   4.702   5.656  10.600 -1.9593 -0.4894  0.4905
 9185TIP3   OH251749   5.681   6.638  11.838  0.4539 -0.7250 -0.1598
 9185TIP3    H151750   5.666   6.709  11.901  0.8046  0.0632 -0.9417
 9185TIP3    H251751   5.604   6.582  11.846  0.7333 -0.9150  1.3256
 9186TIP3   OH251752   0.144   2.942  11.559  0.1508 -0.4336  0.1179
 9186TIP3    H151753   0.180   3.011  11.614 -0.1835 -0.8638  0.9049
 9186TIP3    H251754   0.220   2.889  11.534  0.2532 -0.4979  0.5568
 9187TIP3   OH251755   6.943   6.497  11.410  0.0731  0.4453 -0.1271
 9187TIP3    H151756   6.905   6.528  11.492 -0.3252 -1.2618  0.3722
 9187TIP3    H251757   7.037   6.513  11.419  0.1268 -0.3751  0.9947
 9188TIP3   OH251758   5.601   5.105  10.490  0.2156 -0.4800 -0.1869
 9188TIP3    H151759   5.611   5.187  10.539  0.4740 -1.3155  1.1901
 9188TIP3    H251760   5.508   5.102  10.467  0.3649  0.6247 -1.0642
 9189TIP3   OH251761   6.010   0.104   9.928  0.2911 -0.1197  0.0530
 9189TIP3    H151762   6.013   0.092  10.023  0.1617  0.6852  0.1671
 9189TIP3    H251763   5.934   0.159   9.913  0.2789 -0.2880 -0.5294
 9190TIP3   OH251764   0.812   4.227  10.954  0.2693  0.4297  0.4112
 9190TIP3    H151765   0.743   4.290  10.974 -1.3147 -0.9516 -0.4581
 9190TIP3    H251766   0.858   4.265  10.879  0.2438  1.1916  0.7666
 9191TIP3   OH251767   4.713   0.312   9.954  0.9489 -0.2145 -0.2692
 9191TIP3    H151768   4.680   0.243  10.012 -0.7972  1.5206  0.9039
 9191TIP3    H251769   4.635   0.346   9.910  1.8626  0.6212 -1.3042
 9192TIP3   OH251770   7.310   7.668  10.898  0.0174 -0.3066  0.3791
 9192TIP3    H151771   7.276   7.697  10.813  1.9168  3.2482  0.6381
 9192TIP3    H251772   7.366   7.594  10.878  0.3821  0.4278 -1.4817
 9193TIP3   OH251773   3.875   6.327  11.563 -0.0749  0.3525 -0.5604
 9193TIP3    H151774   3.786   6.307  11.533  0.5597 -2.1088 -1.0768
 9193TIP3    H251775   3.863   6.365  11.649 -1.6372 -1.3336  0.0385
 9194TIP3   OH251776   2.701   4.987   9.946  0.5287  0.4650 -0.0228
 9194TIP3    H151777   2.745   5.018   9.867  1.3015  0.2978  0.3249
 9194TIP3    H251778   2.773   4.958  10.003 -0.0613 -0.2561  0.3806
 9195TIP3   OH251779   6.189   6.405  12.849  0.3119  0.3279 -0.0729
 9195TIP3    H151780   6.110   6.443  12.887  0.0813 -0.9622  0.7990
 9195TIP3    H251781   6.176   6.411  12.754  0.2753  2.3286  0.0079
 9196TIP3   OH251782   5.136   0.362  11.399 -0.1396 -0.4241 -0.0664
 9196TIP3    H151783   5.206   0.367  11.465 -0.6770 -0.4683  0.5158
 9196TIP3    H251784   5.074   0.299  11.435  0.2149 -1.4890 -1.2685
 9197TIP3   OH251785   1.334   3.561  11.078 -0.2279 -0.4673 -0.6454
 9197TIP3    H151786   1.357   3.607  10.997 -1.5452  1.1546 -0.1620
 9197TIP3    H251787   1.353   3.625  11.147 -0.8440 -1.1484  0.1724
 9198TIP3   OH251788   3.777   3.533  11.637 -0.2090  0.2429 -0.0178
 9198TIP3    H151789   3.818   3.523  11.551  0.2913 -0.3511  0.2742
 9198TIP3    H251790   3.687   3.556  11.618  0.1575  1.1731 -0.6848
 9199TIP3   OH251791   0.999   5.765  12.280 -0.0155 -0.7201  0.1916
 9199TIP3    H151792   1.078   5.819  12.291  0.8995 -1.4899 -1.9271
 9199TIP3    H251793   0.928   5.828  12.267  1.2331  0.1785 -3.5976
 9200TIP3   OH251794   3.939   5.854  11.114 -0.4097 -0.0110 -0.0388
 9200TIP3    H151795   3.996   5.810  11.177 -0.5751  0.1126  0.2012
 9200TIP3    H251796   3.901   5.782  11.063 -2.2431 -0.3665  1.6630
 9201TIP3   OH251797   1.610   7.554  10.477  0.1098 -0.2784  0.1395
 9201TIP3    H151798   1.633   7.568  10.385 -1.1620 -0.9232 -0.3053
 9201TIP3    H251799   1.531   7.606  10.489 -0.3283 -1.0322  0.5655
 9202TIP3   OH251800   2.245   5.742  11.539 -0.1173 -0.0340 -0.2337
 9202TIP3    H151801   2.266   5.710  11.626  0.1540  2.9998  0.9243
 9202TIP3    H251802   2.198   5.669  11.497  0.7265 -1.9663  2.0016
 9203TIP3   OH251803   0.305   4.449   9.992  0.3616 -0.1453 -0.2478
 9203TIP3    H151804   0.232   4.462   9.931 -1.5017 -2.1360  1.3590
 9203TIP3    H251805   0.275   4.488  10.074  2.0281  0.8320 -0.0674
 9204TIP3   OH251806   1.816   3.626  11.972  0.2553  0.5345 -0.1110
 9204TIP3    H151807   1.788   3.713  11.944  0.5788  0.4796 -0.6427
 9204TIP3    H251808   1.831   3.579  11.890 -0.7039 -0.2854  0.1718
 9205TIP3   OH251809   6.368   6.198  10.830 -0.2212  0.6787  0.0239
 9205TIP3    H151810   6.391   6.214  10.922 -0.4590  0.5268  0.1108
 9205TIP3    H251811   6.362   6.103  10.824  0.4765  0.6536 -0.3153
 9206TIP3   OH251812   3.451   5.236  12.540  0.0298 -0.0113  0.0251
 9206TIP3    H151813   3.438   5.304  12.474 -2.0013  1.5062  1.8107
 9206TIP3    H251814   3.441   5.282  12.623  0.9288 -2.1092  1.3720
 9207TIP3   OH251815   2.002   0.359   9.933 -0.1124  0.3794 -0.3479
 9207TIP3    H151816   2.009   0.447   9.970  2.3209  0.6406 -1.2563
 9207TIP3    H251817   2.004   0.372   9.838  0.6821 -0.6395 -0.4937
 9208TIP3   OH251818   2.929   3.292  10.912 -0.3361  0.1932  0.3138
 9208TIP3    H151819   2.863   3.358  10.933  0.2755  0.4894  1.3708
 9208TIP3    H251820   3.012   3.339  10.919  0.0929 -0.6540  0.9086
 9209TIP3   OH251821   6.964   0.844  11.759 -0.0633  0.1572  0.1598
 9209TIP3    H151822   6.881   0.881  11.731  0.7172  0.4479 -1.8998
 9209TIP3    H251823   6.997   0.906  11.824 -0.1382  1.5932 -1.1129
 9210TIP3   OH251824   4.325   3.858  10.665 -0.0866  0.1266 -0.1717
 9210TIP3    H151825   4.263   3.789  10.639 -0.5780  0.9082 -1.1506
 9210TIP3    H251826   4.370   3.881  10.584 -0.6732  1.6678 -0.1005
 9211TIP3   OH251827   4.012   1.564  12.210 -0.4984 -0.1847  0.5406
 9211TIP3    H151828   4.005   1.655  12.181 -0.6364  0.2975  2.0329
 9211TIP3    H251829   3.923   1.530  12.202 -0.3327 -0.4003 -0.6106
 9212TIP3   OH251830   0.074   1.765  10.985 -0.0351  0.0236 -0.1826
 9212TIP3    H151831   0.131   1.702  11.028 -0.6639 -1.9397 -2.0351
 9212TIP3    H251832  -0.000   1.714  10.954 -2.0969  2.2322  0.7943
 9213TIP3   OH251833   4.780   6.386  10.923 -0.3847 -0.4892 -0.5599
 9213TIP3    H151834   4.738   6.414  10.842  0.9949 -1.9053 -1.8381
 9213TIP3    H251835   4.870   6.367  10.898  1.2047  2.5411  2.0556
 9214TIP3   OH251836   3.061   4.387  11.521 -0.3596  0.0815  0.2719
 9214TIP3    H151837   3.084   4.314  11.579  0.2604  0.0227 -0.0414
 9214TIP3    H251838   2.965   4.390  11.524 -0.3355  1.1906  2.6842
 9215TIP3   OH251839   5.868   1.836  11.165  0.2366  0.0755  0.4352
 9215TIP3    H151840   5.922   1.891  11.108 -1.6615  1.0524 -0.5232
 9215TIP3    H251841   5.826   1.898  11.224 -0.6203 -0.5256  0.4673
 9216TIP3   OH251842   3.406   6.268  10.433  0.3045  0.4953  0.5490
 9216TIP3    H151843   3.442   6.329  10.497  0.7158 -0.7872  1.5802
 9216TIP3    H251844   3.373   6.195  10.485  0.2274 -0.3630 -0.6680
 9217TIP3   OH251845   7.550   1.085  11.334 -0.2445  0.2352  0.3063
 9217TIP3    H151846   7.515   1.033  11.407 -0.6883 -0.6076 -0.4999
 9217TIP3    H251847   7.644   1.069  11.336 -0.0660  1.2376  1.4782
 9218TIP3   OH251848   2.695   7.477  12.225  0.1690 -0.9130  0.1044
 9218TIP3    H151849   2.690   7.555  12.169 -0.1505 -0.8689  0.1945
 9218TIP3    H251850   2.759   7.421  12.182 -3.2543 -2.9483 -2.8836
 9219TIP3   OH251851   5.355   1.137  11.048  0.0451 -0.1163 -0.2473
 9219TIP3    H151852   5.278   1.088  11.020  1.2339 -1.7741 -0.7898
 9219TIP3    H251853   5.321   1.203  11.108 -1.9066 -0.0985 -1.2810
 9220TIP3   OH251854   6.057   5.251  10.542 -0.2191 -0.5583 -0.2080
 9220TIP3    H151855   6.132   5.203  10.506  0.0031 -0.3328 -0.0514
 9220TIP3    H251856   6.074   5.253  10.636 -0.4143 -0.4967 -0.1745
 9221TIP3   OH251857   7.260   3.091  10.451 -0.4829 -0.1361 -0.3322
 9221TIP3    H151858   7.269   3.004  10.489 -1.0588 -1.0019 -2.0601
 9221TIP3    H251859   7.320   3.146  10.502  0.1303 -1.6005  0.5910
 9222TIP3   OH251860   7.269   2.122  10.882  0.2884 -0.1652  0.0030
 9222TIP3    H151861   7.313   2.202  10.910 -0.6785  0.5785 -0.5268
 9222TIP3    H251862   7.297   2.110  10.791 -0.1888  0.0368 -0.1774
 9223TIP3   OH251863   4.778   6.812  10.142 -0.1591  0.0300 -0.0618
 9223TIP3    H151864   4.688   6.805  10.109  0.2846 -0.7534 -1.1696
 9223TIP3    H251865   4.777   6.890  10.198 -1.8064 -0.6297  0.8980
 9224TIP3   OH251866   6.072   4.503   9.983  0.3661 -0.3211 -0.3239
 9224TIP3    H151867   6.106   4.592   9.990  0.0386 -0.1847 -0.4824
 9224TIP3    H251868   6.082   4.481   9.890  0.0245 -0.2831 -0.3706
 9225TIP3   OH251869   4.370   4.774  11.346  0.2627  0.4381 -0.1300
 9225TIP3    H151870   4.426   4.792  11.271 -0.1648  0.7334 -0.3796
 9225TIP3    H251871   4.302   4.842  11.342 -0.8692 -0.6923 -0.5739
 9226TIP3   OH251872   0.608   0.689  11.885 -0.1650 -0.0975  0.6930
 9226TIP3    H151873   0.546   0.700  11.813  2.6522  2.2807 -1.6346
 9226TIP3    H251874   0.556   0.702  11.964 -2.6744  1.4789 -1.0705
 9227TIP3   OH251875   6.931   4.236  10.428 -0.0744  0.3081  0.5270
 9227TIP3    H151876   6.956   4.146  10.405  1.7229  1.0237 -0.5247
 9227TIP3    H251877   6.890   4.228  10.514  2.7113 -1.2133  1.8394
 9228TIP3   OH251878   6.386   2.293  10.022  0.1045 -0.3218  0.6113
 9228TIP3    H151879   6.362   2.276  10.113 -0.5583  2.2153  0.9785
 9228TIP3    H251880   6.304   2.318   9.979  0.1969 -2.5898 -1.0281
 9229TIP3   OH251881   1.975   5.899  11.588  0.0011 -0.7631 -0.0546
 9229TIP3    H151882   1.981   5.949  11.507 -0.8404  1.0590  0.9447
 9229TIP3    H251883   2.054   5.845  11.589 -0.0083 -0.8933 -2.0902
 9230TIP3   OH251884   7.067   0.023  11.040  0.3399  0.1904 -0.5567
 9230TIP3    H151885   7.010   0.062  10.973  0.6815 -0.0548 -0.9965
 9230TIP3    H251886   7.148   0.003  10.993  0.9371  0.9019  0.1497
 9231TIP3   OH251887   3.339   6.551  10.974  0.1026  0.2247  0.4301
 9231TIP3    H151888   3.280   6.616  11.012 -1.2571 -1.6546  1.7852
 9231TIP3    H251889   3.284   6.472  10.967  1.0286 -0.2588 -3.1443
 9232TIP3   OH251890   1.604   0.177  12.381 -0.8269  0.2085 -0.4599
 9232TIP3    H151891   1.555   0.115  12.434 -0.7749  0.9451  0.4796
 9232TIP3    H251892   1.671   0.211  12.441 -0.1790  0.3716 -1.2681
 9233TIP3   OH251893   1.657   5.950  10.770  0.5432 -0.3133  0.4994
 9233TIP3    H151894   1.670   5.941  10.675 -0.6443 -1.7159  0.4346
 9233TIP3    H251895   1.689   5.868  10.806 -3.2028 -1.8353  0.7950
 9234TIP3   OH251896   0.575   5.595   9.803 -0.8972  0.0839  0.2636
 9234TIP3    H151897   0.506   5.636   9.750 -0.3694 -0.3881 -0.8123
 9234TIP3    H251898   0.654   5.646   9.785 -0.6927 -0.1250  0.5491
 9235TIP3   OH251899   2.716   4.663  10.452 -0.0448  0.8038  0.2232
 9235TIP3    H151900   2.674   4.655  10.367  1.1487  1.5544 -0.4566
 9235TIP3    H251901   2.749   4.753  10.454 -2.7694  1.9245  2.7600
 9236TIP3   OH251902   4.151   5.170   9.996 -0.0845 -0.0497  0.1862
 9236TIP3    H151903   4.087   5.100   9.996  1.2369 -1.3616 -1.9343
 9236TIP3    H251904   4.236   5.126  10.007  0.7468  1.2231 -0.8042
 9237TIP3   OH251905   1.578   5.330  11.757 -0.4079 -0.2170  0.2021
 9237TIP3    H151906   1.590   5.414  11.714 -0.3562  1.1678  2.7534
 9237TIP3    H251907   1.666   5.303  11.783 -0.6983  0.4295  1.9640
 9238TIP3   OH251908   4.210   1.149  11.598  0.1779 -0.4449  0.0781
 9238TIP3    H151909   4.277   1.214  11.622  0.5940 -0.5789 -0.6827
 9238TIP3    H251910   4.138   1.202  11.564  0.3483 -0.3565 -0.1493
 9239TIP3   OH251911   4.065   4.746  11.158  0.0511  0.3002  0.3525
 9239TIP3    H151912   4.071   4.805  11.234 -0.2900  0.0742  0.5558
 9239TIP3    H251913   4.133   4.778  11.098  0.9454 -0.0638  1.1345
 9240TIP3   OH251914   7.591   2.840  11.860  0.3336  0.7147 -0.4200
 9240TIP3    H151915   7.539   2.839  11.940 -0.1527  1.1934 -0.7250
 9240TIP3    H251916   7.561   2.917  11.812  0.4355  0.2958 -1.1781
 9241TIP3   OH251917   0.422   0.208  11.480  0.1865 -0.4113  0.0701
 9241TIP3    H151918   0.437   0.273  11.548 -0.2858 -1.7157  1.4885
 9241TIP3    H251919   0.505   0.202  11.433  1.2105 -0.9256  1.8483
 9242TIP3   OH251920   2.303   0.862  10.867  0.2421 -0.1409  0.1268
 9242TIP3    H151921   2.280   0.809  10.791 -0.6159  0.9148 -0.3653
 9242TIP3    H251922   2.396   0.882  10.856 -0.1947  1.2193 -1.4354
 9243TIP3   OH251923   6.198   1.675  11.210  0.2756 -0.4254  0.1199
 9243TIP3    H151924   6.231   1.615  11.142 -1.5774 -1.7476  0.3026
 9243TIP3    H251925   6.117   1.710  11.173  0.5993  0.8727  0.6189
 9244TIP3   OH251926   3.023   0.483  10.135 -0.7775  0.5221  0.0965
 9244TIP3    H151927   3.105   0.448  10.101  0.4157  2.7116  0.5155
 9244TIP3    H251928   2.973   0.406  10.163  0.6199 -0.9343 -1.2559
 9245TIP3   OH251929   6.819   1.929  11.241  0.1943  0.0494 -0.0708
 9245TIP3    H151930   6.744   1.911  11.185  0.5355  2.2569 -1.3629
 9245TIP3    H251931   6.865   2.001  11.198  0.8518  1.4432  2.7120
 9246TIP3   OH251932   2.429   1.791  12.359 -0.5501  0.1769 -0.7340
 9246TIP3    H151933   2.418   1.741  12.440 -0.4983  2.2538  0.6103
 9246TIP3    H251934   2.345   1.834  12.345 -0.6686 -0.4203 -1.9984
 9247TIP3   OH251935   1.965   5.138  11.007  0.1789  0.3725 -0.0215
 9247TIP3    H151936   2.034   5.135  11.072  0.0483  0.5421  0.1265
 9247TIP3    H251937   1.913   5.059  11.022  1.4556 -0.7908 -1.3775
 9248TIP3   OH251938   1.469   4.363  10.715  0.8758  0.0736 -0.1556
 9248TIP3    H151939   1.468   4.306  10.638 -1.4407 -0.6591  0.3343
 9248TIP3    H251940   1.393   4.421  10.702  0.5761  0.0753  1.4431
 9249TIP3   OH251941   6.169   6.134   9.845  0.2264  0.8108 -0.9522
 9249TIP3    H151942   6.105   6.065   9.826  1.1246  0.1252 -1.5488
 9249TIP3    H251943   6.173   6.185   9.764  3.1599 -1.3947 -2.3789
 9250TIP3   OH251944   7.506   0.512  12.571 -0.2984 -0.7667  0.2731
 9250TIP3    H151945   7.460   0.457  12.508 -2.0772  0.9589 -0.0384
 9250TIP3    H251946   7.443   0.526  12.642  0.3008  0.3990  0.6055
 9251TIP3   OH251947   0.250   5.402  11.874 -0.0252  0.5555  0.7420
 9251TIP3    H151948   0.336   5.442  11.866  0.1408 -0.0338 -0.5640
 9251TIP3    H251949   0.267   5.311  11.900 -0.0720 -0.2406 -1.7274
 9252TIP3   OH251950   6.282   0.836  12.022 -0.0307 -0.6537  0.0944
 9252TIP3    H151951   6.348   0.817  11.955 -2.0028 -0.5455 -2.0087
 9252TIP3    H251952   6.267   0.930  12.015  0.4063 -0.4617  1.4015
 9253TIP3   OH251953   6.301   2.664  11.630  0.1066  0.7894 -0.0602
 9253TIP3    H151954   6.225   2.627  11.674  1.6632 -0.5811  1.6253
 9253TIP3    H251955   6.324   2.742  11.681 -0.4352  1.5324 -0.8987
 9254TIP3   OH251956   6.341   5.285  11.542  0.5511  0.3752 -0.1674
 9254TIP3    H151957   6.417   5.274  11.599 -0.4691 -0.0130  1.1714
 9254TIP3    H251958   6.278   5.219  11.572 -0.1083  0.2763 -1.6356
 9255TIP3   OH251959   6.546   7.347  11.505  0.8197 -0.1636  0.1046
 9255TIP3    H151960   6.485   7.308  11.443 -0.1420 -0.9630  1.5121
 9255TIP3    H251961   6.498   7.418  11.546  0.9913 -0.4926  0.8875
 9256TIP3   OH251962   0.721   1.115  10.057 -0.3699  0.0359  0.3794
 9256TIP3    H151963   0.723   1.211  10.058  0.5540  0.0238  0.0924
 9256TIP3    H251964   0.782   1.088  10.126  1.1205 -0.3372 -1.0212
 9257TIP3   OH251965   3.288   6.871  11.509  0.0458 -0.2773  0.1167
 9257TIP3    H151966   3.193   6.859  11.511  0.0856 -1.1389 -1.5120
 9257TIP3    H251967   3.301   6.964  11.524 -1.0898 -0.0603 -0.1436
 9258TIP3   OH251968   5.613   1.756  10.392 -0.0217  0.0977 -0.4261
 9258TIP3    H151969   5.676   1.828  10.391  0.5286 -0.3612  0.6055
 9258TIP3    H251970   5.629   1.710  10.474 -1.1545 -0.5165 -0.5255
 9259TIP3   OH251971   3.280   5.091  10.815 -0.2106 -0.5525  0.1423
 9259TIP3    H151972   3.266   5.132  10.900  1.0213 -1.6677  0.9329
 9259TIP3    H251973   3.282   4.997  10.834  0.1320 -0.8227 -1.1106
 9260TIP3   OH251974   4.310   6.399  11.216  0.0574 -0.0399  0.0773
 9260TIP3    H151975   4.378   6.465  11.220  0.6251 -0.6637  0.8759
 9260TIP3    H251976   4.316   6.352  11.299 -0.9721 -0.4703 -0.0731
 9261TIP3   OH251977   5.107   7.108  11.334  0.2088 -0.1989 -0.0835
 9261TIP3    H151978   5.130   7.190  11.291 -0.5069  0.5094  0.8298
 9261TIP3    H251979   5.177   7.094  11.398  0.3217 -0.2904 -0.2269
 9262TIP3   OH251980   4.187   2.855  11.633  0.0059 -0.1055 -0.2429
 9262TIP3    H151981   4.213   2.892  11.718 -0.9348 -0.6892  0.3303
 9262TIP3    H251982   4.140   2.926  11.590  1.4727  0.5679 -0.7853
 9263TIP3   OH251983   5.744   0.802  10.877 -0.2126 -0.1952 -0.0741
 9263TIP3    H151984   5.681   0.870  10.904  0.2182  0.2519 -0.1791
 9263TIP3    H251985   5.706   0.720  10.908 -1.3966 -0.0597 -1.0883
 9264TIP3   OH251986   6.759   3.956   9.908 -0.3418 -0.2552  0.6359
 9264TIP3    H151987   6.832   3.952   9.970 -1.2729  0.5247  1.8213
 9264TIP3    H251988   6.787   4.020   9.842  0.7388 -1.2441  0.0845
 9265TIP3   OH251989   3.879   6.642  12.564  0.4340  0.2146  0.2306
 9265TIP3    H151990   3.905   6.574  12.627 -0.4934 -1.5414 -1.1902
 9265TIP3    H251991   3.949   6.707  12.570  1.2163 -0.6922  1.8744
 9266TIP3   OH251992   3.146   6.359  11.043 -0.2400  0.0246 -0.3938
 9266TIP3    H151993   3.058   6.365  11.079 -0.1295 -2.5290  0.5144
 9266TIP3    H251994   3.134   6.321  10.956 -0.0623  0.0277 -0.4195
 9267TIP3   OH251995   3.981   6.248  12.009 -0.2098 -0.1945 -0.9250
 9267TIP3    H151996   4.013   6.249  11.919 -0.7197  0.4394 -1.1079
 9267TIP3    H251997   3.895   6.291  12.005 -1.5010 -2.5524 -0.5821
 9268TIP3   OH251998   0.349   4.260  12.229 -0.0980  0.0925 -0.3689
 9268TIP3    H151999   0.348   4.225  12.140  0.6374 -0.2651 -0.2423
 9268TIP3    H252000   0.258   4.284  12.246 -0.4355 -0.7905 -0.8407
 9269TIP3   OH252001   2.611   2.030  12.025 -0.1778  0.1375  0.3453
 9269TIP3    H152002   2.585   1.951  11.977  0.4701 -1.1066  1.9209
 9269TIP3    H252003   2.595   2.008  12.117 -1.6364  2.5329  0.7401
 9270TIP3   OH252004   5.697   4.844  10.119  0.0891 -0.8647 -0.6918
 9270TIP3    H152005   5.709   4.925  10.070  1.0013 -0.7572 -0.3181
 9270TIP3    H252006   5.752   4.780  10.072 -1.7172 -1.6552 -1.8337
 9271TIP3   OH252007   0.342   2.808  10.728  0.1552  0.5783  0.0509
 9271TIP3    H152008   0.325   2.826  10.821 -1.1589  0.7540 -0.2066
 9271TIP3    H252009   0.342   2.895  10.687 -1.5140  0.3723 -0.4509
 9272TIP3   OH252010   5.919   3.060  11.712  0.0906 -0.6089  0.0954
 9272TIP3    H152011   5.859   3.012  11.656 -0.4687  1.2878 -1.0151
 9272TIP3    H252012   5.865   3.090  11.785 -0.1220  0.3039 -0.4250
 9273TIP3   OH252013   5.047   0.163  11.215 -0.1698  0.3422 -0.2564
 9273TIP3    H152014   5.119   0.224  11.226 -2.1027  2.4579  1.4770
 9273TIP3    H252015   5.023   0.170  11.122  0.1414  1.6284 -0.2476
 9274TIP3   OH252016   5.129   4.782  11.601  0.0662 -0.2500  0.0340
 9274TIP3    H152017   5.195   4.731  11.647  0.1569  0.4825  0.7270
 9274TIP3    H252018   5.047   4.761  11.646 -0.3966 -1.9356 -1.4423
 9275TIP3   OH252019   0.786   0.383  10.382  0.3277 -0.2729  0.1703
 9275TIP3    H152020   0.797   0.331  10.462  2.3948 -1.8325 -1.0126
 9275TIP3    H252021   0.752   0.321  10.317  1.3127  0.2131 -0.8610
 9276TIP3   OH252022   1.338   5.136  11.250  0.7530  0.1242 -0.7414
 9276TIP3    H152023   1.286   5.177  11.318  0.9611  2.6620 -2.0153
 9276TIP3    H252024   1.429   5.152  11.275  0.9463 -1.7484 -0.0362
 9277TIP3   OH252025   3.094   2.183  10.194  0.3355  0.2854 -0.1278
 9277TIP3    H152026   3.064   2.236  10.120  2.2109  0.3699 -0.8893
 9277TIP3    H252027   3.155   2.239  10.241  0.0143 -0.1623  0.8467
 9278TIP3   OH252028   6.880   5.691  10.398  0.0188  0.4090  0.3821
 9278TIP3    H152029   6.787   5.670  10.412 -0.1150  1.7406  1.8475
 9278TIP3    H252030   6.881   5.786  10.381  1.0256  0.2272 -0.6583
 9279TIP3   OH252031   5.118   1.842  12.000 -0.4121  0.0321  0.0677
 9279TIP3    H152032   5.141   1.800  11.917 -1.3994  0.8740 -0.6567
 9279TIP3    H252033   5.060   1.778  12.043 -0.1522 -0.2737 -0.0297
 9280TIP3   OH252034   5.852   4.200  12.384  0.0612 -0.1290  0.4047
 9280TIP3    H152035   5.823   4.124  12.434  0.3227 -0.1894  0.4686
 9280TIP3    H252036   5.947   4.204  12.400 -0.0417  0.5753  0.9141
 9281TIP3   OH252037   1.064   5.064   9.981  0.3110  0.1800 -0.0560
 9281TIP3    H152038   0.992   5.029   9.928 -0.2227 -0.3427  0.9717
 9281TIP3    H252039   1.136   5.004   9.967  0.5173  0.6307 -0.9907
 9282TIP3   OH252040   3.442   1.123  11.168  0.0242  0.0540 -0.0551
 9282TIP3    H152041   3.369   1.179  11.195 -0.3806 -0.6363  0.3266
 9282TIP3    H252042   3.520   1.176  11.181 -0.2834  0.2277  1.1392
 9283TIP3   OH252043   0.420   3.596  10.882  0.5474 -0.2338  0.0046
 9283TIP3    H152044   0.492   3.563  10.829 -1.1806 -2.4810 -1.0964
 9283TIP3    H252045   0.440   3.566  10.971 -0.7185 -4.3055 -0.8575
 9284TIP3   OH252046   0.337   2.384  11.303 -0.0496  0.3051  0.0311
 9284TIP3    H152047   0.363   2.368  11.212  0.7145 -1.5227  0.5367
 9284TIP3    H252048   0.419   2.390  11.351 -0.4621 -0.5718  0.8783
 9285TIP3   OH252049   6.882   2.381  10.243 -0.7913  1.0663  0.5947
 9285TIP3    H152050   6.793   2.373  10.208 -1.0990  3.1829  0.7309
 9285TIP3    H252051   6.891   2.308  10.303 -1.2207 -1.1154 -1.8038
 9286TIP3   OH252052   7.631   7.213  10.097 -0.4835  0.5618 -0.2398
 9286TIP3    H152053   7.674   7.130  10.119  0.2728  0.5803 -1.5571
 9286TIP3    H252054   7.537   7.191  10.093 -0.5295  0.2580  1.4545
 9287TIP3   OH252055   0.981   1.235  11.352 -0.1299  0.4908  0.0156
 9287TIP3    H152056   0.950   1.277  11.433  1.2368  3.2001 -0.7514
 9287TIP3    H252057   1.071   1.265  11.343  0.9223 -2.5150 -0.8128
 9288TIP3   OH252058   1.259   3.615  10.077 -0.8764 -0.2823 -0.1631
 9288TIP3    H152059   1.265   3.632  10.171  0.5890  1.7942 -0.5723
 9288TIP3    H252060   1.303   3.689  10.036 -2.8561 -0.3203 -2.5798
 9289TIP3   OH252061   4.224   2.426  10.205 -0.1525  0.3852 -0.3010
 9289TIP3    H152062   4.284   2.453  10.135  0.1563  1.2792  0.2832
 9289TIP3    H252063   4.219   2.331  10.197  0.1775  0.4309 -1.2901
 9290TIP3   OH252064   2.384   5.437  11.397  0.0713  0.0644  0.1462
 9290TIP3    H152065   2.298   5.477  11.381 -0.4735 -1.0570  0.1573
 9290TIP3    H252066   2.394   5.439  11.492 -0.4832 -0.8595  0.2345
 9291TIP3   OH252067   6.950   6.697  12.880 -0.3327 -0.1718 -0.6878
 9291TIP3    H152068   7.005   6.759  12.928  0.0011 -0.5758 -0.5429
 9291TIP3    H252069   6.860   6.726  12.899 -0.1975 -0.1266 -0.0809
 9292TIP3   OH252070   5.936   2.158  11.373  0.0941 -0.3690  0.0053
 9292TIP3    H152071   5.973   2.070  11.389  2.2980  0.3577 -0.6743
 9292TIP3    H252072   5.983   2.214  11.435 -0.6896  0.4640 -0.1529
 9293TIP3   OH252073   7.106   0.214  12.288 -0.0725 -0.0692  0.6993
 9293TIP3    H152074   7.132   0.266  12.212 -0.0993 -0.3576  0.4947
 9293TIP3    H252075   7.120   0.123  12.262 -0.7389 -0.2013  0.7933
 9294TIP3   OH252076   1.673   4.501  10.047 -0.0252 -0.5928 -0.2768
 9294TIP3    H152077   1.724   4.577  10.019  0.5793 -1.4471 -1.5890
 9294TIP3    H252078   1.582   4.530  10.043  0.2640  0.7758  1.5532
 9295TIP3   OH252079   5.720   1.270  11.512 -0.0366 -0.0726 -0.1455
 9295TIP3    H152080   5.781   1.339  11.536  0.3361 -1.3510  3.1964
 9295TIP3    H252081   5.772   1.208  11.460  0.9658 -0.1143  0.8723
 9296TIP3   OH252082   0.801   5.426   9.747  0.2864  0.4014  0.1884
 9296TIP3    H152083   0.709   5.449   9.737 -0.0807 -1.2543 -0.5266
 9296TIP3    H252084   0.800   5.332   9.764  1.8105  0.4972  0.9715
 9297TIP3   OH252085   0.707   3.569  11.064  0.2491  0.1585 -0.3106
 9297TIP3    H152086   0.771   3.561  11.135  0.4814  0.1752 -0.5147
 9297TIP3    H252087   0.622   3.575  11.108  0.1928 -1.7598 -0.0622
 9298TIP3   OH252088   0.293   1.445  11.125 -0.1961 -0.3777  0.2078
 9298TIP3    H152089   0.330   1.534  11.131 -0.6687 -0.1259 -0.4585
 9298TIP3    H252090   0.199   1.457  11.140 -0.3339 -0.6926 -0.3597
 9299TIP3   OH252091   3.829   1.239  12.065  0.2528  0.0254  0.2376
 9299TIP3    H152092   3.780   1.301  12.120  0.5994  0.5826 -0.0687
 9299TIP3    H252093   3.789   1.154  12.083 -0.3048  0.3543  0.5874
 9300TIP3   OH252094   0.410   0.020  10.490 -0.0079  0.2781 -0.6010
 9300TIP3    H152095   0.440   0.027  10.400 -0.4553 -0.4643 -0.8157
 9300TIP3    H252096   0.388   0.110  10.516  1.0789  0.6360 -0.8850
 9301TIP3   OH252097   2.295   4.883  11.917 -0.4341  0.3685  0.4507
 9301TIP3    H152098   2.355   4.840  11.978 -0.2301  1.4157  1.0073
 9301TIP3    H252099   2.320   4.975  11.920 -1.6665  0.7196  0.2096
 9302TIP3   OH252100   4.947   7.639  10.341  0.4463 -0.6618  0.0216
 9302TIP3    H152101   4.931   7.727  10.308  0.3737 -0.0181  1.6918
 9302TIP3    H252102   4.883   7.628  10.412  0.8268 -1.8523  0.2018
 9303TIP3   OH252103   5.057   1.845  10.461  0.0046 -0.4818 -0.2733
 9303TIP3    H152104   5.038   1.936  10.482 -0.4864 -0.6423 -0.0031
 9303TIP3    H252105   5.118   1.817  10.529 -0.8933 -0.7424  0.4451
 9304TIP3   OH252106   0.773   6.577   9.827  0.3323 -0.2025  0.0160
 9304TIP3    H152107   0.744   6.569   9.736  0.9398 -0.4513 -0.1640
 9304TIP3    H252108   0.863   6.543   9.826  0.4778  0.1561  0.6361
 9305TIP3   OH252109   0.460   5.380  11.634  0.8563  0.0646 -0.0433
 9305TIP3    H152110   0.515   5.408  11.561  2.3462  0.7534  1.2749
 9305TIP3    H252111   0.522   5.365  11.706 -0.6170  0.2006  1.3117
 9306TIP3   OH252112   3.652   7.252  11.177  0.0339  0.2986  0.1322
 9306TIP3    H152113   3.680   7.163  11.154  0.9102  0.9080 -1.2368
 9306TIP3    H252114   3.655   7.253  11.273  0.6171 -0.9561  0.1523
 9307TIP3   OH252115   1.336   4.781  10.785  0.0665  0.3151  0.0866
 9307TIP3    H152116   1.274   4.848  10.757  1.2879  2.1480  1.5118
 9307TIP3    H252117   1.391   4.825  10.850  0.9530 -2.0782  1.0764
 9308TIP3   OH252118   1.505   0.360  11.725 -0.0187 -0.2643  0.1086
 9308TIP3    H152119   1.460   0.300  11.666 -0.5176  0.7146 -0.5480
 9308TIP3    H252120   1.513   0.441  11.674  0.5266  0.2538  1.0023
 9309TIP3   OH252121   3.264   2.307  11.919  0.5348  0.5621 -0.1592
 9309TIP3    H152122   3.311   2.351  11.990 -1.2831 -0.8233  2.0691
 9309TIP3    H252123   3.223   2.378  11.870  0.6407  1.5250  1.0862
 9310TIP3   OH252124   2.716   3.604  12.081 -0.5768 -0.1764 -0.3081
 9310TIP3    H152125   2.714   3.556  11.999 -0.4870  1.2824 -1.2151
 9310TIP3    H252126   2.689   3.541  12.147  0.1285 -1.6033 -1.3418
 9311TIP3   OH252127   1.513   0.066  10.054 -0.9415 -0.3491 -0.4497
 9311TIP3    H152128   1.438   0.073   9.995 -0.9811 -0.1699 -0.3769
 9311TIP3    H252129   1.588   0.094  10.002 -1.0028 -0.0149 -0.3611
 9312TIP3   OH252130   2.791   4.116  11.836 -0.7368  0.2460  0.0260
 9312TIP3    H152131   2.866   4.170  11.863  0.0657 -1.6554  1.9668
 9312TIP3    H252132   2.817   4.081  11.751  0.5769 -0.2825  0.6095
 9313TIP3   OH252133   0.721   0.058  12.094  0.1720 -0.4474  0.2410
 9313TIP3    H152134   0.770   0.064  12.177  0.6523 -0.2420 -0.0544
 9313TIP3    H252135   0.788   0.039  12.028  0.3196  2.7932 -0.6719
 9314TIP3   OH252136   0.992   5.324  12.525  0.3661  0.0935 -0.1191
 9314TIP3    H152137   0.961   5.408  12.559  1.4174  1.1959 -1.7654
 9314TIP3    H252138   1.076   5.310  12.569 -0.9118 -1.4079  2.0516
 9315TIP3   OH252139   4.575   5.200  11.744  0.0679  0.1989 -0.1474
 9315TIP3    H152140   4.565   5.105  11.749  2.5125 -0.0977  0.0151
 9315TIP3    H252141   4.557   5.231  11.833  2.2531 -0.5031  0.6040
 9316TIP3   OH252142   6.387   3.918  10.553  0.7233  0.0928  0.1033
 9316TIP3    H152143   6.428   3.910  10.467 -0.2753  2.0227 -0.6062
 9316TIP3    H252144   6.431   3.992  10.595  0.5332 -0.2083  0.8569
 9317TIP3   OH252145   2.749   5.407  11.172 -0.0290 -0.7664  0.0610
 9317TIP3    H152146   2.688   5.476  11.199  0.2208  0.0435 -1.3234
 9317TIP3    H252147   2.694   5.329  11.161 -0.0779 -1.3052  3.2105
 9318TIP3   OH252148   5.719   6.990   9.919  0.0285 -0.0909 -0.1063
 9318TIP3    H152149   5.747   7.057   9.856 -0.9002  0.8890  0.4931
 9318TIP3    H252150   5.635   6.959   9.886 -1.3506  1.6891  1.4917
 9319TIP3   OH252151   4.862   6.663  11.039  0.2133  0.2197 -0.5973
 9319TIP3    H152152   4.864   6.699  11.127  0.5034  1.1168 -0.9665
 9319TIP3    H252153   4.852   6.568  11.052  1.7455  0.1710  0.4357
 9320TIP3   OH252154   5.521   5.322  11.268  0.2788  0.3188 -0.2670
 9320TIP3    H152155   5.562   5.334  11.354 -1.6023 -0.5662  0.8186
 9320TIP3    H252156   5.566   5.246  11.231  0.3430 -0.0010  0.4450
 9321TIP3   OH252157   1.684   4.287  12.754  0.5130 -0.2525 -0.3418
 9321TIP3    H152158   1.682   4.284  12.659 -0.1807  2.1767 -0.4586
 9321TIP3    H252159   1.592   4.284  12.781  0.7136 -1.4204  0.3190
 9322TIP3   OH252160   0.782   2.426  10.179  0.1421 -0.1808 -0.4473
 9322TIP3    H152161   0.834   2.493  10.224  0.1442 -1.2659  1.2571
 9322TIP3    H252162   0.702   2.471  10.153  0.3048  0.5810  0.3231
 9323TIP3   OH252163   6.643   6.534  10.064 -0.1014 -0.1643 -0.0001
 9323TIP3    H152164   6.632   6.547  10.158  0.2234 -1.4022  0.2239
 9323TIP3    H252165   6.625   6.441  10.050  3.2469 -0.8517 -0.6056
 9324TIP3   OH252166   4.925   3.715  10.360  0.4186  0.0186 -0.7938
 9324TIP3    H152167   4.905   3.652  10.291 -0.9106  1.8542 -2.1847
 9324TIP3    H252168   4.840   3.754  10.382  1.0056  0.3871  0.9814
 9325TIP3   OH252169   3.091   6.948  11.979 -0.4884  0.3854 -0.1328
 9325TIP3    H152170   3.016   6.891  11.991 -0.8390  0.8699  0.0298
 9325TIP3    H252171   3.060   7.017  11.920 -0.3218  0.8442  0.2986
 9326TIP3   OH252172   6.133   0.829  10.224  0.0042  0.3826 -0.3225
 9326TIP3    H152173   6.047   0.868  10.243  0.6567  0.4564  3.0168
 9326TIP3    H252174   6.167   0.802  10.309  2.8161 -0.7607 -1.6759
 9327TIP3   OH252175   0.696   7.084  10.330 -0.3436 -0.6071  0.4451
 9327TIP3    H152176   0.754   7.043  10.265 -0.5583  0.8035 -0.7048
 9327TIP3    H252177   0.750   7.092  10.408  0.2138 -1.5661  0.1718
 9328TIP3   OH252178   6.202   0.650  12.770 -0.4357 -0.6255 -0.0082
 9328TIP3    H152179   6.180   0.740  12.745  1.7681  0.3536  1.3374
 9328TIP3    H252180   6.134   0.626  12.834 -0.1493  0.6864  0.8160
 9329TIP3   OH252181   4.416   5.065  10.019 -0.1110  0.2166 -0.4250
 9329TIP3    H152182   4.391   5.051  10.110 -0.5731 -2.8505 -0.9144
 9329TIP3    H252183   4.426   4.977   9.983 -0.5477  1.2970 -3.5042
 9330TIP3   OH252184   6.584   6.271  10.133  0.5653  0.6483  0.3433
 9330TIP3    H152185   6.512   6.234  10.082  0.1055  2.7177 -0.5795
 9330TIP3    H252186   6.564   6.247  10.224 -0.8478  0.4894  0.0079
 9331TIP3   OH252187   4.332   6.674  10.993 -0.7083  0.4663  0.5588
 9331TIP3    H152188   4.293   6.652  10.909 -0.6528  0.4464  0.5379
 9331TIP3    H252189   4.327   6.770  10.998 -4.3415  0.3256  2.2712
 9332TIP3   OH252190   5.202   3.642  10.335  0.1204 -0.5442  0.9495
 9332TIP3    H152191   5.237   3.723  10.372  0.4235 -0.7733  1.1581
 9332TIP3    H252192   5.107   3.652  10.343  0.1117  0.2052  0.1159
 9333TIP3   OH252193   2.560   5.197  11.101 -0.7741  0.5725  0.3411
 9333TIP3    H152194   2.579   5.187  11.008  1.0423  1.4934  0.5672
 9333TIP3    H252195   2.563   5.109  11.137  1.1707  0.4569 -0.0387
 9334TIP3   OH252196   6.246   3.456  10.719  0.2240  0.7858 -0.3402
 9334TIP3    H152197   6.272   3.371  10.756 -1.0656  1.2466  1.8447
 9334TIP3    H252198   6.211   3.504  10.794  0.9284  3.2786 -1.5306
 9335TIP3   OH252199   4.719   4.210  10.189  0.0042  0.3389  0.1689
 9335TIP3    H152200   4.715   4.191  10.095 -2.4897  0.6913  0.1495
 9335TIP3    H252201   4.658   4.282  10.202 -0.1692 -0.1053  2.1575
 9336TIP3   OH252202   6.159   5.431  10.128  0.1115 -0.5513  0.7724
 9336TIP3    H152203   6.148   5.348  10.082 -1.1230  0.3833 -0.6766
 9336TIP3    H252204   6.147   5.498  10.061  0.3034  0.8203  2.0623
 9337TIP3   OH252205   2.485   5.493  11.081  0.1307 -0.7897  0.0524
 9337TIP3    H152206   2.541   5.534  11.015  1.0871 -0.6125  0.9417
 9337TIP3    H252207   2.500   5.399  11.069  1.7810 -0.7276  1.1929
 9338TIP3   OH252208   1.025   7.195  11.238  0.4116  0.1931  0.0897
 9338TIP3    H152209   1.116   7.223  11.223 -0.4026  1.9331 -2.0648
 9338TIP3    H252210   0.974   7.275  11.230 -1.4227 -0.8686  0.5881
 9339TIP3   OH252211   7.024   3.372   9.748 -0.9992  0.5242 -0.5412
 9339TIP3    H152212   7.064   3.410   9.671 -1.8603  2.3221 -0.1533
 9339TIP3    H252213   7.047   3.432   9.819  0.8691 -1.7408  0.9382
 9340TIP3   OH252214   0.580   3.390  11.776  0.2669 -0.3198 -0.0624
 9340TIP3    H152215   0.656   3.448  11.767 -0.6652  1.0231  0.3437
 9340TIP3    H252216   0.581   3.362  11.867 -0.8125  1.3358  0.5022
 9341TIP3   OH252217   0.012   3.382  10.024  0.6860 -0.1580 -0.0691
 9341TIP3    H152218   0.038   3.473  10.010  0.2504  0.1172  0.8450
 9341TIP3    H252219   0.070   3.331   9.966 -0.3354  0.8049 -2.0375
 9342TIP3   OH252220   3.215   0.794  11.922 -0.1208  0.2129  0.5257
 9342TIP3    H152221   3.185   0.742  11.997 -0.6644 -1.1807 -0.6128
 9342TIP3    H252222   3.246   0.729  11.859 -1.4010  1.2096 -1.2254
 9343TIP3   OH252223   6.502   1.688  11.261  0.2787 -0.0400  0.0996
 9343TIP3    H152224   6.555   1.759  11.299 -0.7243  0.7958 -0.0248
 9343TIP3    H252225   6.417   1.727  11.246 -0.1554 -1.1523 -0.4441
 9344TIP3   OH252226   7.141   1.661  10.707 -0.4068  0.2549  0.2374
 9344TIP3    H152227   7.150   1.745  10.753 -0.6919  1.8999 -2.4832
 9344TIP3    H252228   7.225   1.650  10.662 -0.7576 -0.3564 -0.2806
 9345TIP3   OH252229   4.164   5.814  10.816 -0.1511  0.1013  0.3724
 9345TIP3    H152230   4.107   5.737  10.813 -0.5579  0.4025  0.3584
 9345TIP3    H252231   4.224   5.797  10.889 -1.0413  0.3255  1.1799
 9346TIP3   OH252232   4.752   6.365   9.540  0.2568 -0.0636  0.3841
 9346TIP3    H152233   4.723   6.275   9.554  1.3120 -1.0149 -2.7819
 9346TIP3    H252234   4.819   6.379   9.606  2.6226 -2.9415 -1.1840
 9347TIP3   OH252235   1.795   1.973  11.941 -0.1853  0.5278  0.5223
 9347TIP3    H152236   1.882   1.952  11.905 -1.8480 -1.1826 -2.9385
 9347TIP3    H252237   1.777   1.902  12.003 -0.1118 -0.5435 -0.6568
 9348TIP3   OH252238   1.726   7.639  12.987 -0.1162 -0.0553 -0.9576
 9348TIP3    H152239   1.649   7.606  12.941 -1.7513  2.4246 -0.1943
 9348TIP3    H252240   1.722   7.597  13.073 -1.5042  1.0843 -0.4138
 9349TIP3   OH252241   3.468   4.523  12.690 -0.0146  0.2538  0.2795
 9349TIP3    H152242   3.449   4.578  12.614 -2.1564 -0.2812  0.3687
 9349TIP3    H252243   3.383   4.490  12.718  0.9154 -0.9478  1.8796
 9350TIP3   OH252244   4.457   4.731  10.387  0.0147  0.1110  0.3268
 9350TIP3    H152245   4.362   4.741  10.393 -0.1267 -0.8756 -0.0700
 9350TIP3    H252246   4.488   4.746  10.477 -0.8886 -2.9694  1.3021
 9351TIP3   OH252247   0.229   4.991  11.051 -0.1805 -0.0102  0.5505
 9351TIP3    H152248   0.177   4.985  10.970  0.4727  0.0998  0.1158
 9351TIP3    H252249   0.294   5.059  11.032  1.7240 -1.8220  0.1594
 9352TIP3   OH252250   4.891   4.448   9.999 -0.0464  0.4658  0.3299
 9352TIP3    H152251   4.964   4.509  10.010 -0.2402  1.2075 -1.9270
 9352TIP3    H252252   4.930   4.361  10.008  0.6375  0.8767  1.4797
 9353TIP3   OH252253   0.155   7.641  10.592 -0.5870 -0.6326  0.1623
 9353TIP3    H152254   0.239   7.686  10.587 -2.2873  2.9716  0.0937
 9353TIP3    H252255   0.132   7.624  10.501 -1.0625  0.9931 -0.0698
 9354TIP3   OH252256   4.247   6.791  12.322  0.2883  0.8848 -0.6370
 9354TIP3    H152257   4.284   6.855  12.381 -1.1531 -0.8177  2.3292
 9354TIP3    H252258   4.194   6.734  12.378 -1.9774 -0.3221 -3.7121
 9355TIP3   OH252259   1.963   5.564  10.165 -0.0887 -0.0672 -0.9910
 9355TIP3    H152260   1.959   5.581  10.259  0.3739  0.7232 -1.1013
 9355TIP3    H252261   1.888   5.507  10.148  1.0538 -2.0566  0.2009
 9356TIP3   OH252262   4.710   5.554  11.598 -0.4660 -0.1555 -0.0335
 9356TIP3    H152263   4.773   5.578  11.667 -0.1201  0.1624 -0.4515
 9356TIP3    H252264   4.631   5.528  11.645 -0.0183 -0.5652  0.5020
 9357TIP3   OH252265   5.919   0.978  10.407 -0.2317  0.2301  0.0986
 9357TIP3    H152266   5.892   0.965  10.317 -0.6125 -0.6524  0.3299
 9357TIP3    H252267   5.868   0.914  10.457  0.8155 -0.0881  0.7927
 9358TIP3   OH252268   1.720   6.042  10.367  0.1431  0.1980  0.8406
 9358TIP3    H152269   1.705   5.948  10.356 -0.7375  0.5293 -1.0457
 9358TIP3    H252270   1.774   6.048  10.447  2.9029 -2.1381 -0.6529
 9359TIP3   OH252271   5.440   3.264  11.054 -0.3400  0.5686  0.3907
 9359TIP3    H152272   5.480   3.343  11.090 -2.7687  1.2340  1.8632
 9359TIP3    H252273   5.393   3.225  11.128 -0.0739 -1.7082 -0.5541
 9360TIP3   OH252274   3.468   0.139  11.478 -0.0640  0.0593  0.6254
 9360TIP3    H152275   3.527   0.172  11.546  0.4990  1.4661 -0.5013
 9360TIP3    H252276   3.380   0.166  11.507  0.2917  1.7582  0.2155
 9361TIP3   OH252277   4.449   6.199  10.446 -0.2478  0.1724  0.0571
 9361TIP3    H152278   4.368   6.179  10.494 -0.2538 -0.1364 -0.0802
 9361TIP3    H252279   4.420   6.249  10.370 -0.1841  1.1630  0.6650
 9362TIP3   OH252280   4.556   7.039  10.915 -0.1224  0.0464 -0.5383
 9362TIP3    H152281   4.503   7.074  10.843  0.0248 -0.6851 -1.0131
 9362TIP3    H252282   4.619   7.108  10.934  0.4856 -0.1304 -1.7950
 9363TIP3   OH252283   2.684   6.747  10.361  0.2133  0.1895 -0.5218
 9363TIP3    H152284   2.654   6.822  10.413 -0.7881 -0.1107 -0.6629
 9363TIP3    H252285   2.715   6.684  10.426  1.0860  0.7152 -0.4018
 9364TIP3   OH252286   5.065   6.523  12.492  0.0703  0.0996 -0.3834
 9364TIP3    H152287   5.077   6.494  12.401 -2.6738 -2.3861 -0.0883
 9364TIP3    H252288   5.091   6.448  12.545  0.5369  1.1125  0.8864
 9365TIP3   OH252289   5.559   3.950  10.761  0.3365  0.1463  0.2763
 9365TIP3    H152290   5.512   4.012  10.817 -2.2828 -0.3748 -1.1886
 9365TIP3    H252291   5.553   3.987  10.673  2.1877 -0.3019 -0.0969
 9366TIP3   OH252292   1.094   1.343  10.147 -0.2287 -0.3585  0.2104
 9366TIP3    H152293   1.158   1.312  10.083 -0.9398 -0.2379 -0.5652
 9366TIP3    H252294   1.039   1.405  10.099 -0.4506  0.1309  1.0693
 9367TIP3   OH252295   2.919   1.945  10.820  0.1227  0.1104 -0.5638
 9367TIP3    H152296   2.851   2.008  10.844  1.0233  0.5196  1.0364
 9367TIP3    H252297   2.993   1.999  10.790  0.2259 -0.2792 -1.0311
 9368TIP3   OH252298   3.197   4.793  10.111 -0.7110  0.4290 -0.3809
 9368TIP3    H152299   3.234   4.775  10.198 -2.3785 -1.6370 -0.0034
 9368TIP3    H252300   3.192   4.706  10.070 -3.4926  0.8209 -1.0296
 9369TIP3   OH252301   2.948   3.875   9.517 -0.0201 -0.2160 -0.1428
 9369TIP3    H152302   2.983   3.830   9.594  0.8612 -0.6168 -0.7480
 9369TIP3    H252303   3.006   3.951   9.505  0.0178 -0.3040 -0.5499
 9370TIP3   OH252304   7.665   6.382  10.425 -0.0169  0.1841 -0.5489
 9370TIP3    H152305   7.741   6.433  10.451 -0.0580 -0.2317  0.4229
 9370TIP3    H252306   7.591   6.443  10.433  0.2756  0.8267 -2.2580
 9371TIP3   OH252307   1.600   5.464  10.042  0.3998  0.1794 -0.2397
 9371TIP3    H152308   1.581   5.467  10.136 -1.1362  0.6013 -0.5362
 9371TIP3    H252309   1.688   5.426  10.037  0.5340  0.1803  1.3610
 9372TIP3   OH252310   5.885   3.408  10.558 -0.3231 -0.2469 -0.2502
 9372TIP3    H152311   5.902   3.410  10.464  0.3888  0.4103 -0.1113
 9372TIP3    H252312   5.865   3.498  10.581 -2.0801 -0.6498 -0.0339
 9373TIP3   OH252313   7.678   2.968  12.138 -0.2030  1.2435  0.7157
 9373TIP3    H152314   7.673   3.003  12.227  1.0484 -0.2530  1.4190
 9373TIP3    H252315   7.595   2.920  12.127  0.6975 -0.8105  2.1374
 9374TIP3   OH252316   1.681   2.125  10.334  0.0696  0.4708  0.3322
 9374TIP3    H152317   1.606   2.078  10.368 -0.3695  1.6217  1.0202
 9374TIP3    H252318   1.751   2.108  10.397  0.0116  0.4523  0.3909
 9375TIP3   OH252319   7.316   6.166  11.183  0.1463  0.1354  0.2269
 9375TIP3    H152320   7.363   6.084  11.193  0.0246  0.1293  0.7629
 9375TIP3    H252321   7.320   6.207  11.269  0.0679  0.6167  0.0061
 9376TIP3   OH252322   3.747   6.562  10.468  0.3216  0.1911 -0.5210
 9376TIP3    H152323   3.741   6.645  10.515  0.3731  0.1802 -0.4949
 9376TIP3    H252324   3.693   6.575  10.390  1.5410  0.7688 -1.2977
 9377TIP3   OH252325   0.301   5.116  11.522  0.3271  0.3385  0.2551
 9377TIP3    H152326   0.368   5.175  11.556  0.9696 -0.6971  0.8343
 9377TIP3    H252327   0.346   5.064  11.455  0.1226 -0.3816  0.6651
 9378TIP3   OH252328   4.721   3.280  11.188 -0.0199  0.0962  0.0024
 9378TIP3    H152329   4.751   3.237  11.108 -0.2987 -0.6576  0.2938
 9378TIP3    H252330   4.699   3.208  11.247 -0.7383  0.6415  0.4130
 9379TIP3   OH252331   2.007   2.553  11.416  0.4513  0.1410  0.5291
 9379TIP3    H152332   2.073   2.614  11.383  0.7933  0.7381  2.2293
 9379TIP3    H252333   1.925   2.602  11.410  0.5277  0.2864  0.6630
 9380TIP3   OH252334   6.334   4.720  11.246  0.5184 -0.1328 -0.7433
 9380TIP3    H152335   6.288   4.645  11.285  1.5502 -0.6947 -0.5570
 9380TIP3    H252336   6.365   4.687  11.162  2.4167 -0.4871  0.0465
 9381TIP3   OH252337   0.803   6.744  10.523 -0.3118 -0.2445  0.0276
 9381TIP3    H152338   0.780   6.675  10.586 -0.6302 -0.7468 -0.6184
 9381TIP3    H252339   0.845   6.812  10.576  2.1393 -1.9164  0.4023
 9382TIP3   OH252340   2.903   7.255  12.617  0.1587  0.5119 -0.2792
 9382TIP3    H152341   2.935   7.166  12.599  0.6935  0.6208  0.0930
 9382TIP3    H252342   2.831   7.268  12.555 -1.9265 -1.2896  1.5894
 9383TIP3   OH252343   5.698   2.576   9.880  0.0843 -0.5458 -0.7433
 9383TIP3    H152344   5.751   2.651   9.908 -1.0853 -0.3248  1.0287
 9383TIP3    H252345   5.661   2.603   9.796 -1.5946  1.5922  0.5709
 9384TIP3   OH252346   2.912   6.140  12.227  0.7189 -0.4030  0.3025
 9384TIP3    H152347   2.980   6.186  12.177 -1.2990  0.7124 -1.6145
 9384TIP3    H252348   2.869   6.209  12.278 -0.4940 -0.5962 -0.4038
 9385TIP3   OH252349   2.024   6.194  12.301 -0.4630 -0.3930 -0.0898
 9385TIP3    H152350   2.101   6.242  12.328 -0.7386  0.8809 -1.4297
 9385TIP3    H252351   2.041   6.103  12.326  0.4117  0.2556  1.7694
 9386TIP3   OH252352   5.005   5.654  10.544  0.3605  0.0204 -0.1434
 9386TIP3    H152353   5.044   5.739  10.563 -0.4187  0.1125  1.1659
 9386TIP3    H252354   5.073   5.606  10.496  1.1874  1.0080  0.0249
 9387TIP3   OH252355   3.087   3.397  12.277 -0.2013 -0.2357 -0.1246
 9387TIP3    H152356   3.162   3.439  12.236  0.0649  0.6240  1.1745
 9387TIP3    H252357   3.124   3.322  12.324 -0.0206  0.5044  0.9775
 9388TIP3   OH252358   2.635   5.216  12.068  1.0008  0.4213 -0.1505
 9388TIP3    H152359   2.692   5.186  11.996  1.5343  0.7455  0.1326
 9388TIP3    H252360   2.688   5.281  12.115  0.7239  0.0796  0.6474
 9389TIP3   OH252361   4.842   2.225  10.877  0.1395 -0.0805 -0.3693
 9389TIP3    H152362   4.774   2.254  10.816  0.6635  0.3217 -0.7711
 9389TIP3    H252363   4.795   2.211  10.960 -0.6185 -0.8596 -0.9077
 9390TIP3   OH252364   2.009   2.794   9.694 -0.5191  0.3011 -0.1427
 9390TIP3    H152365   2.061   2.718   9.719  0.7861  1.2856  0.2983
 9390TIP3    H252366   2.074   2.861   9.670 -1.6254  1.1570 -0.8972
 9391TIP3   OH252367   5.277   3.981  10.255  0.6042 -0.2250  0.3294
 9391TIP3    H152368   5.270   3.929  10.335  1.8543 -0.2411  0.4509
 9391TIP3    H252369   5.198   3.960  10.205  1.5186 -3.0209 -0.0913
 9392TIP3   OH252370   4.214   5.294  12.032 -0.7214  0.2045  0.5088
 9392TIP3    H152371   4.196   5.374  12.082  0.9168  0.8876  0.0528
 9392TIP3    H252372   4.172   5.224  12.083 -1.2894  1.2032  1.4589
 9393TIP3   OH252373   3.989   5.398   9.814 -0.1645  0.2080 -0.1294
 9393TIP3    H152374   3.984   5.465   9.746 -0.0621 -0.2971 -0.6460
 9393TIP3    H252375   4.062   5.342   9.787  0.9455  0.9308  1.2516
 9394TIP3   OH252376   3.440   7.659  12.388  0.3734  0.2295 -0.0765
 9394TIP3    H152377   3.413   7.593  12.452  1.7020  0.5929  0.8830
 9394TIP3    H252378   3.358   7.686  12.346 -0.1716 -2.3524 -0.8441
 9395TIP3   OH252379   6.415   3.580  10.204 -0.2881 -0.3643 -0.3615
 9395TIP3    H152380   6.330   3.591  10.161 -0.7650 -0.1534  0.6104
 9395TIP3    H252381   6.395   3.530  10.283  0.3545  0.4306  0.3219
 9396TIP3   OH252382   3.120   4.811  11.242 -0.2029  0.3953  0.5834
 9396TIP3    H152383   3.095   4.726  11.279  0.0466  0.6538  1.3597
 9396TIP3    H252384   3.210   4.798  11.210  0.1627  0.5994  1.4955
 9397TIP3   OH252385   1.953   7.622  10.136  0.2846  0.2413 -0.1641
 9397TIP3    H152386   2.010   7.698  10.146 -0.3568  0.6900  0.2455
 9397TIP3    H252387   1.965   7.572  10.217  0.7380 -0.1297 -0.4511
 9398TIP3   OH252388   6.163   5.729  10.006  0.2554  0.6812  0.5798
 9398TIP3    H152389   6.211   5.766  10.081  0.4625 -0.8171  1.2338
 9398TIP3    H252390   6.071   5.737  10.031  0.2954  0.8205  0.6866
 9399TIP3   OH252391   2.835   4.371  10.535 -0.0935  0.7528 -0.0361
 9399TIP3    H152392   2.885   4.327  10.466  0.0024 -0.7049  0.9111
 9399TIP3    H252393   2.843   4.464  10.516  1.8085  0.4839 -0.7056
 9400TIP3   OH252394   5.147   2.066  10.647 -0.1243  0.1001 -0.5308
 9400TIP3    H152395   5.100   2.073  10.729 -0.4074 -0.0175 -0.6831
 9400TIP3    H252396   5.222   2.125  10.657  0.2991 -0.5302  0.1254
 9401TIP3   OH252397   5.094   0.792  10.230  0.7586  0.2163 -0.8525
 9401TIP3    H152398   5.079   0.826  10.142  2.1944 -0.1853 -1.2888
 9401TIP3    H252399   5.075   0.865  10.288 -0.0171  0.5409 -1.4974
 9402TIP3   OH252400   2.276   6.272  12.423 -0.0758  0.2099  0.2162
 9402TIP3    H152401   2.277   6.315  12.509 -1.0027  0.0749  0.3035
 9402TIP3    H252402   2.350   6.211  12.427  0.8662  1.3145  0.3227
 9403TIP3   OH252403   5.596   1.308  10.702 -0.0246 -0.5035 -0.0500
 9403TIP3    H152404   5.531   1.320  10.632  0.8943  0.1525 -0.8211
 9403TIP3    H252405   5.581   1.381  10.762  1.1311  0.7034 -1.1686
 9404TIP3   OH252406   1.945   3.395  10.155  0.1421  0.1365  0.1674
 9404TIP3    H152407   1.930   3.325  10.092  0.7269  0.4467 -0.3174
 9404TIP3    H252408   1.977   3.350  10.234 -0.2101 -0.2083  0.1165
 9405TIP3   OH252409   0.160   4.712  11.215  0.1390 -0.3368  0.3784
 9405TIP3    H152410   0.181   4.734  11.306  1.0786 -1.5080  0.4706
 9405TIP3    H252411   0.133   4.620  11.219 -2.1760  0.2417 -0.2011
 9406TIP3   OH252412   5.618   3.215  10.366  0.0612 -0.5065 -0.1214
 9406TIP3    H152413   5.578   3.129  10.377 -0.7030 -0.1038  0.3198
 9406TIP3    H252414   5.575   3.270  10.431  2.6405 -0.4766  1.7084
 9407TIP3   OH252415   7.556   6.839  12.300  0.3286 -0.1919 -0.4862
 9407TIP3    H152416   7.489   6.771  12.301 -1.8635  1.8494  0.4702
 9407TIP3    H252417   7.550   6.878  12.213  1.2637 -0.8480 -0.8696
 9408TIP3   OH252418   0.957   6.910  10.754 -0.0224  0.4702  0.0813
 9408TIP3    H152419   0.981   6.828  10.799 -0.1801  0.3155 -0.1172
 9408TIP3    H252420   1.025   6.922  10.688  0.6255  1.0835  0.8355
 9409TIP3   OH252421   6.149   6.726  12.860 -0.2795  0.3440  0.0796
 9409TIP3    H152422   6.123   6.814  12.886 -1.7905  0.3616 -1.3643
 9409TIP3    H252423   6.073   6.672  12.879  0.4176 -0.5571  0.3709
 9410TIP3   OH252424   1.323   6.955  11.564  0.6116  0.2768 -0.0544
 9410TIP3    H152425   1.388   6.940  11.496 -0.8099 -2.3279 -0.9809
 9410TIP3    H252426   1.239   6.949  11.519 -0.3826 -1.4577  1.8362
 9411TIP3   OH252427   3.137   7.024  11.211  0.1756 -0.1371 -0.0186
 9411TIP3    H152428   3.226   7.017  11.245 -0.1958  0.0913  1.0291
 9411TIP3    H252429   3.130   7.114  11.179  1.3336 -1.0164 -3.1264
 9412TIP3   OH252430   3.286   6.551   9.938  0.5389  0.0693 -0.4712
 9412TIP3    H152431   3.285   6.476   9.879  0.1214  0.0214 -0.4060
 9412TIP3    H252432   3.323   6.517  10.020 -0.2448 -0.2321 -0.2307
 9413TIP3   OH252433   7.418   4.257  12.570 -0.1734 -0.6393  0.1792
 9413TIP3    H152434   7.406   4.166  12.542  0.0109 -0.2983 -1.0902
 9413TIP3    H252435   7.463   4.299  12.496 -0.4758  0.5462  0.6444
 9414TIP3   OH252436   1.961   5.734  10.419  0.0865 -0.2973  0.4695
 9414TIP3    H152437   1.870   5.760  10.433  0.0237  0.1562 -0.6753
 9414TIP3    H252438   2.010   5.781  10.488 -0.3744  0.6185  0.1946
 9415TIP3   OH252439   5.636   5.606  11.687 -0.1589 -0.1636  0.4763
 9415TIP3    H152440   5.668   5.687  11.726 -0.1530  0.3162 -0.4919
 9415TIP3    H252441   5.606   5.632  11.600  0.2041 -1.2739  0.0101
 9416TIP3   OH252442   2.545   6.098  10.607  0.0103  0.2032  0.8073
 9416TIP3    H152443   2.578   6.014  10.640 -1.0584 -0.3515  0.5080
 9416TIP3    H252444   2.621   6.137  10.563  0.7382 -0.2412  1.6259
 9417TIP3   OH252445   0.602   2.423  11.385 -0.1140 -0.1939 -0.3178
 9417TIP3    H152446   0.650   2.506  11.373  0.4951 -0.2053  1.6865
 9417TIP3    H252447   0.667   2.356  11.365 -0.2867 -0.1998 -0.8686
 9418TIP3   OH252448   6.387   7.135  11.049  0.5013 -0.4783 -0.0014
 9418TIP3    H152449   6.295   7.139  11.077  0.2042 -0.8354 -0.8820
 9418TIP3    H252450   6.383   7.132  10.954  1.5490  3.4812 -0.3320
 9419TIP3   OH252451   2.293   0.655  11.131 -0.2717 -0.2642  0.4564
 9419TIP3    H152452   2.218   0.646  11.072  0.6446  0.8996 -0.9604
 9419TIP3    H252453   2.308   0.749  11.136  1.4834 -0.5000  0.1705
 9420TIP3   OH252454   7.260   6.561  11.433 -0.2476 -0.0048  0.4359
 9420TIP3    H152455   7.335   6.602  11.391 -1.5030  0.8245 -1.1189
 9420TIP3    H252456   7.236   6.621  11.503  1.0546 -0.7353  1.5635
 9421TIP3   OH252457   4.222   2.610  10.873 -0.2363 -0.0100 -0.4036
 9421TIP3    H152458   4.131   2.590  10.849 -0.1613 -1.4927  0.4332
 9421TIP3    H252459   4.251   2.532  10.921  0.2754  1.9218  2.6572
 9422TIP3   OH252460   4.646   4.411  12.240 -0.6536 -0.5389  0.0937
 9422TIP3    H152461   4.624   4.318  12.234 -0.2737 -0.6232 -0.0250
 9422TIP3    H252462   4.575   4.455  12.194 -0.3413 -0.8442 -0.7177
 9423TIP3   OH252463   6.036   5.056  10.787 -0.0196  0.2123 -0.0763
 9423TIP3    H152464   6.048   5.026  10.697  1.6607 -0.6996  0.4230
 9423TIP3    H252465   6.006   4.978  10.835  0.5695  0.2975  0.4456
 9424TIP3   OH252466   0.020   6.337  11.175 -0.2231 -0.3741 -0.2976
 9424TIP3    H152467  -0.017   6.289  11.249  0.2363  0.7844  0.7136
 9424TIP3    H252468  -0.046   6.331  11.106 -1.7669  0.6357  1.0453
 9425TIP3   OH252469   4.267   6.180  11.067  0.2667 -0.3362  0.1878
 9425TIP3    H152470   4.337   6.168  11.003  0.2256  1.0456 -0.1343
 9425TIP3    H252471   4.282   6.267  11.104 -0.3496 -0.6695  1.2753
 9426TIP3   OH252472   3.433   4.761  11.393  0.1477  0.0701 -0.1845
 9426TIP3    H152473   3.478   4.844  11.381  2.2910 -1.0184 -0.0414
 9426TIP3    H252474   3.382   4.750  11.312 -0.4142  1.6216 -0.0711
 9427TIP3   OH252475   6.713   4.741  11.575 -0.0382 -0.2617  0.0225
 9427TIP3    H152476   6.710   4.646  11.586  0.1211 -0.5855 -2.1974
 9427TIP3    H252477   6.701   4.776  11.663  0.0285 -2.3317  0.9106
 9428TIP3   OH252478   6.137   2.938  11.593  0.5683  0.2570 -0.7679
 9428TIP3    H152479   6.213   2.953  11.649  0.0563 -0.1934  0.0661
 9428TIP3    H252480   6.062   2.946  11.652 -0.0143  0.3483 -1.5109
 9429TIP3   OH252481   5.384   2.536  11.335 -0.5655  0.1224 -0.0439
 9429TIP3    H152482   5.300   2.581  11.327  0.3704  1.9904  0.2250
 9429TIP3    H252483   5.374   2.480  11.413 -1.8518 -0.4054 -0.5675
 9430TIP3   OH252484   7.614   2.483  11.868  0.3944 -0.6766 -0.5029
 9430TIP3    H152485   7.645   2.547  11.803  1.2769  0.1579  0.7028
 9430TIP3    H252486   7.690   2.467  11.923 -0.2222 -1.7203  0.0620
 9431TIP3   OH252487   0.568   1.959  12.770  0.1386  0.4238 -0.0882
 9431TIP3    H152488   0.651   2.007  12.764  0.0133  0.6041 -0.4142
 9431TIP3    H252489   0.501   2.027  12.767 -0.0035  0.3529  1.1164
 9432TIP3   OH252490   2.366   4.647  11.699  0.1894  0.2569 -0.5344
 9432TIP3    H152491   2.374   4.728  11.649 -0.3107  0.7661  0.1852
 9432TIP3    H252492   2.313   4.672  11.775  0.9588 -0.4906  0.2532
 9433TIP3   OH252493   4.398   0.523  10.987  0.8733  0.1737  0.0306
 9433TIP3    H152494   4.368   0.556  10.903 -1.4160  0.0913  0.7458
 9433TIP3    H252495   4.410   0.601  11.041  2.1753  0.2149 -0.2848
 9434TIP3   OH252496   4.089   6.584  11.119 -0.7669  0.0377 -0.4312
 9434TIP3    H152497   4.087   6.516  11.186  0.6292  0.7050  0.3366
 9434TIP3    H252498   4.174   6.572  11.075 -0.1511  1.6989  0.2160
 9435TIP3   OH252499   4.846   3.225  10.941 -0.1942  0.5691 -0.0343
 9435TIP3    H152500   4.926   3.173  10.953 -0.3446  0.6729  1.6464
 9435TIP3    H252501   4.803   3.185  10.865  0.0391 -1.3561  0.7856
 9436TIP3   OH252502   5.458   3.402  10.533  0.0607  0.4244 -0.2483
 9436TIP3    H152503   5.506   3.414  10.615 -0.3054  0.8929 -0.0955
 9436TIP3    H252504   5.371   3.373  10.560  0.2180 -0.3257 -0.5190
 9437TIP3   OH252505   5.474   0.194  10.330 -0.3505  0.3434  0.5140
 9437TIP3    H152506   5.383   0.169  10.310 -0.7624  2.8994 -1.3129
 9437TIP3    H252507   5.527   0.135  10.275 -0.7233 -1.9626  2.4500
 9438TIP3   OH252508   4.388   0.384  10.094  0.0250  0.5443 -0.3848
 9438TIP3    H152509   4.304   0.414  10.059  0.9717  0.2198 -3.2143
 9438TIP3    H252510   4.453   0.439  10.049  1.4201 -0.7718 -0.0353
 9439TIP3   OH252511   4.987   5.240  10.588  0.2572 -0.0383  0.2800
 9439TIP3    H152512   4.990   5.321  10.639  0.3884  0.2996 -0.2553
 9439TIP3    H252513   4.940   5.264  10.508  0.3579 -0.4753  0.0866
 9440TIP3   OH252514   5.119   0.313  10.392  0.2464  0.0789 -0.6672
 9440TIP3    H152515   5.033   0.308  10.434  0.9261 -0.5945  0.7042
 9440TIP3    H252516   5.147   0.404  10.404  0.5372 -0.1658  0.5949
 9441TIP3   OH252517   5.091   3.809  10.727 -0.2154  0.6639  0.0217
 9441TIP3    H152518   5.150   3.883  10.744 -0.6608  1.1647 -0.6085
 9441TIP3    H252519   5.008   3.849  10.703 -0.6405 -0.0450  0.2789
 9442TIP3   OH252520   2.087   5.280  10.126  0.3099  0.5144 -0.0382
 9442TIP3    H152521   2.079   5.375  10.125  1.1151  0.5985  0.2383
 9442TIP3    H252522   2.106   5.259  10.217 -0.4140  0.0298  0.0062
 9443TIP3   OH252523   2.388   6.207  12.057  0.4967 -0.5149  0.3163
 9443TIP3    H152524   2.388   6.275  12.125 -1.5822 -0.3906  0.2540
 9443TIP3    H252525   2.367   6.126  12.103  1.4022 -0.8628  0.1457
 9444TIP3   OH252526   2.489   4.723   9.843 -0.2509  0.0621  0.1675
 9444TIP3    H152527   2.395   4.712   9.829 -0.8062  1.0861  2.5818
 9444TIP3    H252528   2.495   4.775   9.923  2.3861 -0.0388  0.1045
 9445TIP3   OH252529   0.457   3.229  11.091 -0.0930  0.4495 -0.3259
 9445TIP3    H152530   0.387   3.282  11.130 -0.1066  0.1244  0.0944
 9445TIP3    H252531   0.511   3.202  11.165 -0.8126 -1.2021 -0.3574
 9446TIP3   OH252532   2.312   7.304  12.625  0.0220 -0.0798 -0.4249
 9446TIP3    H152533   2.241   7.310  12.689 -1.5600 -1.0486 -2.0228
 9446TIP3    H252534   2.317   7.211  12.603  1.9480 -0.0638 -0.2164
 9447TIP3   OH252535   5.342   4.437  11.002 -0.6634 -0.2242  0.0731
 9447TIP3    H152536   5.287   4.468  11.073 -1.7018  1.7776 -1.4990
 9447TIP3    H252537   5.429   4.471  11.023 -0.7809 -0.3495  0.7815
 9448TIP3   OH252538   4.893   1.292   9.713  0.3827  0.4226  0.2422
 9448TIP3    H152539   4.910   1.198   9.713 -0.5398  0.2530  0.5406
 9448TIP3    H252540   4.799   1.300   9.701  0.5223  1.3258 -0.3864
 9449TIP3   OH252541   5.698   5.849  10.194 -0.4033 -0.0995 -0.0161
 9449TIP3    H152542   5.608   5.838  10.166 -0.0438 -0.3340 -1.1339
 9449TIP3    H252543   5.710   5.943  10.201 -1.0183 -0.0866  1.1660
 9450TIP3   OH252544   0.831   0.841  11.095  0.5832 -0.9448  0.3242
 9450TIP3    H152545   0.894   0.901  11.055  0.6225 -0.4659  1.0840
 9450TIP3    H252546   0.885   0.779  11.144  0.4637 -0.2690  1.3392
 9451TIP3   OH252547   6.596   2.414  12.157 -0.1683  0.3927 -0.1207
 9451TIP3    H152548   6.659   2.416  12.229  0.3441 -1.6390 -0.4453
 9451TIP3    H252549   6.512   2.399  12.199 -0.4218  2.4901  0.2621
 9452TIP3   OH252550   6.112   0.054  10.808  0.4695 -0.2925 -0.6229
 9452TIP3    H152551   6.045   0.075  10.873  0.2435 -0.5581 -0.7712
 9452TIP3    H252552   6.155   0.138  10.791 -1.0188  0.2639 -1.8823
 9453TIP3   OH252553   3.941   6.784  11.995 -0.1523  0.3565 -0.2934
 9453TIP3    H152554   4.019   6.815  11.948 -0.1711  1.2772  0.2701
 9453TIP3    H252555   3.973   6.708  12.044  0.0892 -0.0369 -1.0361
 9454TIP3   OH252556   3.369   6.882  12.135  0.5064 -0.5847  0.5840
 9454TIP3    H152557   3.383   6.788  12.132  0.4437 -0.6320  1.4548
 9454TIP3    H252558   3.402   6.914  12.051 -0.2448 -1.4688 -0.0606
 9455TIP3   OH252559   1.340   5.179  11.727 -0.6244 -0.2045 -0.6742
 9455TIP3    H152560   1.334   5.146  11.817 -2.0884  0.0980 -0.6407
 9455TIP3    H252561   1.411   5.242  11.730 -1.3317  0.5683  0.5333
 9456TIP3   OH252562   3.150   1.288  10.855  0.2308 -0.2758  0.3687
 9456TIP3    H152563   3.111   1.263  10.772 -0.1035  1.7693 -0.1412
 9456TIP3    H252564   3.213   1.218  10.874 -1.5890 -2.1701 -0.2008
 9457TIP3   OH252565   7.025   4.019   9.962 -0.6686  0.3683 -0.3848
 9457TIP3    H152566   7.080   3.952   9.921 -0.4488 -0.3979  1.0822
 9457TIP3    H252567   7.083   4.094   9.972 -0.2814  0.0460 -0.1434
 9458TIP3   OH252568   4.723   5.186  10.085 -0.3511  0.1159  0.2345
 9458TIP3    H152569   4.797   5.146  10.039  0.3728  1.7875 -0.1378
 9458TIP3    H252570   4.660   5.115  10.096  0.8959 -1.1192 -0.3164
 9459TIP3   OH252571   6.112   3.674  10.861  0.3876  0.3159  0.0787
 9459TIP3    H152572   6.136   3.715  10.778  0.7092  2.1979  1.0400
 9459TIP3    H252573   6.029   3.630  10.843  0.9336 -0.1330 -1.4693
 9460TIP3   OH252574   5.012   4.277  11.016 -0.5709 -0.2302 -0.2495
 9460TIP3    H152575   5.039   4.228  11.094 -2.3742  0.7615  1.1106
 9460TIP3    H252576   4.990   4.211  10.951  0.8022 -1.0906  0.1313
 9461TIP3   OH252577   2.993   5.151  10.633 -0.3827  0.5691  0.5514
 9461TIP3    H152578   3.029   5.211  10.699 -0.0221  2.2368 -1.0722
 9461TIP3    H252579   2.941   5.208  10.576  3.7587  0.4947 -3.9701
 9462TIP3   OH252580   5.124   1.339   9.877  0.1761 -0.2448 -0.0867
 9462TIP3    H152581   5.065   1.312   9.807 -0.4974  2.1528 -0.5441
 9462TIP3    H252582   5.187   1.397   9.834  0.6469  0.0955  1.0227
 9463TIP3   OH252583   6.489   0.421  11.641  0.0537  0.3846  0.2588
 9463TIP3    H152584   6.563   0.476  11.614  0.8780 -0.3943  0.8541
 9463TIP3    H252585   6.485   0.431  11.736  0.7697 -1.1908  0.4974
 9464TIP3   OH252586   4.562   1.320  11.338  0.4682  0.1670 -0.3571
 9464TIP3    H152587   4.655   1.300  11.329  0.6104  0.9049 -0.5933
 9464TIP3    H252588   4.530   1.260  11.405  0.9171 -0.7103 -0.9122
 9465TIP3   OH252589   0.649   3.334  10.030 -0.3576 -0.5977  0.3770
 9465TIP3    H152590   0.708   3.331   9.955 -1.1606  0.1005 -0.3043
 9465TIP3    H252591   0.678   3.411  10.080  0.0795 -0.9728  0.7058
 9466TIP3   OH252592   5.214   3.361  11.883 -0.1387 -0.3158 -0.4077
 9466TIP3    H152593   5.282   3.388  11.946  1.3186 -1.8177 -1.2690
 9466TIP3    H252594   5.133   3.365  11.933  0.8231 -0.3401  1.2391
 9467TIP3   OH252595   6.468   5.979  11.940 -0.0132 -0.9850 -0.7051
 9467TIP3    H152596   6.472   5.916  12.013  0.8123  1.2150  1.2656
 9467TIP3    H252597   6.511   6.057  11.973 -6.2909  3.1014 -0.5205
 9468TIP3   OH252598   4.879   3.223  10.562 -0.1648  0.0136  0.1435
 9468TIP3    H152599   4.905   3.301  10.612  0.0994  0.5131 -0.7654
 9468TIP3    H252600   4.858   3.158  10.630  2.0500  0.0425  0.9608
 9469TIP3   OH252601   0.294   3.885  11.035  0.4793 -0.3256 -1.3956
 9469TIP3    H152602   0.326   3.923  11.117  1.3042 -1.5296 -1.1302
 9469TIP3    H252603   0.248   3.806  11.062  1.1191 -0.9600 -2.1072
 9470TIP3   OH252604   2.254   6.247  10.025 -0.3845  0.0547  0.0547
 9470TIP3    H152605   2.270   6.157  10.054 -1.6959  0.1505  1.1652
 9470TIP3    H252606   2.308   6.257   9.946  0.8388 -1.2551  0.6829
 9471TIP3   OH252607   4.560   5.887  10.054  0.3097  0.2235 -0.0900
 9471TIP3    H152608   4.490   5.839  10.099  0.1208  0.4470 -0.1435
 9471TIP3    H252609   4.624   5.906  10.122  0.7314 -0.7328 -0.2033
 9472TIP3   OH252610   1.505   0.588  11.052 -0.3988  0.0968  0.1510
 9472TIP3    H152611   1.533   0.607  10.963 -1.0577  1.7796  0.2610
 9472TIP3    H252612   1.537   0.663  11.103 -1.4606 -0.0221  1.0142
 9473TIP3   OH252613   4.569   2.668  10.097 -0.1362 -0.2424  0.3879
 9473TIP3    H152614   4.624   2.746  10.087 -0.9531  0.4515  1.0850
 9473TIP3    H252615   4.630   2.598  10.121  0.5516  0.2944  0.2166
 9474TIP3   OH252616   1.835   3.839  12.381  0.2221 -0.3749  0.0669
 9474TIP3    H152617   1.810   3.864  12.470  0.7530  0.5065 -0.0190
 9474TIP3    H252618   1.910   3.895  12.361 -0.5647  0.2324 -1.3383
 9475TIP3   OH252619   4.532   4.588  11.604 -0.1299 -0.6939  0.2482
 9475TIP3    H152620   4.501   4.505  11.569  0.2489 -0.8489  0.2831
 9475TIP3    H252621   4.583   4.627  11.533 -0.3575 -0.4608  0.2098
 9476TIP3   OH252622   3.131   0.830  11.122 -0.3414 -0.3095  0.1458
 9476TIP3    H152623   3.101   0.768  11.188 -1.3861  0.2855  0.2489
 9476TIP3    H252624   3.099   0.794  11.039  0.3784 -0.6968  0.0274
 9477TIP3   OH252625   1.812   3.340  12.177  0.0398  0.2222  0.4029
 9477TIP3    H152626   1.814   3.436  12.170 -0.6537  0.2958  1.0499
 9477TIP3    H252627   1.757   3.323  12.253 -0.3744 -0.7126 -0.0860
 9478TIP3   OH252628   2.301   3.543  10.351  0.0768  0.0445 -0.1718
 9478TIP3    H152629   2.362   3.477  10.319  1.7557  1.6176 -0.3409
 9478TIP3    H252630   2.337   3.570  10.435 -0.7897  0.5113  0.0629
 9479TIP3   OH252631   0.578   1.185  11.119  0.1867  0.5744  0.2126
 9479TIP3    H152632   0.484   1.179  11.109  0.3112 -0.2570 -0.5801
 9479TIP3    H252633   0.612   1.106  11.077  1.1370  0.0445  1.8680
 9480TIP3   OH252634   0.861   7.460   9.928 -0.2716  0.0689 -0.4343
 9480TIP3    H152635   0.819   7.395   9.872 -0.2191  0.6591 -1.1787
 9480TIP3    H252636   0.790   7.517   9.957 -0.5128 -0.9913  1.2051
 9481TIP3   OH252637   5.307   1.121  12.427 -0.0172  0.2163 -0.0632
 9481TIP3    H152638   5.379   1.181  12.443  0.8438  0.0315 -2.6534
 9481TIP3    H252639   5.346   1.034  12.434 -0.6270  0.0146  1.0421
 9482TIP3   OH252640   5.472   7.090  11.502 -0.2387 -0.0545 -0.5539
 9482TIP3    H152641   5.524   7.080  11.422  1.4424 -0.1125  0.4982
 9482TIP3    H252642   5.537   7.090  11.573 -1.7225 -0.6566  0.8662
 9483TIP3   OH252643   1.582   6.244  11.747 -0.0058  0.1843  0.1717
 9483TIP3    H152644   1.544   6.189  11.816  1.9587  1.5179  2.4830
 9483TIP3    H252645   1.668   6.205  11.731 -0.8554 -0.7821 -2.4683
 9484TIP3   OH252646   4.535   6.836  12.438  0.2668  0.1277 -0.1075
 9484TIP3    H152647   4.560   6.753  12.397  1.2430  0.0227  0.6638
 9484TIP3    H252648   4.618   6.875  12.465 -0.3211 -0.1189  2.3385
 9485TIP3   OH252649   1.710   0.627  12.242 -0.3091 -0.2187  0.0335
 9485TIP3    H152650   1.666   0.711  12.227 -2.0042 -0.8815  0.9632
 9485TIP3    H252651   1.752   0.638  12.328  0.2557 -0.0419 -0.2553
 9486TIP3   OH252652   3.449   4.457   9.896  0.5452 -0.0467 -0.1214
 9486TIP3    H152653   3.403   4.409   9.828  2.5026 -1.9127 -0.2215
 9486TIP3    H252654   3.495   4.527   9.849  0.9081 -0.5744 -0.5683
 9487TIP3   OH252655   7.133   2.380  10.558 -0.0634  0.2885  0.2756
 9487TIP3    H152656   7.124   2.472  10.534  2.6345  0.7934  0.9036
 9487TIP3    H252657   7.131   2.380  10.654 -0.3491 -0.3674  0.2767
 9488TIP3   OH252658   2.383   5.116  11.770 -0.7647 -0.1524  0.7106
 9488TIP3    H152659   2.405   5.193  11.717  1.9253 -1.3298 -0.0521
 9488TIP3    H252660   2.297   5.090  11.740 -1.1580  1.7626  0.0303
 9489TIP3   OH252661   2.960   5.466  11.908 -0.6113 -0.2605 -0.0955
 9489TIP3    H152662   3.043   5.420  11.919 -0.3225  0.3851  0.5071
 9489TIP3    H252663   2.951   5.519  11.987 -1.4849 -0.1372 -0.2640
 9490TIP3   OH252664   1.410   5.398  10.974 -0.4177  0.3797  0.2701
 9490TIP3    H152665   1.392   5.333  10.906  0.7534 -1.0863  1.2750
 9490TIP3    H252666   1.460   5.466  10.929 -1.8131  0.7200 -0.8476
 9491TIP3   OH252667   1.764   1.961  10.660 -0.0151 -0.0184 -0.0943
 9491TIP3    H152668   1.809   1.999  10.585  0.4440  0.0583  0.2202
 9491TIP3    H252669   1.788   2.017  10.734  1.3189 -1.3558  0.5299
 9492TIP3   OH252670   1.046   4.678  11.870 -0.6971  0.0696 -0.5239
 9492TIP3    H152671   0.967   4.625  11.858 -1.2821  0.7055  0.3817
 9492TIP3    H252672   1.115   4.614  11.887 -1.4229 -0.4090  0.7372
 9493TIP3   OH252673   5.011   3.706  11.279  0.1320 -0.0443 -0.8051
 9493TIP3    H152674   4.952   3.641  11.318 -1.9940  2.2439  0.0895
 9493TIP3    H252675   5.084   3.711  11.340 -1.0812  0.4202  0.6774
 9494TIP3   OH252676   6.303   7.454  10.593 -0.2113  0.2699 -0.4771
 9494TIP3    H152677   6.388   7.493  10.615 -0.2208  1.1976 -1.9068
 9494TIP3    H252678   6.258   7.446  10.676  0.3648  2.0240  0.0567
 9495TIP3   OH252679   3.438   6.872  11.103  0.1745  0.4117 -0.0035
 9495TIP3    H152680   3.348   6.845  11.087  0.7861 -0.4330 -2.7090
 9495TIP3    H252681   3.460   6.835  11.188 -1.3537 -1.3407 -0.2994
 9496TIP3   OH252682   4.834   4.759  11.450 -0.1472  0.1126 -0.3418
 9496TIP3    H152683   4.835   4.829  11.516 -1.5060 -0.1084 -0.0520
 9496TIP3    H252684   4.799   4.801  11.371 -1.0007 -0.2176 -0.1568
 9497TIP3   OH252685   6.550   4.925  11.825  0.5393 -0.3878  0.1905
 9497TIP3    H152686   6.627   4.869  11.834  0.3828 -0.5688  0.3945
 9497TIP3    H252687   6.542   4.969  11.910  0.7260  0.0293 -0.0005
 9498TIP3   OH252688   4.603   5.333  10.676 -0.2490 -0.2455  0.3038
 9498TIP3    H152689   4.650   5.302  10.754  0.5909  0.3135  0.0403
 9498TIP3    H252690   4.631   5.424  10.667 -1.9719  0.3496  0.5565
 9499TIP3   OH252691   4.665   4.290  11.891  0.1959  0.5168  0.4371
 9499TIP3    H152692   4.753   4.275  11.926 -0.7004  1.1840  3.2817
 9499TIP3    H252693   4.639   4.206  11.853  2.4690  0.6584 -1.5888
 9500TIP3   OH252694   6.362   0.987   9.907 -0.3727 -0.3550  0.0885
 9500TIP3    H152695   6.317   1.008   9.825  0.7113 -2.6753 -1.1963
 9500TIP3    H252696   6.299   0.932   9.955 -0.3376 -0.4976 -0.0270
 9501TIP3   OH252697   0.396   3.300  10.724  0.0985  0.3394  0.5727
 9501TIP3    H152698   0.347   3.357  10.664  2.2762  0.0220 -1.7050
 9501TIP3    H252699   0.477   3.348  10.741  0.7576 -0.8605  0.9110
 9502TIP3   OH252700   6.324   7.523  11.563 -0.0869  0.0182 -0.1270
 9502TIP3    H152701   6.280   7.442  11.536  0.6558 -0.7561  0.9086
 9502TIP3    H252702   6.325   7.577  11.484  1.8991 -2.0721 -1.6611
 9503TIP3   OH252703   6.635   0.011  12.305  0.2472  0.4077 -0.2455
 9503TIP3    H152704   6.559   0.014  12.365 -1.0335  0.3772 -1.7998
 9503TIP3    H252705   6.614  -0.060  12.245  2.7969 -1.4311  0.8472
 9504TIP3   OH252706   7.175   3.649  11.649 -0.2496 -0.0457 -0.5295
 9504TIP3    H152707   7.117   3.723  11.665  1.3451  0.8920  1.2371
 9504TIP3    H252708   7.142   3.580  11.708 -1.1928 -0.4925 -1.5362
 9505TIP3   OH252709   0.875   4.198  11.543  0.1171  0.2974  0.1445
 9505TIP3    H152710   0.852   4.163  11.457  0.0476  1.7993 -0.4913
 9505TIP3    H252711   0.897   4.122  11.596 -1.4657 -0.8084 -0.7085
 9506TIP3   OH252712   4.375   7.433  10.553  0.0276 -0.5519  0.0436
 9506TIP3    H152713   4.332   7.503  10.504 -0.1902 -0.7637 -0.0731
 9506TIP3    H252714   4.435   7.478  10.613 -0.9142 -0.2254  0.7510
 9507TIP3   OH252715   3.745   5.241  12.039 -0.1838  0.2298  0.2340
 9507TIP3    H152716   3.794   5.322  12.057  1.1114 -0.7149  1.1298
 9507TIP3    H252717   3.676   5.239  12.104 -0.7619  1.0274 -0.3358
 9508TIP3   OH252718   0.184   4.525  10.230 -0.1841  0.8708  0.2014
 9508TIP3    H152719   0.126   4.573  10.170 -3.5894 -1.0737  1.6130
 9508TIP3    H252720   0.140   4.440  10.242  4.8560 -2.3690 -1.3318
 9509TIP3   OH252721   1.316   2.766  10.969  0.4559  0.1592 -0.0075
 9509TIP3    H152722   1.268   2.691  11.003  3.2232 -1.1517  1.2582
 9509TIP3    H252723   1.316   2.753  10.874 -1.1342 -0.1082  0.0099
 9510TIP3   OH252724   4.508   4.702  10.674  0.4191 -0.1056  0.0302
 9510TIP3    H152725   4.468   4.619  10.699 -0.4116  0.4175  0.4761
 9510TIP3    H252726   4.569   4.722  10.744  0.0019  0.0728  0.3447
 9511TIP3   OH252727   0.065   7.381  10.290  0.0112 -0.6496  0.5008
 9511TIP3    H152728   0.002   7.452  10.306 -0.4120 -1.2353  1.4866
 9511TIP3    H252729   0.020   7.324  10.226  0.4936  0.1292 -0.5642
 9512TIP3   OH252730   6.665   1.595  11.055  0.0766 -0.3330 -0.1037
 9512TIP3    H152731   6.593   1.590  10.993  0.5990  2.4957 -1.0927
 9512TIP3    H252732   6.623   1.603  11.141 -0.6957 -1.2760 -0.3830
 9513TIP3   OH252733   6.485   0.235  10.163  0.5891 -0.1287  0.1801
 9513TIP3    H152734   6.468   0.161  10.221  0.8408  0.6449  1.2709
 9513TIP3    H252735   6.401   0.252  10.120  0.3813 -0.6654  0.3669
 9514TIP3   OH252736   3.513   5.441   9.772  0.3172 -0.0192  0.2168
 9514TIP3    H152737   3.527   5.349   9.796  0.5516  0.0271  0.2608
 9514TIP3    H252738   3.446   5.472   9.832  0.4993 -0.0603  0.4416
 9515TIP3   OH252739   4.565   2.884  10.891 -0.2261  0.1923 -0.0178
 9515TIP3    H152740   4.502   2.820  10.856 -0.0725 -0.5448  1.0071
 9515TIP3    H252741   4.592   2.847  10.975 -0.5323  1.8626  0.8626
 9516TIP3   OH252742   4.322   1.716  11.575  0.7868 -0.2844 -0.2722
 9516TIP3    H152743   4.387   1.661  11.531  3.3076  0.7946  1.8709
 9516TIP3    H252744   4.274   1.656  11.631 -0.8917 -1.2634 -2.5888
 9517TIP3   OH252745   2.115   1.470  11.841  0.0879  0.4967 -0.0851
 9517TIP3    H152746   2.056   1.396  11.829  1.4924 -0.5019 -1.1872
 9517TIP3    H252747   2.073   1.541  11.791 -1.0183  0.3258  0.5640
 9518TIP3   OH252748   0.295   0.610  10.159 -0.2596 -0.1656  0.6721
 9518TIP3    H152749   0.206   0.578  10.175 -0.8145  1.1181  0.2724
 9518TIP3    H252750   0.294   0.639  10.068  0.8510 -0.9946  0.3847
 9519TIP3   OH252751   2.671   2.434  10.150  0.7211 -0.4236 -0.1536
 9519TIP3    H152752   2.600   2.371  10.149  0.7846 -0.5714  1.4748
 9519TIP3    H252753   2.652   2.494  10.078 -1.4025 -0.0789  0.6416
 9520TIP3   OH252754   5.530   6.712  10.147  0.2114 -0.1693  0.4088
 9520TIP3    H152755   5.608   6.710  10.202  0.0189  0.8498  0.7373
 9520TIP3    H252756   5.471   6.648  10.188  1.0238 -1.2766 -0.1059
 9521TIP3   OH252757   7.331   1.402  11.259 -0.2603 -0.0718  0.3203
 9521TIP3    H152758   7.284   1.373  11.337 -1.3752 -0.7102 -0.5505
 9521TIP3    H252759   7.284   1.480  11.230 -0.5379 -0.4763 -0.3291
 9522TIP3   OH252760   0.215   2.480  11.981 -0.4496  0.1711 -0.6700
 9522TIP3    H152761   0.305   2.450  11.970 -0.4829  0.3283 -1.4835
 9522TIP3    H252762   0.221   2.575  11.968 -0.4200  0.4904  1.3516
 9523TIP3   OH252763   5.417   4.770  10.055 -0.6304  0.1572  0.1879
 9523TIP3    H152764   5.492   4.822  10.086  0.0780 -0.4908 -0.4038
 9523TIP3    H252765   5.352   4.835  10.029  0.4410  0.7734 -1.0410
 9524TIP3   OH252766   1.779   2.363  11.454  0.5775 -0.2149  0.0559
 9524TIP3    H152767   1.726   2.338  11.530 -0.0529 -1.5368 -0.7886
 9524TIP3    H252768   1.865   2.385  11.491  0.2489 -0.7115  1.1598
 9525TIP3   OH252769   5.477   6.793  12.364 -0.4396 -0.5355 -0.2223
 9525TIP3    H152770   5.541   6.767  12.430  0.3616 -1.3266 -1.2854
 9525TIP3    H252771   5.392   6.771  12.403  0.0416 -1.3681  0.3756
 9526TIP3   OH252772   6.587   3.317  10.865  0.2853 -0.4700  0.0451
 9526TIP3    H152773   6.680   3.340  10.868 -0.0374  0.7835  1.4624
 9526TIP3    H252774   6.564   3.295  10.955 -0.6981 -1.2392 -0.3666
 9527TIP3   OH252775   4.846   6.469  10.198  0.3287  0.3511 -0.2670
 9527TIP3    H152776   4.790   6.397  10.169 -0.9912  1.3827 -0.3538
 9527TIP3    H252777   4.788   6.527  10.247  1.7091  0.5711  1.1867
 9528TIP3   OH252778   1.274   0.517  10.743  0.1470 -0.1868 -0.1084
 9528TIP3    H152779   1.349   0.474  10.702 -0.8631 -1.7448 -0.3956
 9528TIP3    H252780   1.313   0.587  10.796  1.6270  0.6224 -2.1211
 9529TIP3   OH252781   3.003   5.666   9.888 -0.0898  0.6862  0.2702
 9529TIP3    H152782   2.938   5.650   9.957  0.1336 -0.7966  0.1703
 9529TIP3    H252783   3.050   5.744   9.917  1.0943 -0.8006  2.6580
 9530TIP3   OH252784   4.466   6.104   9.888 -0.6952 -0.4030 -0.7131
 9530TIP3    H152785   4.371   6.095   9.891 -0.7952  0.8213  0.7327
 9530TIP3    H252786   4.498   6.025   9.932 -1.1710  0.3909  1.1758
 9531TIP3   OH252787   6.268   5.645  10.870 -0.2385  0.1256  0.0240
 9531TIP3    H152788   6.311   5.583  10.928  1.5467 -0.1453 -1.4820
 9531TIP3    H252789   6.207   5.592  10.819 -0.8214  0.1275  0.7158
 9532TIP3   OH252790   6.111   2.251   9.966 -0.0913  0.4200  0.1155
 9532TIP3    H152791   6.147   2.184   9.908 -1.3293 -0.6527  0.5581
 9532TIP3    H252792   6.090   2.324   9.907  1.5126  0.5597 -0.3344
 9533TIP3   OH252793   7.007   4.910  11.157  0.3290  0.5139 -0.1286
 9533TIP3    H152794   6.963   4.839  11.111 -0.5413  1.8365 -1.4566
 9533TIP3    H252795   6.937   4.952  11.208  0.5880  1.0975 -0.2510
 9534TIP3   OH252796   1.729   4.929  11.422  0.3890 -0.4136 -0.3145
 9534TIP3    H152797   1.652   4.981  11.442  1.5179  0.8219  1.0386
 9534TIP3    H252798   1.741   4.873  11.498  2.6620  1.7715  1.0945
 9535TIP3   OH252799   4.123   2.839  10.616 -0.6433 -0.1608 -0.3063
 9535TIP3    H152800   4.035   2.809  10.636 -0.9444  1.2347  0.5437
 9535TIP3    H252801   4.173   2.825  10.697 -0.0397 -1.0278 -0.8078
 9536TIP3   OH252802   5.107   4.027  11.014 -0.4892 -0.3755  0.1952
 9536TIP3    H152803   5.059   4.056  10.937 -0.7036 -1.0186  0.0825
 9536TIP3    H252804   5.040   3.994  11.074 -0.2890 -0.2458  0.4910
 9537TIP3   OH252805   4.786   5.880  10.676  0.2619 -0.1856  0.4312
 9537TIP3    H152806   4.880   5.876  10.657 -0.0788 -1.2600 -1.2342
 9537TIP3    H252807   4.781   5.872  10.771  1.8486 -0.2666  0.5457
 9538TIP3   OH252808   0.464   6.098  11.210 -0.6713 -0.3111  0.1299
 9538TIP3    H152809   0.548   6.101  11.165 -0.1045 -1.9601  0.9861
 9538TIP3    H252810   0.399   6.091  11.139 -0.1459  1.1763 -0.5404
 9539TIP3   OH252811   0.790   3.868  12.334  0.5708  0.5939 -0.1489
 9539TIP3    H152812   0.798   3.820  12.251  0.4190  0.1988  0.0652
 9539TIP3    H252813   0.707   3.839  12.370  0.7971  0.5047  0.3081
 9540TIP3   OH252814   4.034   7.457  12.311  0.2332 -0.0504 -0.1565
 9540TIP3    H152815   4.108   7.518  12.303 -0.5772  0.9479 -0.2314
 9540TIP3    H252816   4.066   7.389  12.370  2.0734 -0.9948 -2.0941
 9541TIP3   OH252817   3.429   6.027  10.959 -0.1923  0.2362 -0.0920
 9541TIP3    H152818   3.407   6.069  11.042  0.3785  0.5881 -0.1055
 9541TIP3    H252819   3.355   5.970  10.940 -0.2533  0.0212  0.7422
 9542TIP3   OH252820   4.642   6.222  11.508 -0.2578  0.0914 -0.0099
 9542TIP3    H152821   4.720   6.217  11.563 -0.0231  1.3447 -0.1965
 9542TIP3    H252822   4.657   6.297  11.450 -1.9086  0.8289  0.4462
 9543TIP3   OH252823   0.261   0.634  12.495 -0.1326  0.3848  0.3348
 9543TIP3    H152824   0.336   0.689  12.519  2.0205 -1.2950 -1.9326
 9543TIP3    H252825   0.284   0.547  12.528 -1.6277  0.0440  0.5283
 9544TIP3   OH252826   0.828   7.562  10.709 -0.1536 -0.9498 -0.0525
 9544TIP3    H152827   0.789   7.513  10.637  1.2221  0.4339 -1.8444
 9544TIP3    H252828   0.922   7.560  10.691  0.2617 -0.7720  1.8781
 9545TIP3   OH252829   4.072   5.760  11.744  0.1455 -0.1693  0.6723
 9545TIP3    H152830   4.097   5.737  11.655 -1.0085 -1.1441  0.5884
 9545TIP3    H252831   3.978   5.744  11.748 -0.2033  1.7455  1.4965
 9546TIP3   OH252832   4.885   1.974  10.766  0.0166  0.5046 -0.0440
 9546TIP3    H152833   4.889   1.977  10.671  1.5884  0.4147 -0.0128
 9546TIP3    H252834   4.880   2.066  10.793 -0.8271  0.5161 -0.2020
 9547TIP3   OH252835   1.519   0.571  11.522  0.5715  0.1594 -0.2537
 9547TIP3    H152836   1.476   0.648  11.486  1.3257  1.1915  0.9514
 9547TIP3    H252837   1.567   0.533  11.448 -1.4623 -0.3941 -1.3542
 9548TIP3   OH252838   6.332   5.777  11.636 -0.1278 -0.6336 -0.0270
 9548TIP3    H152839   6.380   5.771  11.553 -1.1481 -1.0978 -0.5936
 9548TIP3    H252840   6.240   5.765  11.612 -0.4799 -0.3524  1.1215
 9549TIP3   OH252841   5.910   3.156  10.345 -0.4895  0.2624  0.1895
 9549TIP3    H152842   5.926   3.136  10.437 -0.0731  0.1122  0.0862
 9549TIP3    H252843   5.815   3.171  10.339 -0.4599  0.6619  0.7136
 9550TIP3   OH252844   2.698   1.228  12.614  0.8484 -0.4066 -0.1035
 9550TIP3    H152845   2.612   1.255  12.581  0.4588 -1.0905  0.3369
 9550TIP3    H252846   2.732   1.170  12.546  0.5758 -0.8367  0.1214
 9551TIP3   OH252847   7.371   1.979  11.891  0.5552  0.3936 -0.0280
 9551TIP3    H152848   7.402   2.070  11.894 -1.1899  1.0208  0.2130
 9551TIP3    H252849   7.305   1.975  11.960 -0.4870 -0.6374 -1.0721
 9552TIP3   OH252850   1.327   6.761  11.209  0.5134 -0.1036  0.2179
 9552TIP3    H152851   1.310   6.721  11.124 -0.0541  1.6039 -0.5059
 9552TIP3    H252852   1.296   6.851  11.200 -1.5630 -0.4485  2.9095
 9553TIP3   OH252853   3.824   4.883  11.310  0.1086 -0.3538  0.4027
 9553TIP3    H152854   3.820   4.967  11.355 -3.7719 -0.5552  0.7191
 9553TIP3    H252855   3.839   4.819  11.379  0.4673 -0.1495  0.5151
 9554TIP3   OH252856   6.646   0.609  11.264 -0.2489  0.2112 -0.8696
 9554TIP3    H152857   6.724   0.661  11.279 -0.4205 -0.1401  1.8164
 9554TIP3    H252858   6.591   0.663  11.207  1.0392  1.4142 -1.0100
 9555TIP3   OH252859   3.669   6.634  11.105  0.0595 -0.0827 -0.0033
 9555TIP3    H152860   3.599   6.676  11.154  0.3389  1.3779 -0.7993
 9555TIP3    H252861   3.700   6.564  11.163 -0.0513  1.1518  1.6252
 9556TIP3   OH252862   3.624   6.701  12.495  0.8351  0.5402 -0.7439
 9556TIP3    H152863   3.630   6.739  12.408 -1.2797  0.0581 -1.1652
 9556TIP3    H252864   3.710   6.662  12.511  1.4221  1.1082 -2.3875
 9557TIP3   OH252865   4.775   1.253  10.957 -0.6315  0.5633  0.3720
 9557TIP3    H152866   4.788   1.342  10.922 -2.0274  0.8817  0.5928
 9557TIP3    H252867   4.686   1.255  10.993 -0.5062 -0.8013  0.7897
 9558TIP3   OH252868   5.289   4.033  11.651  0.1642  0.0901 -0.0370
 9558TIP3    H152869   5.357   4.010  11.588 -0.9423  1.4435 -1.8393
 9558TIP3    H252870   5.221   4.073  11.598 -2.4356 -1.8966  1.5710
 9559TIP3   OH252871   4.743   0.442  10.371  0.1596  0.3067 -0.0016
 9559TIP3    H152872   4.781   0.518  10.325 -0.8567  0.0639 -1.2837
 9559TIP3    H252873   4.650   0.462  10.377  0.1666  0.0323  1.4459
 9560TIP3   OH252874   5.288   3.823  12.171  0.3385 -0.5762  0.4725
 9560TIP3    H152875   5.232   3.900  12.177 -1.1738 -1.6998  1.6764
 9560TIP3    H252876   5.266   3.771  12.248  2.1420 -1.6865  0.2985
 9561TIP3   OH252877   1.432   0.991  11.716  0.6529 -0.4893 -0.2046
 9561TIP3    H152878   1.462   0.900  11.713  0.6492 -0.5517  0.9802
 9561TIP3    H252879   1.337   0.984  11.723  0.6998 -0.4368  0.6498
 9562TIP3   OH252880   7.547   1.329  11.470 -0.4045 -0.2660  0.0306
 9562TIP3    H152881   7.497   1.367  11.398 -0.5594 -2.6496 -1.2105
 9562TIP3    H252882   7.589   1.252  11.432  3.1733  0.8513  1.3764
 9563TIP3   OH252883   3.813   0.298  11.779 -0.4500  0.3067 -0.3537
 9563TIP3    H152884   3.862   0.232  11.730 -0.1130 -0.5618  1.0969
 9563TIP3    H252885   3.807   0.263  11.868 -2.6395  0.9514 -0.1670
 9564TIP3   OH252886   6.318   6.664  10.619 -0.5954 -0.1837  0.1283
 9564TIP3    H152887   6.348   6.709  10.698 -0.6674  0.1009 -0.0055
 9564TIP3    H252888   6.296   6.576  10.649  0.1412 -0.3275  0.2775
 9565TIP3   OH252889   6.785   2.896   9.886  0.0764  0.0041  0.1248
 9565TIP3    H152890   6.727   2.972   9.897 -0.2982 -0.2967  0.2365
 9565TIP3    H252891   6.849   2.904   9.957 -0.6220 -0.3772  0.8092
 9566TIP3   OH252892   0.919   1.708  11.379  0.9409  0.0371  0.4499
 9566TIP3    H152893   0.956   1.656  11.308  1.1783  1.8374 -0.8187
 9566TIP3    H252894   0.827   1.680  11.385  0.9383 -0.1819 -0.5260
 9567TIP3   OH252895   1.873   2.161  10.143 -0.5867 -0.0873 -0.4036
 9567TIP3    H152896   1.846   2.228  10.080 -0.8909 -0.1224 -0.3107
 9567TIP3    H252897   1.803   2.160  10.208 -0.5835 -0.4995 -0.4046
 9568TIP3   OH252898   2.506   2.237   9.846 -0.1468  0.3092 -0.3472
 9568TIP3    H152899   2.592   2.219   9.885 -0.1791  1.8921  0.5422
 9568TIP3    H252900   2.448   2.172   9.886  0.3044  0.3487  0.4056
 9569TIP3   OH252901   5.609   3.563  10.046  0.1783  0.6022 -0.1211
 9569TIP3    H152902   5.594   3.645   9.998 -0.9974  0.6966  0.3678
 9569TIP3    H252903   5.521   3.533  10.069  0.6304 -0.5210  0.1809
 9570TIP3   OH252904   7.050   5.373  10.795  0.6727  0.1245  0.8681
 9570TIP3    H152905   6.988   5.429  10.749  0.7641  0.0138  0.6113
 9570TIP3    H252906   7.015   5.368  10.884  0.7303  0.6952  0.9313
 9571TIP3   OH252907   6.355   0.103  11.071  0.1322 -0.2130 -0.2955
 9571TIP3    H152908   6.370   0.055  10.990  0.0977 -0.6844 -0.0238
 9571TIP3    H252909   6.328   0.037  11.134 -1.0104  0.3137 -0.2119
 9572TIP3   OH252910   4.716   7.289  11.498 -0.0816 -0.6047  0.1423
 9572TIP3    H152911   4.709   7.384  11.487  0.8253 -0.6196 -0.7749
 9572TIP3    H252912   4.773   7.278  11.574 -1.7329 -0.4479  1.4465
 9573TIP3   OH252913   4.193   1.203  11.265 -0.6067  0.2135 -0.9007
 9573TIP3    H152914   4.187   1.256  11.186 -0.8924  0.7412 -0.5350
 9573TIP3    H252915   4.144   1.252  11.331 -1.1917 -0.6912 -0.6405
 9574TIP3   OH252916   1.389   2.173  10.578  0.2630 -0.1016  0.1757
 9574TIP3    H152917   1.306   2.173  10.626  1.1697 -1.1947  1.8334
 9574TIP3    H252918   1.388   2.091  10.528  0.8159 -0.7026  1.1188
 9575TIP3   OH252919   4.604   5.987  12.323  0.0142  0.0793 -0.3583
 9575TIP3    H152920   4.553   6.060  12.359  0.7489 -0.3205  1.5808
 9575TIP3    H252921   4.539   5.921  12.301 -0.4901  0.4560 -0.0168
 9576TIP3   OH252922   5.707   5.515  10.391  0.4588  0.2500 -0.8989
 9576TIP3    H152923   5.700   5.444  10.456  2.3423 -0.8672 -1.8130
 9576TIP3    H252924   5.797   5.508  10.359  0.4938  2.6876 -1.4988
 9577TIP3   OH252925   3.032   0.802  11.609 -0.8208 -0.2073  0.1659
 9577TIP3    H152926   3.098   0.857  11.650 -0.6677  0.1518 -0.5494
 9577TIP3    H252927   3.055   0.802  11.516 -1.5001 -0.5260 -0.0080
 9578TIP3   OH252928   5.191   4.557  10.049  0.2135  0.1484 -0.4670
 9578TIP3    H152929   5.160   4.543  10.138 -0.2971 -1.2822 -0.8477
 9578TIP3    H252930   5.241   4.639  10.053  1.1079 -0.4575  1.3329
 9579TIP3   OH252931   4.009   4.481   9.930  0.3295 -0.5100 -0.2509
 9579TIP3    H152932   3.937   4.438   9.975 -0.1869 -0.8160 -1.3464
 9579TIP3    H252933   4.048   4.538   9.997 -0.8067 -0.4741  0.4103
 9580TIP3   OH252934   3.273   5.945  10.678  0.4803  0.1856  0.9401
 9580TIP3    H152935   3.367   5.925  10.671  0.4922  0.6963 -0.8747
 9580TIP3    H252936   3.271   6.032  10.717  0.8620  0.8216 -0.3902
 9581TIP3   OH252937   2.894   1.963  10.091  0.1078 -0.1121  0.0885
 9581TIP3    H152938   2.977   2.006  10.113 -0.3571  0.9661 -0.1812
 9581TIP3    H252939   2.851   1.950  10.176  1.3186 -2.3971  0.4312
 9582TIP3   OH252940   4.513   4.912  11.664  0.1080  0.2912  0.4798
 9582TIP3    H152941   4.426   4.924  11.626  1.1440  0.0758 -2.1773
 9582TIP3    H252942   4.520   4.818  11.680 -0.1039  0.2928  0.5755
 9583TIP3   OH252943   5.584   2.532  10.988  0.6216 -0.0586  0.0203
 9583TIP3    H152944   5.666   2.577  11.008 -0.4762  2.4412 -0.7366
 9583TIP3    H252945   5.526   2.601  10.954 -1.3916 -1.9596 -0.6404
 9584TIP3   OH252946   4.194   6.239  10.587 -0.3288  0.7902  0.3956
 9584TIP3    H152947   4.112   6.282  10.562 -1.5185 -1.6853 -0.3502
 9584TIP3    H252948   4.166   6.164  10.640  1.3663 -0.5600 -0.5290
 9585TIP3   OH252949   4.638   3.765   9.870  0.1215 -0.7131  0.7031
 9585TIP3    H152950   4.600   3.763   9.958  3.0416 -1.4350  2.0766
 9585TIP3    H252951   4.714   3.822   9.879  0.2056 -0.4202 -1.5177
 9586TIP3   OH252952   2.079   0.822  12.039  0.4207 -0.6845  0.4021
 9586TIP3    H152953   2.025   0.752  12.074 -0.0334  0.2145  1.5780
 9586TIP3    H252954   2.169   0.792  12.051  0.2960 -0.3261  2.6316
 9587TIP3   OH252955   5.220   1.316  11.725 -0.3786  0.0414  0.0710
 9587TIP3    H152956   5.231   1.229  11.688 -1.0075 -0.0871  0.1599
 9587TIP3    H252957   5.304   1.337  11.765  0.2419  0.0910 -1.2086
 9588TIP3   OH252958   6.190   7.472  10.860 -0.3475  0.3554 -0.1577
 9588TIP3    H152959   6.283   7.471  10.881 -0.2115 -0.0173 -0.7527
 9588TIP3    H252960   6.168   7.565  10.851  0.1053  0.4232 -0.6053
 9589TIP3   OH252961   7.155   2.797  11.094 -0.2208  0.1294  0.2234
 9589TIP3    H152962   7.247   2.821  11.109  0.2274 -1.8998  1.0117
 9589TIP3    H252963   7.133   2.740  11.167 -1.5209 -0.9877 -0.9920
 9590TIP3   OH252964   2.568   3.290   9.468 -0.8966  0.1600  0.3796
 9590TIP3    H152965   2.556   3.353   9.539  0.2720  0.0798  0.6779
 9590TIP3    H252966   2.637   3.328   9.414  0.9576 -1.5457  1.4319
 9591TIP3   OH252967   2.379   5.986  10.367 -0.1141  0.0548  0.0312
 9591TIP3    H152968   2.409   6.009  10.455  1.1952 -0.2218 -0.3237
 9591TIP3    H252969   2.285   5.971  10.377 -0.3715  1.9796  0.9838
 9592TIP3   OH252970   7.280   0.092  12.553  0.2976 -0.3398  0.2649
 9592TIP3    H152971   7.323   0.064  12.634 -0.4804 -0.2112  0.7382
 9592TIP3    H252972   7.289   0.017  12.494 -0.7753 -1.1873  1.1296
 9593TIP3   OH252973   5.492   5.166  12.312 -0.0333 -0.4790 -0.1837
 9593TIP3    H152974   5.515   5.116  12.233 -1.9910 -0.3388 -0.8943
 9593TIP3    H252975   5.523   5.111  12.384  1.9769 -0.5141 -1.0251
 9594TIP3   OH252976   4.748   2.826  11.633  0.3857  0.2768  0.8036
 9594TIP3    H152977   4.729   2.780  11.714 -1.3270  0.8184  0.7470
 9594TIP3    H252978   4.684   2.793  11.571  1.4610  0.1067 -0.2665
 9595TIP3   OH252979   6.677   4.286  12.283  0.1642  0.5086 -0.1119
 9595TIP3    H152980   6.615   4.226  12.326 -1.6063  1.6616 -0.9214
 9595TIP3    H252981   6.626   4.325  12.211  1.3810  2.6190  0.1004
 9596TIP3   OH252982   6.379   2.369  12.317 -0.1366  0.3125  0.1186
 9596TIP3    H152983   6.392   2.291  12.371  0.8478  0.7797  0.5750
 9596TIP3    H252984   6.285   2.369  12.298 -0.1900 -0.8590  0.2949
 9597TIP3   OH252985   2.724   2.907  10.877  0.3788  0.0465 -0.1219
 9597TIP3    H152986   2.759   2.840  10.936 -0.0183 -0.0876 -0.0340
 9597TIP3    H252987   2.745   2.875  10.789  0.9279  0.2216 -0.0541
 9598TIP3   OH252988   2.773   2.470  10.970  0.6505 -0.4022 -0.3395
 9598TIP3    H152989   2.689   2.514  10.982  0.0874 -1.4728 -0.2959
 9598TIP3    H252990   2.832   2.513  11.033  0.4755  1.1612 -1.1859
 9599TIP3   OH252991   2.325   7.670  12.411  0.6835 -0.2657  0.2294
 9599TIP3    H152992   2.338   7.759  12.377  0.5786 -0.6250 -0.7701
 9599TIP3    H252993   2.340   7.679  12.505 -0.3929  1.0278  0.3159
 9600TIP3   OH252994   0.393   5.191  10.996 -0.7752 -0.2922  0.3544
 9600TIP3    H152995   0.461   5.259  10.996 -0.2410 -0.8280  0.1301
 9600TIP3    H252996   0.335   5.215  10.924 -0.7657  0.1009  0.4747
 9601TIP3   OH252997   4.633   1.984  10.159  0.6233  0.3231 -0.1783
 9601TIP3    H152998   4.596   1.923  10.096  3.7225 -0.1753 -1.7246
 9601TIP3    H252999   4.691   1.931  10.213  0.8649  1.3740  0.6279
 9602TIP3   OH253000   6.647   0.649  12.397 -0.2113 -0.4018 -0.8474
 9602TIP3    H153001   6.677   0.740  12.399  2.2037 -1.1435 -0.7361
 9602TIP3    H253002   6.579   0.645  12.464  0.6677  0.9958  0.1748
 9603TIP3   OH253003   5.304   6.594   9.836  0.2933 -0.1088 -0.0381
 9603TIP3    H153004   5.215   6.612   9.807 -0.0116  1.7333  1.8493
 9603TIP3    H253005   5.295   6.516   9.892 -0.0478 -0.2665 -0.3098
 9604TIP3   OH253006   6.220   0.581  11.663 -0.7455  0.3090 -0.1056
 9604TIP3    H153007   6.167   0.525  11.719 -0.8717  0.2748 -0.2573
 9604TIP3    H253008   6.305   0.539  11.660 -0.7537  0.2846  0.0217
 9605TIP3   OH253009   3.477   5.435  12.748 -0.1776  0.9851  0.3509
 9605TIP3    H153010   3.562   5.429  12.792  0.7094  0.8354 -1.2891
 9605TIP3    H253011   3.489   5.506  12.685 -1.3081  1.0187  0.1683
 9606TIP3   OH253012   2.812   1.785  12.063 -0.0561  0.1825 -0.3712
 9606TIP3    H153013   2.838   1.869  12.101  0.0165  0.7904 -1.7158
 9606TIP3    H253014   2.813   1.724  12.137  0.5974  1.2025  0.4887
 9607TIP3   OH253015   4.329   2.110  10.651  0.1094  0.3830 -0.1507
 9607TIP3    H153016   4.258   2.130  10.712 -0.9136  0.2454 -1.2582
 9607TIP3    H253017   4.376   2.193  10.640 -0.0469  0.5431  0.3577
 9608TIP3   OH253018   0.557   6.157  12.181 -0.2808  0.0608  0.0276
 9608TIP3    H153019   0.545   6.064  12.201  2.2596 -0.1265  1.1023
 9608TIP3    H253020   0.584   6.196  12.264  0.0413  1.4751 -0.7147
 9609TIP3   OH253021   1.281   5.442  12.345 -0.0393 -0.2238  0.0277
 9609TIP3    H153022   1.226   5.414  12.272 -0.7679 -0.0719  0.5018
 9609TIP3    H253023   1.231   5.419  12.423  0.9387 -0.8156  0.4980
 9610TIP3   OH253024   4.346   0.770  11.111  0.7277  0.1736 -0.2815
 9610TIP3    H153025   4.373   0.839  11.172  0.9816  0.0656 -0.2699
 9610TIP3    H253026   4.276   0.725  11.156  0.5633  0.4214 -0.2866
 9611TIP3   OH253027   4.827   1.306  10.577  0.1534 -0.4861  0.5270
 9611TIP3    H153028   4.887   1.243  10.616 -1.2175 -2.3973 -0.3226
 9611TIP3    H253029   4.882   1.383  10.559  2.0107 -1.6175  1.0533
 9612TIP3   OH253030   0.724   2.176  11.578 -0.3286 -0.1064  0.3224
 9612TIP3    H153031   0.775   2.140  11.505 -0.4187 -1.3438  0.8474
 9612TIP3    H253032   0.788   2.220  11.632 -0.3931  1.7147 -0.9875
 9613TIP3   OH253033   5.574   6.472   9.966  0.2049 -0.1735 -0.1629
 9613TIP3    H153034   5.649   6.486  10.024 -0.5803 -1.1239  1.1529
 9613TIP3    H253035   5.564   6.555   9.919  0.8708  0.6623  1.0934
 9614TIP3   OH253036   2.200   2.767  10.671  0.2251 -0.1007  0.5447
 9614TIP3    H153037   2.226   2.760  10.580  0.8464  0.6234  0.6553
 9614TIP3    H253038   2.143   2.844  10.675 -1.2992 -1.1671  0.4634
 9615TIP3   OH253039   1.519   2.733  11.322  0.2192  0.3117  0.4896
 9615TIP3    H153040   1.467   2.706  11.247  0.6348 -0.5371  0.4934
 9615TIP3    H253041   1.481   2.687  11.397  0.9408 -0.2884  0.4965
 9616TIP3   OH253042   1.796   0.477  10.838  0.3396 -0.3239  0.2478
 9616TIP3    H153043   1.823   0.550  10.784  0.7034  1.3158  2.5003
 9616TIP3    H253044   1.816   0.399  10.786  0.9917  1.1232 -1.7575
 9617TIP3   OH253045   2.717   0.499  11.937  0.2047 -0.0302 -0.2785
 9617TIP3    H153046   2.776   0.424  11.926  2.0149  1.6015 -2.7483
 9617TIP3    H253047   2.673   0.507  11.853 -3.1040 -0.6828  1.2435
 9618TIP3   OH253048   0.670   2.455  10.469 -0.1499 -0.2932  0.2539
 9618TIP3    H153049   0.658   2.506  10.549  0.9326 -0.3680  0.4741
 9618TIP3    H253050   0.708   2.517  10.406 -1.8524  0.0177 -0.5254
 9619TIP3   OH253051   0.019   1.875  11.318 -0.1680 -0.3652  0.1365
 9619TIP3    H153052   0.009   1.966  11.291  0.7413 -0.4849 -0.6115
 9619TIP3    H253053  -0.035   1.825  11.256  0.3353 -0.4522 -0.2334
 9620TIP3   OH253054   0.711   3.475  11.314  0.1037 -0.2997 -0.5735
 9620TIP3    H153055   0.656   3.403  11.345 -1.0917 -0.6925 -3.3593
 9620TIP3    H253056   0.674   3.553  11.355  0.7624 -1.0718  1.6358
 9621TIP3   OH253057   4.468   6.680  12.187  0.3325  0.3116  0.1955
 9621TIP3    H153058   4.407   6.731  12.240  0.6755 -0.8764  1.8095
 9621TIP3    H253059   4.470   6.594  12.229  1.8268 -0.1921 -0.8294
 9622TIP3   OH253060   0.694   6.546  10.082 -0.0886 -0.0140  0.1830
 9622TIP3    H153061   0.608   6.503  10.078  0.8836 -2.2397  1.4334
 9622TIP3    H253062   0.711   6.573   9.992 -0.9611 -1.9911 -0.6467
 9623TIP3   OH253063   7.316   4.453  11.995 -0.0900  0.0738  0.5631
 9623TIP3    H153064   7.322   4.488  11.907  0.3253  0.4971  0.7565
 9623TIP3    H253065   7.286   4.527  12.049  0.6581  0.1066  0.9482
 9624TIP3   OH253066   6.553   3.809  10.346  0.1055  0.0952  0.2960
 9624TIP3    H153067   6.478   3.751  10.333  0.5910 -0.0721 -2.0704
 9624TIP3    H253068   6.629   3.752  10.340  0.6025  0.9217 -2.3429
 9625TIP3   OH253069   6.411   6.705  11.949  0.6741  0.4137 -0.3776
 9625TIP3    H153070   6.401   6.615  11.918 -2.6393  0.4597  0.2375
 9625TIP3    H253071   6.440   6.696  12.040 -1.9531 -0.2442  0.4890
 9626TIP3   OH253072   5.554   0.940  10.992  0.0498 -0.0093 -0.8586
 9626TIP3    H153073   5.490   1.012  10.991  0.0958  0.1205  1.1881
 9626TIP3    H253074   5.518   0.878  11.055  0.3600 -1.4744 -2.0944
 9627TIP3   OH253075   6.834   0.829  10.605 -0.1423 -0.4120 -0.2599
 9627TIP3    H153076   6.867   0.919  10.608 -1.1157 -0.0379 -0.3586
 9627TIP3    H253077   6.897   0.782  10.551  0.3779  0.2098 -0.2060
 9628TIP3   OH253078   3.883   4.645  11.489  0.5247  0.3065  0.3719
 9628TIP3    H153079   3.927   4.634  11.573  2.2553  0.6650 -0.4415
 9628TIP3    H253080   3.912   4.569  11.437  0.9407  1.0388 -0.4871
 9629TIP3   OH253081   6.298   4.452  11.553 -0.6826  0.5709 -0.3852
 9629TIP3    H153082   6.208   4.427  11.571  0.2610 -1.9812  1.5025
 9629TIP3    H253083   6.319   4.406  11.471 -0.7614  0.1851 -0.1914
 9630TIP3   OH253084   5.106   2.864  11.079 -0.2356 -0.4197  0.3212
 9630TIP3    H153085   5.042   2.795  11.097  0.5615 -0.9487  1.2837
 9630TIP3    H253086   5.182   2.816  11.045 -0.2696  0.1748 -0.6151
 9631TIP3   OH253087   6.124   1.721  10.215 -0.4719  0.3886 -0.8275
 9631TIP3    H153088   6.151   1.663  10.287 -0.0655  0.1373 -1.1748
 9631TIP3    H253089   6.028   1.719  10.218 -0.4604  0.5795 -0.1377
 9632TIP3   OH253090   6.225   6.481  12.582  1.1709  0.1990 -0.3490
 9632TIP3    H153091   6.266   6.565  12.601  0.0500  0.5979  0.3365
 9632TIP3    H253092   6.139   6.503  12.546  0.4581 -0.6448  0.7729
 9633TIP3   OH253093   6.037   6.003  11.706  0.0621 -0.9181 -0.8966
 9633TIP3    H153094   6.050   5.933  11.641  1.1851  0.3426 -2.0872
 9633TIP3    H253095   6.125   6.034  11.725 -0.3452 -0.5461  0.4468
 9634TIP3   OH253096   5.088   6.332  10.856  0.2040  0.0972  0.4198
 9634TIP3    H153097   5.137   6.339  10.938  1.1339 -0.7063 -0.0429
 9634TIP3    H253098   5.119   6.405  10.802 -0.8850  1.0170  1.0014
 9635TIP3   OH253099   5.705   5.079   9.976  0.0891 -0.0448 -0.2043
 9635TIP3    H153100   5.783   5.102   9.926 -1.2855  1.4587 -1.7694
 9635TIP3    H253101   5.659   5.162   9.988 -2.3377 -1.1498 -1.2281
 9636TIP3   OH253102   5.584   1.661  10.823  0.3818 -0.0766 -0.1850
 9636TIP3    H153103   5.502   1.644  10.868 -0.6251  3.8571 -0.0952
 9636TIP3    H253104   5.651   1.656  10.892 -0.4791  1.0604  0.7916
 9637TIP3   OH253105   2.886   3.749  11.682 -0.1712  0.4552 -0.1100
 9637TIP3    H153106   2.799   3.787  11.671  0.1843  1.0750 -0.8443
 9637TIP3    H253107   2.946   3.824  11.680  0.3858  0.0332  0.3378
 9638TIP3   OH253108   3.533   3.448  11.454 -0.2038  0.0794 -0.2350
 9638TIP3    H153109   3.547   3.354  11.455 -0.8439 -0.0722 -1.9465
 9638TIP3    H253110   3.488   3.467  11.536 -0.0915 -1.0993  0.1144
 9639TIP3   OH253111   4.474   1.038   9.918  0.5841 -0.8516  0.3570
 9639TIP3    H153112   4.435   1.122   9.893  2.5849 -0.2302 -0.8931
 9639TIP3    H253113   4.465   1.034  10.013  1.0575  1.1136  0.5165
 9640TIP3   OH253114   6.040   7.246  12.156  0.0698  0.0795 -0.1314
 9640TIP3    H153115   6.035   7.284  12.068 -0.1530  0.1498 -0.0893
 9640TIP3    H253116   6.061   7.320  12.213 -1.8753  0.4573  0.1624
 9641TIP3   OH253117   0.577   2.923  11.494  0.2039  0.0765  0.1344
 9641TIP3    H153118   0.624   2.981  11.435  3.0817 -1.2975  0.8808
 9641TIP3    H253119   0.562   2.975  11.574 -0.1459  0.7276 -0.3493
 9642TIP3   OH253120   1.389   4.514  10.251  0.0316 -0.2201  0.5071
 9642TIP3    H153121   1.405   4.568  10.173 -0.6649  0.0759  0.5650
 9642TIP3    H253122   1.468   4.460  10.259 -0.3169 -1.0473 -1.0553
 9643TIP3   OH253123   3.786   7.526  12.235  0.1495  0.2190  0.1961
 9643TIP3    H153124   3.871   7.495  12.265  0.4822 -1.0386 -1.8465
 9643TIP3    H253125   3.807   7.592  12.169 -0.4579  0.2109 -0.0132
 9644TIP3   OH253126   2.305   5.379  11.653  0.0701 -0.2515  0.0207
 9644TIP3    H153127   2.349   5.416  11.729  0.6871  3.5668 -1.9300
 9644TIP3    H253128   2.212   5.386  11.673  0.2285  0.2110  0.6107
 9645TIP3   OH253129   3.665   2.964  10.685 -0.3523  0.3022  0.1807
 9645TIP3    H153130   3.722   2.888  10.674 -1.2793 -0.5579  1.1049
 9645TIP3    H253131   3.712   3.036  10.642  1.3530 -0.4049  0.7681
 9646TIP3   OH253132   5.507   7.277  11.107 -0.0563 -0.4059 -0.4054
 9646TIP3    H153133   5.592   7.242  11.133  0.6385  1.4221 -0.0451
 9646TIP3    H253134   5.527   7.365  11.074 -1.9212  0.4899  0.7219
 9647TIP3   OH253135   1.775   1.136   9.920 -0.0300 -0.1725  0.0704
 9647TIP3    H153136   1.745   1.190   9.993  0.0215  0.4079 -0.3314
 9647TIP3    H253137   1.725   1.168   9.845  0.6900 -0.0417 -0.3579
 9648TIP3   OH253138   1.526   3.073  10.659  0.6314 -0.5290 -0.0711
 9648TIP3    H153139   1.537   3.163  10.690  0.8102 -0.6299  0.1611
 9648TIP3    H253140   1.527   3.020  10.739 -0.0640 -0.6829 -0.1515
 9649TIP3   OH253141   6.554   1.105  10.063  0.1691 -0.1802  0.4495
 9649TIP3    H153142   6.485   1.070  10.006  0.6072 -1.3552  0.6307
 9649TIP3    H253143   6.569   1.194  10.030  0.2053 -0.7297 -1.0760
 9650TIP3   OH253144   5.445   2.472  11.632 -0.3750  0.2616 -0.1698
 9650TIP3    H153145   5.417   2.559  11.660 -1.1984  0.1739 -0.6647
 9650TIP3    H253146   5.403   2.412  11.695 -0.4002  0.1873 -0.2567
 9651TIP3   OH253147   1.088   2.144  10.343 -0.5903  0.2710  0.0920
 9651TIP3    H153148   1.057   2.204  10.412  0.6851 -0.0401  0.9613
 9651TIP3    H253149   1.058   2.058  10.371  2.2491 -0.2839  1.7847
 9652TIP3   OH253150   5.165   4.215  12.019  0.1164 -0.2526 -0.8161
 9652TIP3    H153151   5.259   4.222  12.008  0.1523 -0.6207 -0.7834
 9652TIP3    H253152   5.128   4.286  11.967  0.3571 -0.9079 -1.9151
 9653TIP3   OH253153   6.757   4.374  11.109 -0.4468 -1.1349  0.2531
 9653TIP3    H153154   6.815   4.352  11.182  0.4119 -0.2571 -0.1392
 9653TIP3    H253155   6.669   4.370  11.146 -0.0521 -1.1956  1.2055
 9654TIP3   OH253156   0.272   3.141  12.795  0.2558 -0.3484 -0.4810
 9654TIP3    H153157   0.270   3.094  12.711  0.6836 -2.3196  0.5639
 9654TIP3    H253158   0.181   3.143  12.823  0.0819  0.4941 -1.0462
 9655TIP3   OH253159   3.941   6.871  10.784 -0.2820  0.5208 -0.1444
 9655TIP3    H153160   4.015   6.906  10.834  0.4951  0.0615 -0.9217
 9655TIP3    H253161   3.940   6.778  10.804  1.1419 -0.0260 -2.2157
 9656TIP3   OH253162   4.255   0.879  12.247 -0.4406 -0.1209 -0.0684
 9656TIP3    H153163   4.320   0.945  12.268 -0.0426 -0.7472  0.6996
 9656TIP3    H253164   4.186   0.927  12.202 -0.3458  0.8839  0.8261
 9657TIP3   OH253165   1.681   0.173   9.835 -0.1518 -0.4039 -0.6622
 9657TIP3    H153166   1.767   0.199   9.802  0.3709 -0.9919  0.2083
 9657TIP3    H253167   1.628   0.253   9.828 -0.2109 -0.5922 -3.2711
 9658TIP3   OH253168   0.526   2.466  12.039  0.3270 -0.1485 -0.5780
 9658TIP3    H153169   0.501   2.376  12.016 -0.1544 -0.8938  2.4106
 9658TIP3    H253170   0.552   2.460  12.131  0.8884  2.6982 -0.4792
 9659TIP3   OH253171   3.563   6.678   9.929 -0.2913  0.3558  0.3854
 9659TIP3    H153172   3.612   6.726   9.862 -1.7355  1.4954  0.1269
 9659TIP3    H253173   3.482   6.652   9.886 -0.3856 -0.6306  1.1169
 9660TIP3   OH253174   7.165   5.001   9.783 -0.1374  0.1660 -0.5138
 9660TIP3    H153175   7.169   4.929   9.846  0.8235 -0.2821 -1.0709
 9660TIP3    H253176   7.119   5.071   9.830  0.4038 -0.2161  0.6314
 9661TIP3   OH253177   4.929   1.117  10.789 -0.8673  0.0505 -0.5241
 9661TIP3    H153178   4.864   1.163  10.842 -0.6005 -0.4812  0.2806
 9661TIP3    H253179   4.909   1.024  10.804  0.4326 -0.1324  0.1870
 9662TIP3   OH253180   5.137   1.348  10.860  0.3576 -0.1732  0.4183
 9662TIP3    H153181   5.108   1.265  10.897  0.1880 -0.3500 -0.1033
 9662TIP3    H253182   5.179   1.324  10.777 -0.5268  0.3440 -0.1887
 9663TIP3   OH253183   4.648   6.778   9.802  0.0118  0.2523  0.5803
 9663TIP3    H153184   4.570   6.769   9.748 -0.0878  1.4827  0.4946
 9663TIP3    H253185   4.616   6.809   9.887  0.2501 -0.8562  1.0942
 9664TIP3   OH253186   6.737   2.985  11.543  0.3505  0.1116 -0.1825
 9664TIP3    H153187   6.811   2.930  11.568 -0.4822 -2.0373 -2.1388
 9664TIP3    H253188   6.669   2.964  11.607  0.2677 -0.6442 -0.5128
 9665TIP3   OH253189   5.270   7.171  10.812  0.6952  0.0144  0.0018
 9665TIP3    H153190   5.246   7.100  10.873  1.0610  0.7424  1.0262
 9665TIP3    H253191   5.201   7.237  10.824  0.5771  0.0108 -0.6455
 9666TIP3   OH253192   5.552   1.289  12.135 -0.2870  0.0045 -0.0112
 9666TIP3    H153193   5.558   1.194  12.146  1.1714  0.1991  1.2603
 9666TIP3    H253194   5.491   1.317  12.203 -0.0372  0.0510  0.1976
 9667TIP3   OH253195   0.114   5.998  10.055  0.0291  0.5806  0.1350
 9667TIP3    H153196   0.037   6.003   9.998 -1.0585  1.2620  1.5658
 9667TIP3    H253197   0.139   5.906  10.055 -1.0784  0.2678 -0.0221
 9668TIP3   OH253198   3.737   6.011   9.992  0.1392  0.0286 -0.1689
 9668TIP3    H153199   3.662   6.071   9.988  0.6620  0.7349  0.4661
 9668TIP3    H253200   3.703   5.929   9.956 -0.8262  0.4563 -0.2741
 9669TIP3   OH253201   7.536   1.694  12.166 -0.0549 -0.1801  0.5453
 9669TIP3    H153202   7.565   1.778  12.132  0.6525 -1.1624 -1.4545
 9669TIP3    H253203   7.575   1.630  12.107 -2.1024 -1.8212  0.8636
 9670TIP3   OH253204   3.992   1.550  11.240  0.0211  0.1730  0.4519
 9670TIP3    H153205   4.046   1.505  11.175 -0.3993 -0.8127  0.7724
 9670TIP3    H253206   4.001   1.643  11.218 -0.6018 -0.1617 -1.3982
 9671TIP3   OH253207   3.340   7.374  11.266 -0.3099  0.7307  0.1445
 9671TIP3    H153208   3.327   7.415  11.352  0.0043  0.2079  0.4473
 9671TIP3    H253209   3.435   7.370  11.255 -0.3447  0.6072 -0.1360
 9672TIP3   OH253210   2.014   1.026  11.419 -0.5646 -0.0716  0.2338
 9672TIP3    H153211   1.951   0.996  11.353 -0.9967 -1.6332  1.3057
 9672TIP3    H253212   2.037   1.114  11.391 -1.7287 -0.1978 -1.2791
 9673TIP3   OH253213   3.943   5.563  10.037 -0.8060 -0.5676 -0.4091
 9673TIP3    H153214   4.032   5.568  10.072 -1.0361 -0.4217  0.1747
 9673TIP3    H253215   3.945   5.490   9.976 -0.5561 -1.2504  0.4023
 9674TIP3   OH253216   4.675   4.548  11.838 -0.1652  0.1232  0.0144
 9674TIP3    H153217   4.624   4.541  11.758 -0.2690 -2.2993  0.2152
 9674TIP3    H253218   4.689   4.457  11.866  2.1968  0.7799  1.2647
 9675TIP3   OH253219   5.095   6.378  11.622  0.7308  0.4956  0.2619
 9675TIP3    H153220   5.068   6.347  11.536 -2.2881 -0.0355  1.2960
 9675TIP3    H253221   5.183   6.342  11.634  1.0337  0.1900 -2.3476
 9676TIP3   OH253222   2.374   0.959  12.815 -0.0381 -0.0007  0.6213
 9676TIP3    H153223   2.448   0.908  12.781  0.6900  0.8602  0.8604
 9676TIP3    H253224   2.413   1.042  12.842 -1.1456  0.5783  0.5012
 9677TIP3   OH253225   7.373   0.805  12.605 -0.0680  0.2033  0.3452
 9677TIP3    H153226   7.341   0.725  12.645  0.4044  0.7036  1.7880
 9677TIP3    H253227   7.387   0.865  12.678  0.2003  1.3871 -0.6377
 9678TIP3   OH253228   4.308   3.434  10.708  0.0410 -0.0867 -0.1969
 9678TIP3    H153229   4.263   3.404  10.787 -1.5824  2.1541 -0.1526
 9678TIP3    H253230   4.262   3.392  10.636 -2.1161  1.9416 -0.1325
 9679TIP3   OH253231   7.288   2.387  10.173  0.2121 -0.1376  0.3947
 9679TIP3    H153232   7.359   2.397  10.110  0.2452 -1.8154  0.1314
 9679TIP3    H253233   7.208   2.391  10.120  0.1338  0.7985  0.5691
 9680TIP3   OH253234   4.014   3.549  10.386 -0.0055  0.1238 -0.2913
 9680TIP3    H153235   4.034   3.628  10.336 -2.6634  0.3726 -1.1319
 9680TIP3    H253236   3.959   3.497  10.327  1.2649 -2.1674  0.4231
 9681TIP3   OH253237   0.230   1.540  10.816  0.1325  0.4102  0.6066
 9681TIP3    H153238   0.292   1.563  10.885  0.4155  0.2846  0.3987
 9681TIP3    H253239   0.218   1.445  10.825  1.4509  0.0910 -0.5353
 9682TIP3   OH253240   0.160   3.200  11.686  0.4568 -0.0087 -0.0679
 9682TIP3    H153241   0.194   3.280  11.726  0.0116 -0.2570  0.8356
 9682TIP3    H253242   0.068   3.198  11.712  0.7644 -1.4496  0.9540
 9683TIP3   OH253243   2.463   4.634  10.234 -0.2572  0.3363  0.5634
 9683TIP3    H153244   2.486   4.698  10.167  0.1532 -0.6348 -0.2471
 9683TIP3    H253245   2.394   4.581  10.194  0.0356 -0.2948  0.8783
 9684TIP3   OH253246   1.105   2.171  10.641  0.0153  0.3562  0.4707
 9684TIP3    H153247   1.092   2.178  10.736  0.5744  1.3400  0.4855
 9684TIP3    H253248   1.029   2.217  10.604 -0.8396 -1.0407  0.3909
 9685TIP3   OH253249   7.345   7.245  10.675 -0.2620  0.2315  0.2757
 9685TIP3    H153250   7.271   7.189  10.699  0.7576 -0.8990  0.8225
 9685TIP3    H253251   7.410   7.230  10.743  0.5171  1.1476 -0.2511
 9686TIP3   OH253252   0.663   6.415  10.425  0.2616  0.6101  0.2820
 9686TIP3    H153253   0.753   6.444  10.438  0.7651  0.6590 -2.6342
 9686TIP3    H253254   0.671   6.331  10.379 -1.2025  0.1583  0.7903
 9687TIP3   OH253255   3.071   3.686  11.331 -0.3403  0.4925  0.1622
 9687TIP3    H153256   3.118   3.638  11.400  0.7221 -0.7849 -1.3883
 9687TIP3    H253257   3.132   3.754  11.304 -0.5249  0.6246  0.0790
 9688TIP3   OH253258   5.289   2.292  11.783 -0.3298 -0.7565  0.2070
 9688TIP3    H153259   5.357   2.228  11.763  1.0050  0.0874  1.8268
 9688TIP3    H253260   5.232   2.247  11.845  0.6981 -0.3629  1.4712
 9689TIP3   OH253261   5.066   5.902  10.881  0.4407  0.0679 -0.2505
 9689TIP3    H153262   5.148   5.868  10.847  0.4206 -1.9588  1.4755
 9689TIP3    H253263   5.008   5.826  10.883 -1.3108  1.3140 -0.8598
 9690TIP3   OH253264   0.791   3.743  10.536 -0.0426 -0.0247  0.2558
 9690TIP3    H153265   0.833   3.723  10.452 -0.1877  0.8892 -0.0424
 9690TIP3    H253266   0.862   3.777  10.590  0.1112 -0.8871  0.6112
 9691TIP3   OH253267   0.987   1.843  10.404 -0.9962 -0.0551  0.3273
 9691TIP3    H153268   0.944   1.841  10.318 -3.0318  0.4102  1.2744
 9691TIP3    H253269   0.995   1.751  10.429 -2.1658 -0.1269  0.4581
 9692TIP3   OH253270   4.523   3.530   9.786 -0.0736  0.1279  0.0003
 9692TIP3    H153271   4.470   3.534   9.706  1.8314 -1.1771 -1.4382
 9692TIP3    H253272   4.557   3.619   9.797 -2.2371  0.9045  0.7723
 9693TIP3   OH253273   3.292   5.354  10.960 -0.1418 -0.2475  0.0825
 9693TIP3    H153274   3.317   5.334  10.870 -1.7486 -0.2573 -0.4027
 9693TIP3    H253275   3.364   5.321  11.013  1.1036  0.2739 -1.2223
 9694TIP3   OH253276   4.081   2.401   9.934 -0.2101  0.0716 -0.0766
 9694TIP3    H153277   4.027   2.473   9.902 -0.7596 -0.0048  0.6600
 9694TIP3    H253278   4.151   2.444   9.983 -2.2909  0.1366  3.1938
 9695TIP3   OH253279   0.481   4.353  10.295  0.3656  0.0944  0.3016
 9695TIP3    H153280   0.543   4.409  10.249 -0.1367 -1.5431 -2.6693
 9695TIP3    H253281   0.411   4.412  10.323  0.7264  1.2300 -1.0739
 9696TIP3   OH253282   2.658   6.880  11.162 -0.1777  0.1879 -0.0362
 9696TIP3    H153283   2.590   6.936  11.124  0.1056  1.6542  1.5199
 9696TIP3    H253284   2.740   6.914  11.124 -0.0733  0.3273  0.3128
 9697TIP3   OH253285   4.377   3.967  11.482 -0.2573 -0.4995  0.2423
 9697TIP3    H153286   4.371   3.981  11.576 -1.0938 -2.4575  0.5307
 9697TIP3    H253287   4.434   3.890  11.473  0.1342 -0.1044 -0.8862
 9698TIP3   OH253288   3.212   3.698  11.735 -0.1286  0.3244 -0.0802
 9698TIP3    H153289   3.141   3.646  11.772  0.7981 -0.2003  1.0519
 9698TIP3    H253290   3.198   3.786  11.770 -1.1649  0.6404 -1.2371
 9699TIP3   OH253291   1.442   4.646   9.982  0.2431  0.4776 -0.3628
 9699TIP3    H153292   1.435   4.742   9.981  0.1668  0.5127  1.1243
 9699TIP3    H253293   1.373   4.616   9.924 -0.7007  1.3105  0.2984
 9700TIP3   OH253294   2.029   7.503   9.888  0.0382 -0.2414  0.1626
 9700TIP3    H153295   2.001   7.542   9.972 -1.6467 -0.2597 -0.3388
 9700TIP3    H253296   2.071   7.575   9.841 -0.2333  0.1386  0.4949
 9701TIP3   OH253297   5.079   4.153  11.498 -1.2947 -0.2654  0.1841
 9701TIP3    H153298   5.020   4.107  11.439 -1.3567 -1.4481  1.1264
 9701TIP3    H253299   5.025   4.220  11.540 -2.4209 -2.2196  2.0687
 9702TIP3   OH253300   7.005   1.219  12.091 -0.3400 -0.1935  0.3847
 9702TIP3    H153301   7.063   1.161  12.141  0.5059  0.4339  0.1579
 9702TIP3    H253302   6.972   1.281  12.156  2.1986  1.7755 -0.0552
 9703TIP3   OH253303   3.089   6.173  10.444 -0.2854 -0.0868  0.1766
 9703TIP3    H153304   3.047   6.168  10.530 -2.1287 -0.0046 -0.6730
 9703TIP3    H253305   3.093   6.083  10.413  1.4622 -0.2663  0.7899
 9704TIP3   OH253306   5.605   5.759  10.600 -0.8670 -0.3007  0.2043
 9704TIP3    H153307   5.627   5.714  10.519  0.0666  1.8514 -0.8182
 9704TIP3    H253308   5.619   5.694  10.669  0.8443 -1.4334 -1.1444
 9705TIP3   OH253309   5.185   3.333  11.483 -0.5215 -0.2844 -0.0052
 9705TIP3    H153310   5.250   3.281  11.531 -0.5688 -1.6513 -1.3257
 9705TIP3    H253311   5.107   3.330  11.538 -0.4899 -1.5739  0.0005
 9706TIP3   OH253312   5.119   1.280  11.266 -0.3076 -0.6201 -0.1840
 9706TIP3    H153313   5.161   1.271  11.352 -0.6942 -1.0848 -0.0415
 9706TIP3    H253314   5.123   1.374  11.247 -0.4731 -0.4773  0.4700
 9707TIP3   OH253315   3.102   6.101  11.675 -0.4925 -0.1403  0.0121
 9707TIP3    H153316   3.140   6.141  11.597  0.9694 -0.3565  0.5834
 9707TIP3    H253317   3.105   6.169  11.742  1.1054 -0.8439  0.7127
 9708TIP3   OH253318   1.597   4.669  10.876  0.4442  0.0573  0.0392
 9708TIP3    H153319   1.576   4.601  10.940 -1.0594  0.1744 -0.2964
 9708TIP3    H253320   1.523   4.668  10.814  1.0472  1.0856 -0.7320
 9709TIP3   OH253321   6.616   6.591  10.339  0.5297  0.7755  0.4579
 9709TIP3    H153322   6.547   6.530  10.362 -0.6750  2.0639  0.4022
 9709TIP3    H253323   6.613   6.658  10.407  1.6185  0.9445  0.3587
 9710TIP3   OH253324   1.065   5.569  11.946  0.2438  0.2769 -0.1481
 9710TIP3    H153325   1.139   5.536  11.895  0.5086 -0.6403  0.8009
 9710TIP3    H253326   0.989   5.526  11.906  0.4002 -0.0749 -0.0740
 9711TIP3   OH253327   7.389   5.512  10.566  0.1454 -0.1478 -0.3006
 9711TIP3    H153328   7.372   5.604  10.547 -3.1696 -0.4882  0.4204
 9711TIP3    H253329   7.442   5.514  10.646 -4.0379  1.3466  2.8028
 9712TIP3   OH253330   3.134   6.658  12.279  0.7342 -0.3293 -0.6583
 9712TIP3    H153331   3.121   6.644  12.373  1.0472 -0.3808 -0.6210
 9712TIP3    H253332   3.100   6.745  12.263  2.3409  0.4352 -0.1401
 9713TIP3   OH253333   3.893   5.764  12.031 -0.6563  0.2326 -0.1861
 9713TIP3    H153334   3.901   5.851  12.070  0.0855  0.2802 -0.4251
 9713TIP3    H253335   3.880   5.781  11.938  0.9240  0.0856 -0.4571
 9714TIP3   OH253336   6.777   1.542  11.887  0.1158 -0.2330 -0.1008
 9714TIP3    H153337   6.717   1.512  11.955  0.0437  0.1037 -0.0174
 9714TIP3    H253338   6.779   1.469  11.824 -1.5235  0.3207 -0.8505
 9715TIP3   OH253339   0.369   3.188   9.687  0.7893 -0.0812  0.3360
 9715TIP3    H153340   0.307   3.142   9.630  0.2409 -1.6660  2.1239
 9715TIP3    H253341   0.432   3.228   9.626  0.1981 -1.6286 -1.3812
 9716TIP3   OH253342   6.620   2.630  11.963  0.5534  0.2323  0.7054
 9716TIP3    H153343   6.527   2.622  11.943  0.5994  0.2603  0.4754
 9716TIP3    H253344   6.634   2.572  12.037  1.0564 -2.5999 -1.4260
 9717TIP3   OH253345   3.421   6.587  12.636  0.2168  0.6603  0.7683
 9717TIP3    H153346   3.492   6.630  12.588 -1.9049  0.7925 -2.5588
 9717TIP3    H253347   3.434   6.494  12.620 -0.7775  0.7300 -0.6584
 9718TIP3   OH253348   5.947   1.178  11.426 -0.1591 -0.1899 -0.7513
 9718TIP3    H153349   5.968   1.099  11.376  1.3017 -0.2687 -0.0702
 9718TIP3    H253350   6.013   1.181  11.495 -0.8130  1.0879 -0.1418
 9719TIP3   OH253351   5.063   1.229  12.373  0.1139  0.1750  0.2013
 9719TIP3    H153352   5.087   1.321  12.382 -0.8932  0.5299 -0.5127
 9719TIP3    H253353   5.142   1.181  12.398  2.0437  1.2708 -3.0955
 9720TIP3   OH253354   7.086   2.325  11.108  0.3918 -0.1304 -0.6270
 9720TIP3    H153355   7.109   2.297  11.197  1.1257 -1.8273 -1.2862
 9720TIP3    H253356   7.171   2.333  11.064  0.2448  3.4900 -0.4765
 9721TIP3   OH253357   5.333   0.272  11.184  0.4031 -0.3286  0.5311
 9721TIP3    H153358   5.409   0.262  11.241 -0.5943  0.5193  2.0954
 9721TIP3    H253359   5.314   0.184  11.153  2.1461 -0.5214 -0.1250
 9722TIP3   OH253360   4.955   7.577  11.594  0.2844  0.2036  0.0280
 9722TIP3    H153361   4.897   7.563  11.519 -0.1791 -1.4431  0.6366
 9722TIP3    H253362   5.000   7.659  11.575 -2.2748  1.6089 -0.4550
 9723TIP3   OH253363   7.403   4.364  11.494 -0.0869 -0.1557 -0.0552
 9723TIP3    H153364   7.412   4.280  11.449  0.9108  0.1213 -0.3908
 9723TIP3    H253365   7.353   4.418  11.433  0.8736  0.0744 -0.6502
 9724TIP3   OH253366   7.348   6.491   9.949  0.1274  0.4598 -0.5445
 9724TIP3    H153367   7.255   6.491   9.925 -0.4953 -0.9741  1.6137
 9724TIP3    H253368   7.394   6.493   9.865 -1.8283  1.1037 -1.6686
 9725TIP3   OH253369   0.907   6.233  11.679  0.1385 -0.3790 -0.2910
 9725TIP3    H153370   0.829   6.202  11.635  0.2796  0.1098 -0.9100
 9725TIP3    H253371   0.900   6.201  11.769  1.0459 -3.5403 -1.2334
 9726TIP3   OH253372   0.160   1.213  11.275 -0.0831  0.2713  0.3240
 9726TIP3    H153373   0.237   1.206  11.331  0.3643 -3.5328 -0.4467
 9726TIP3    H253374   0.185   1.273  11.205  1.7603  0.0466  0.7528
 9727TIP3   OH253375   1.829   6.643  12.745  0.1552 -0.4034 -0.3463
 9727TIP3    H153376   1.758   6.665  12.686  0.1761 -0.1871 -0.2933
 9727TIP3    H253377   1.786   6.602  12.820 -0.0689  0.9459  0.3045
 9728TIP3   OH253378   3.784   3.119  11.991  0.1098  0.0147  0.1711
 9728TIP3    H153379   3.814   3.120  11.900 -0.0825  1.9835  0.0842
 9728TIP3    H253380   3.696   3.081  11.987 -0.2850  0.9577 -0.6296
 9729TIP3   OH253381   1.775   1.242  11.341 -0.0914  1.3345  0.2308
 9729TIP3    H153382   1.708   1.204  11.398  0.7944  0.7896  0.9312
 9729TIP3    H253383   1.788   1.177  11.272  1.3663  0.3281  1.3848
 9730TIP3   OH253384   3.534   0.315  11.717  0.5795  0.2770  0.0927
 9730TIP3    H153385   3.521   0.409  11.730  1.2080  0.1254  2.1570
 9730TIP3    H253386   3.625   0.299  11.744  1.4385 -0.5488 -2.8282
 9731TIP3   OH253387   3.803   7.502  10.067 -0.3209 -0.3647 -0.1349
 9731TIP3    H153388   3.786   7.546   9.984  0.8003 -0.2331 -0.3095
 9731TIP3    H253389   3.750   7.423  10.064 -0.4926 -0.2252 -0.8610
 9732TIP3   OH253390   0.183   3.270  10.911  0.8988 -0.5225  0.0415
 9732TIP3    H153391   0.265   3.284  10.862  1.5693  0.6103  1.4105
 9732TIP3    H253392   0.205   3.294  11.001 -1.0294  0.1070  0.3883
 9733TIP3   OH253393   0.910   2.619  11.266  0.1275 -0.3246 -0.0101
 9733TIP3    H153394   0.834   2.635  11.322  2.2946  0.8044  2.8474
 9733TIP3    H253395   0.928   2.525  11.276 -1.5359 -0.8802 -1.7178
 9734TIP3   OH253396   4.327   1.267   9.865  0.1399  0.5419 -0.0752
 9734TIP3    H153397   4.259   1.298   9.806 -0.4489 -0.8159 -0.1608
 9734TIP3    H253398   4.380   1.344   9.884 -0.5661  1.3213 -1.1556
 9735TIP3   OH253399   6.185   5.184  10.018 -0.2381 -0.5965  0.6895
 9735TIP3    H153400   6.215   5.165  10.107 -1.4250 -1.1426  0.9923
 9735TIP3    H253401   6.258   5.157   9.962 -0.7406 -3.5449  1.2797
 9736TIP3   OH253402   4.684   5.260  11.499  0.1357 -0.2419  0.3859
 9736TIP3    H153403   4.725   5.344  11.521 -1.2185  0.9451 -1.3519
 9736TIP3    H253404   4.635   5.236  11.578  0.8635  0.3673  1.0476
 9737TIP3   OH253405   3.585   1.388  10.125 -0.4580  0.2213  0.3505
 9737TIP3    H153406   3.547   1.345  10.049  0.1101 -1.3218  0.9133
 9737TIP3    H253407   3.647   1.451  10.088  1.1467 -1.7400 -0.5099
 9738TIP3   OH253408   5.192   3.284  10.349  0.6439  0.0557  0.2178
 9738TIP3    H153409   5.132   3.346  10.308  0.8551 -0.6857 -1.2524
 9738TIP3    H253410   5.279   3.320  10.332  0.6900  0.4970  1.2993
 9739TIP3   OH253411   0.360   5.747  11.778  0.9959  0.2234  0.4250
 9739TIP3    H153412   0.395   5.808  11.714  0.4884 -0.8987 -0.9920
 9739TIP3    H253413   0.267   5.769  11.784  1.0725  0.4265  0.9062
 9740TIP3   OH253414   2.578   4.272  10.615 -0.0916  0.3920 -0.1074
 9740TIP3    H153415   2.539   4.270  10.528  0.5701 -1.1322 -0.3858
 9740TIP3    H253416   2.666   4.308  10.601  0.1700 -0.2537 -0.1386
 9741TIP3   OH253417   3.193   6.961  12.408  0.0765  0.2535  0.2543
 9741TIP3    H153418   3.235   6.954  12.493 -0.2012  2.5713  0.6536
 9741TIP3    H253419   3.118   6.903  12.413  1.2089 -1.2200  0.8123
 9742TIP3   OH253420   3.444   4.965  11.941  0.0724 -0.1511 -0.7125
 9742TIP3    H153421   3.526   4.935  11.981 -0.5384 -2.3634 -0.9443
 9742TIP3    H253422   3.376   4.923  11.994 -0.8688  0.5393 -1.3567
 9743TIP3   OH253423   4.100   7.379  11.579  0.1580  0.1677 -0.1968
 9743TIP3    H153424   4.043   7.422  11.644  0.8361  1.5387 -0.4713
 9743TIP3    H253425   4.072   7.416  11.495  0.8492  0.1714 -0.4275
 9744TIP3   OH253426   6.647   1.375  12.435 -0.0392  0.1222  0.7785
 9744TIP3    H153427   6.585   1.442  12.466 -2.3488 -0.7720 -1.5371
 9744TIP3    H253428   6.619   1.295  12.479  1.1800  0.1585  1.6765
 9745TIP3   OH253429   1.980   5.364  10.851  0.2891  0.3204  0.2531
 9745TIP3    H153430   1.965   5.326  10.937  0.2690 -0.9057 -0.2725
 9745TIP3    H253431   1.976   5.459  10.865 -2.7320  0.1659  1.0799
 9746TIP3   OH253432   7.199   6.044  10.964  0.3672 -0.6593  0.1023
 9746TIP3    H153433   7.269   5.988  10.931  0.6146  0.4344 -1.3148
 9746TIP3    H253434   7.242   6.105  11.024  0.4886 -0.5116 -0.1355
 9747TIP3   OH253435   4.129   1.626  10.209 -0.3269  0.0040 -0.2662
 9747TIP3    H153436   4.181   1.692  10.254  0.1527 -1.2511  1.0923
 9747TIP3    H253437   4.182   1.601  10.133  0.1718  0.1208  0.0380
 9748TIP3   OH253438   6.968   4.946  10.607 -0.2118 -0.0770  0.2602
 9748TIP3    H153439   6.940   4.863  10.568  0.5642  0.1605 -0.8683
 9748TIP3    H253440   6.956   4.934  10.701  1.8610 -2.2440  0.3406
 9749TIP3   OH253441   5.210   4.573  10.516 -0.3280  0.2905 -0.0065
 9749TIP3    H153442   5.169   4.640  10.571 -0.6052  1.2647 -1.3559
 9749TIP3    H253443   5.274   4.621  10.463  0.1445 -0.6725 -0.3391
 9750TIP3   OH253444   1.016   7.050  11.794 -0.0535  0.3339 -0.4038
 9750TIP3    H153445   0.962   7.016  11.723  0.9990 -0.7417 -0.7112
 9750TIP3    H253446   0.953   7.079  11.860 -1.0816 -2.9251  0.2324
 9751TIP3   OH253447   6.306   3.706  11.525 -0.2881  0.4619  0.1887
 9751TIP3    H153448   6.401   3.713  11.513 -0.5121  0.7420 -1.6823
 9751TIP3    H253449   6.277   3.796  11.541 -0.2617  0.4056  0.5519
 9752TIP3   OH253450   0.915   6.746  11.918  0.3740  0.1444 -0.0764
 9752TIP3    H153451   0.946   6.784  11.836  0.5990 -1.0156 -0.5512
 9752TIP3    H253452   0.885   6.658  11.894  0.6442 -0.2957  1.1225
 9753TIP3   OH253453   5.751   7.604  11.978 -0.3126  0.6528  0.3297
 9753TIP3    H153454   5.657   7.585  11.986 -1.3080  5.0806  2.3818
 9753TIP3    H253455   5.766   7.611  11.883 -1.7402 -0.9460 -0.0767
 9754TIP3   OH253456   4.448   6.411   9.520  0.5837  0.0257  1.0872
 9754TIP3    H153457   4.452   6.490   9.466 -0.6414 -1.6063 -1.6146
 9754TIP3    H253458   4.539   6.380   9.523  1.3305  2.1157  3.3154
 9755TIP3   OH253459   7.563   6.456  12.806 -0.3390 -0.3062 -0.3388
 9755TIP3    H153460   7.506   6.452  12.883 -0.1154 -1.4789 -0.2157
 9755TIP3    H253461   7.627   6.523  12.827 -0.4220 -0.4513  0.4021
 9756TIP3   OH253462   6.979   3.855  11.677 -0.1910  0.0602 -0.4460
 9756TIP3    H153463   6.892   3.878  11.711 -0.7943 -0.4746 -1.5664
 9756TIP3    H253464   6.986   3.903  11.595 -0.1339 -1.1853 -1.1972
 9757TIP3   OH253465   3.783   5.400  10.912  0.1410 -0.8586  0.1480
 9757TIP3    H153466   3.853   5.334  10.912  0.1126 -0.9691 -2.4226
 9757TIP3    H253467   3.739   5.389  10.828  0.3490  2.6708 -0.5645
 9758TIP3   OH253468   5.554   0.995  11.336 -0.2281 -0.1545  0.4533
 9758TIP3    H153469   5.613   1.024  11.267  2.4901 -0.1152  2.6029
 9758TIP3    H253470   5.606   0.933  11.388 -1.1017  1.7476  3.9418
 9759TIP3   OH253471   5.457   0.855  12.475  0.4260 -0.0002  0.1170
 9759TIP3    H153472   5.538   0.868  12.426  0.3943 -0.0754  0.0456
 9759TIP3    H253473   5.470   0.772  12.522  0.1487 -0.3323 -0.3785
 9760TIP3   OH253474   0.589   5.377  11.031 -0.2280 -0.5825  0.8749
 9760TIP3    H153475   0.622   5.420  11.109  2.3798  1.9152 -1.3747
 9760TIP3    H253476   0.655   5.394  10.964 -2.6856 -1.8052 -2.1304
 9761TIP3   OH253477   4.242   2.722  11.184  0.5208  0.1431  0.8566
 9761TIP3    H153478   4.173   2.787  11.172 -0.5555 -0.6885  2.2170
 9761TIP3    H253479   4.263   2.693  11.095  0.6097  1.8890  0.2672
 9762TIP3   OH253480   5.975   1.242  10.439 -0.0714 -0.3574  0.0234
 9762TIP3    H153481   6.051   1.242  10.381  0.2580 -0.2791  0.4502
 9762TIP3    H253482   5.937   1.155  10.429  1.0775 -1.0101  1.0929
 9763TIP3   OH253483   3.929   5.987  12.395  0.7392 -0.6635 -0.8267
 9763TIP3    H153484   3.900   6.041  12.468  0.0204  0.8566 -2.1730
 9763TIP3    H253485   3.993   5.927  12.433  1.9607  1.4655  0.6702
 9764TIP3   OH253486   6.928   4.014  11.263  0.3531 -0.2457  0.2062
 9764TIP3    H153487   6.835   3.995  11.248  0.2759 -0.6484  1.1471
 9764TIP3    H253488   6.965   3.931  11.294  1.4068 -0.5717 -1.7328
 9765TIP3   OH253489   5.683   6.059  10.880  0.1212 -0.1342 -0.0600
 9765TIP3    H153490   5.725   6.085  10.798 -2.4420  2.3985 -0.7420
 9765TIP3    H253491   5.709   6.126  10.943  1.7674 -1.8550  1.1774
 9766TIP3   OH253492   0.379   2.856   9.963 -0.0049 -0.0128 -0.8715
 9766TIP3    H153493   0.466   2.817   9.964 -0.3169 -0.7109  0.8484
 9766TIP3    H253494   0.395   2.950   9.970  0.6193 -0.2602  2.8082
 9767TIP3   OH253495   7.478   0.268  10.872 -0.7563  0.1106 -0.4144
 9767TIP3    H153496   7.518   0.203  10.814 -0.4980  0.3188 -0.4733
 9767TIP3    H253497   7.402   0.300  10.824 -0.7093  0.0703 -0.5162
 9768TIP3   OH253498   6.946   2.774  12.040 -0.0473  0.5670  0.4486
 9768TIP3    H153499   6.915   2.735  12.121 -0.1512  2.2742  1.2718
 9768TIP3    H253500   7.042   2.775  12.048 -0.0960  1.9970  1.2164
 9769TIP3   OH253501   1.879   3.583  11.240 -0.3712  0.2156  0.1475
 9769TIP3    H153502   1.869   3.567  11.146  0.1706 -0.3643  0.1860
 9769TIP3    H253503   1.850   3.502  11.282 -1.4814  0.7894  0.5329
 9770TIP3   OH253504   1.814   3.016  10.182  0.3635 -0.0178  0.2422
 9770TIP3    H153505   1.877   2.944  10.191 -0.9450 -1.1952  0.2972
 9770TIP3    H253506   1.733   2.974  10.154 -0.0976  1.6048 -1.0738
 9771TIP3   OH253507   4.842   4.984  11.610  0.6568  0.1924  0.1612
 9771TIP3    H153508   4.813   4.979  11.701  1.3123  0.8893  0.4184
 9771TIP3    H253509   4.810   5.068  11.579 -0.3961 -0.4593 -0.5658
 9772TIP3   OH253510   1.775   3.609  12.260 -0.5197  0.1397 -0.0323
 9772TIP3    H153511   1.790   3.642  12.171  1.5142  0.0397  0.2156
 9772TIP3    H253512   1.775   3.687  12.315 -0.9073  0.1336 -0.0248
 9773TIP3   OH253513   4.317   0.961  10.882 -1.3302  0.0381 -0.1134
 9773TIP3    H153514   4.250   0.929  10.822 -0.0634 -0.7859 -1.1358
 9773TIP3    H253515   4.335   0.886  10.940  1.6299 -1.3309 -2.5020
 9774TIP3   OH253516   2.063   3.272  11.617  0.1936  0.2894  0.3435
 9774TIP3    H153517   2.019   3.198  11.658 -1.8079  1.4717  0.4541
 9774TIP3    H253518   2.048   3.261  11.523 -1.4044  1.2729  0.4468
 9775TIP3   OH253519   3.802   1.039  10.741 -0.3836  0.6713 -0.1194
 9775TIP3    H153520   3.796   1.095  10.664 -2.1307  0.4766 -0.1583
 9775TIP3    H253521   3.717   1.048  10.785 -0.5492 -1.5007  0.1607
 9776TIP3   OH253522   2.399   6.009  12.310 -0.1345  0.3202  0.1781
 9776TIP3    H153523   2.304   6.005  12.317 -0.1472  0.3966  0.0584
 9776TIP3    H253524   2.426   5.920  12.289 -0.3979  0.7475 -2.3631
 9777TIP3   OH253525   2.707   6.335  12.006  0.5855 -0.3999 -0.1455
 9777TIP3    H153526   2.764   6.322  11.930  0.7010 -1.5973  0.1261
 9777TIP3    H253527   2.651   6.408  11.982  0.5787 -0.8060 -1.4131
 9778TIP3   OH253528   0.269   5.941   9.768 -0.2741 -0.1073 -0.4184
 9778TIP3    H153529   0.300   5.850   9.771 -1.3652 -0.4655  1.4842
 9778TIP3    H253530   0.174   5.934   9.779 -0.2941  1.2877  0.4882
 9779TIP3   OH253531   3.001   3.091  10.506  0.3200 -0.5408 -0.3496
 9779TIP3    H153532   2.919   3.137  10.489  0.3164 -0.2316  0.4589
 9779TIP3    H253533   3.060   3.158  10.539  0.3426 -1.0963  0.7646
 9780TIP3   OH253534   5.223   1.881   9.957 -0.1543 -0.1651  0.5193
 9780TIP3    H153535   5.171   1.895  10.036 -1.2764 -0.8292 -0.0718
 9780TIP3    H253536   5.248   1.969   9.928 -0.1128  0.1056  1.3645
 9781TIP3   OH253537   0.008   3.765  11.793 -0.8170 -0.5455  0.5185
 9781TIP3    H153538   0.003   3.860  11.795  0.5420 -0.4370 -0.2382
 9781TIP3    H253539   0.022   3.743  11.700  0.0183 -1.3922  0.8241
 9782TIP3   OH253540   2.556   2.366  11.861 -0.0343 -0.7361 -0.1573
 9782TIP3    H153541   2.652   2.368  11.857 -0.0249 -0.0297  0.2741
 9782TIP3    H253542   2.530   2.344  11.771  0.5229 -0.4409 -0.4007
 9783TIP3   OH253543   3.197   3.162  12.397  0.2701 -0.1088 -0.2320
 9783TIP3    H153544   3.119   3.112  12.421 -0.3747  0.1389 -1.6888
 9783TIP3    H253545   3.269   3.118  12.442 -0.3359 -2.0247 -1.0285
 9784TIP3   OH253546   7.074   0.138  11.671  0.0369 -0.3370  0.3701
 9784TIP3    H153547   7.141   0.199  11.640  0.6034 -0.7432  0.7675
 9784TIP3    H253548   6.998   0.193  11.691  0.8930  0.4073  1.7765
 9785TIP3   OH253549   7.479   5.145  10.232  0.9213  0.5142 -0.4191
 9785TIP3    H153550   7.510   5.232  10.258 -1.2660  1.6642 -1.3561
 9785TIP3    H253551   7.436   5.110  10.310  0.5386  0.9026 -0.4559
 9786TIP3   OH253552   3.695   4.840  10.744  0.0978 -0.1704  0.0017
 9786TIP3    H153553   3.622   4.783  10.722  0.5048 -0.2674 -1.2394
 9786TIP3    H253554   3.700   4.839  10.839 -0.9304 -0.8936  0.0583
 9787TIP3   OH253555   6.532   7.492  12.116  0.0636  0.0160  0.2081
 9787TIP3    H153556   6.440   7.513  12.102  0.1012  1.0859  1.3620
 9787TIP3    H253557   6.531   7.423  12.182  0.0765 -0.4174 -0.2414
 9788TIP3   OH253558   4.558   6.423  11.753 -0.0258 -0.2751 -0.0270
 9788TIP3    H153559   4.550   6.429  11.848 -1.9664 -0.1361 -0.1452
 9788TIP3    H253560   4.643   6.463  11.733  1.1619 -1.7378  1.7472
 9789TIP3   OH253561   1.818   6.625  10.858 -0.0117  0.3609  0.1232
 9789TIP3    H153562   1.787   6.571  10.931  0.4032 -0.9189 -0.6046
 9789TIP3    H253563   1.740   6.671  10.828 -0.4763 -0.1372  0.5247
 9790TIP3   OH253564   2.775   7.327  11.733  0.1231 -0.1296 -0.1809
 9790TIP3    H153565   2.757   7.303  11.643 -0.4182 -0.4047 -0.0042
 9790TIP3    H253566   2.848   7.389  11.728  1.7745 -2.0173 -0.6310
 9791TIP3   OH253567   2.652   3.570   9.586 -0.4375  0.6759 -0.6421
 9791TIP3    H153568   2.568   3.525   9.600  0.8873 -2.1994 -1.3896
 9791TIP3    H253569   2.705   3.545   9.661  0.9929 -0.7447 -2.0626
 9792TIP3   OH253570   1.196   0.400  10.384 -0.5417 -0.5511 -0.2213
 9792TIP3    H153571   1.155   0.317  10.363 -3.0980  0.5091  0.1685
 9792TIP3    H253572   1.182   0.454  10.306  0.1107 -0.1270 -0.0543
 9793TIP3   OH253573   1.358   2.799  12.678 -0.1013 -0.0990  0.1680
 9793TIP3    H153574   1.445   2.761  12.664 -0.1443  0.2915 -1.3219
 9793TIP3    H253575   1.297   2.733  12.645 -0.4248 -0.5357  1.5558
 9794TIP3   OH253576   1.528   2.138  12.179 -0.1984 -0.1905  0.4443
 9794TIP3    H153577   1.437   2.113  12.169 -0.3476  0.0616  1.0911
 9794TIP3    H253578   1.527   2.234  12.176  0.0825 -0.1954  0.1487
 9795TIP3   OH253579   3.229   0.642   9.821 -0.2992  0.3521  0.5140
 9795TIP3    H153580   3.153   0.590   9.792  0.0345 -0.4043  0.9813
 9795TIP3    H253581   3.305   0.590   9.795  0.0590  0.9106  0.4259
 9796TIP3   OH253582   3.559   6.224  11.111 -0.2000 -0.3717  0.3249
 9796TIP3    H153583   3.616   6.160  11.068  0.2121 -0.8326  1.5300
 9796TIP3    H253584   3.617   6.295  11.136 -0.0491 -1.0048  1.8821
 9797TIP3   OH253585   2.384   6.463  12.211  0.2143  0.3861 -0.1773
 9797TIP3    H153586   2.326   6.539  12.210 -0.9286 -0.4089  0.9789
 9797TIP3    H253587   2.346   6.406  12.278  0.4217 -1.6759 -1.7194
 9798TIP3   OH253588   3.896   3.075  10.880 -0.3265 -0.1345 -0.1175
 9798TIP3    H153589   3.872   2.989  10.915 -0.6162 -0.1458 -0.3415
 9798TIP3    H253590   3.817   3.105  10.835 -0.0561  0.0228 -0.4823
 9799TIP3   OH253591   1.291   1.702  11.618  0.0723 -0.5184  0.2573
 9799TIP3    H153592   1.384   1.725  11.623 -0.0532 -0.2051  1.4999
 9799TIP3    H253593   1.286   1.613  11.653  0.1599 -1.3685 -1.7830
 9800TIP3   OH253594   2.532   0.289  11.008  0.7317 -0.5359  0.4617
 9800TIP3    H153595   2.535   0.342  10.928  0.7974 -1.8764 -0.4611
 9800TIP3    H253596   2.616   0.306  11.050  0.2798  0.9936  0.8232
 9801TIP3   OH253597   5.709   6.283  10.400 -0.0194 -0.6499 -0.4665
 9801TIP3    H153598   5.712   6.296  10.495  0.5245 -0.0663 -0.5577
 9801TIP3    H253599   5.774   6.344  10.366  1.8736 -2.8396 -1.0129
 9802TIP3   OH253600   5.009   0.002   9.954  0.2549 -0.0506 -0.3056
 9802TIP3    H153601   5.008   0.093   9.926  1.2193 -0.4705 -1.8409
 9802TIP3    H253602   4.925  -0.033   9.925  0.9209 -0.2720 -2.1146
 9803TIP3   OH253603   0.130   0.228  11.507 -0.2514  0.0375  0.1322
 9803TIP3    H153604   0.215   0.184  11.506  0.1084  0.7024  0.5483
 9803TIP3    H253605   0.101   0.222  11.598  0.6551  2.2082  0.6404
 9804TIP3   OH253606   3.677   5.225  11.659 -0.6473 -0.2508 -0.8085
 9804TIP3    H153607   3.599   5.170  11.647 -1.0767 -0.3488  1.7779
 9804TIP3    H253608   3.735   5.172  11.715  0.2139  0.7790 -0.6847
 9805TIP3   OH253609   2.048   1.865  12.430 -0.1360 -0.9953  0.6646
 9805TIP3    H153610   2.068   1.847  12.338  1.6694 -1.6237  1.1345
 9805TIP3    H253611   2.016   1.781  12.465  0.5274 -1.1479  0.9260
 9806TIP3   OH253612   6.269   0.588  10.148 -0.0144 -0.2491  0.3677
 9806TIP3    H153613   6.219   0.519  10.192  0.2825 -0.9903 -0.4358
 9806TIP3    H253614   6.211   0.665  10.150 -0.9766 -0.9433 -0.0797
 9807TIP3   OH253615   6.831   7.567  10.845  0.0686 -0.0140 -0.6494
 9807TIP3    H153616   6.827   7.510  10.922  3.7473  0.8411  0.3792
 9807TIP3    H253617   6.853   7.653  10.880  0.2635  0.7497 -2.5515
 9808TIP3   OH253618   7.029   7.363  10.952 -0.4250  0.6603 -0.5331
 9808TIP3    H153619   7.001   7.339  10.864 -2.7820  1.8435 -0.1779
 9808TIP3    H253620   6.954   7.408  10.990  0.1577 -0.6560  2.4558
 9809TIP3   OH253621   7.548   6.979  11.040 -0.3121 -0.1051  0.5008
 9809TIP3    H153622   7.508   6.905  10.996  0.5297 -0.4861  0.3704
 9809TIP3    H253623   7.595   6.941  11.114  1.4997  0.1031 -0.5084
 9810TIP3   OH253624   3.973   0.108  10.768  0.1316 -0.3151  0.2023
 9810TIP3    H153625   3.949   0.016  10.774  0.0532 -0.3561 -0.5558
 9810TIP3    H253626   3.965   0.129  10.675  1.3742  0.1291  0.1698
 9811TIP3   OH253627   0.349   6.792  12.538  0.2235 -0.2787 -0.3230
 9811TIP3    H153628   0.363   6.698  12.530 -0.5442 -0.4405  0.0721
 9811TIP3    H253629   0.254   6.803  12.530  0.1050  0.2549  1.2966
 9812TIP3   OH253630   0.898   0.161  12.292  0.1605 -0.1960  0.3852
 9812TIP3    H153631   0.890   0.093  12.360  2.0853  1.7211  2.6995
 9812TIP3    H253632   0.987   0.150  12.258  0.1926  0.6341  0.1857
 9813TIP3   OH253633   5.078   6.643  11.561 -0.4375  0.0690 -0.0294
 9813TIP3    H153634   5.095   6.712  11.625  1.8159  0.0822 -0.5730
 9813TIP3    H253635   5.121   6.566  11.596 -0.2845 -0.2559 -0.9136
 9814TIP3   OH253636   1.510   6.170  12.235  0.4434 -0.0014 -0.3273
 9814TIP3    H153637   1.457   6.152  12.313  2.8373 -0.7130  1.2547
 9814TIP3    H253638   1.514   6.086  12.189  0.5641 -0.0662 -0.1997
 9815TIP3   OH253639   0.109   6.565  12.043  0.7641 -0.6975  0.7368
 9815TIP3    H153640   0.165   6.487  12.039  0.0853 -1.2197  1.2370
 9815TIP3    H253641   0.130   6.605  12.128  0.8342 -0.5429  0.6476
 9816TIP3   OH253642   6.373   5.791  11.262 -0.5155  0.2386  0.0745
 9816TIP3    H153643   6.428   5.824  11.333 -1.2628 -1.0908  1.3213
 9816TIP3    H253644   6.360   5.867  11.205  2.8459  0.5439 -0.4890
 9817TIP3   OH253645   3.346   4.766  11.121 -0.2594 -0.0018 -0.6051
 9817TIP3    H153646   3.331   4.794  11.031  1.1385 -1.0194 -1.1926
 9817TIP3    H253647   3.406   4.692  11.113  0.8352  0.6297  1.2427
 9818TIP3   OH253648   0.436   1.274  11.640  0.1541  0.5610 -0.3759
 9818TIP3    H153649   0.441   1.178  11.645 -0.0515  0.3915 -2.4580
 9818TIP3    H253650   0.480   1.296  11.558  1.5630  2.4287  0.7866
 9819TIP3   OH253651   3.495   0.201  10.827 -0.6881 -0.0174  0.2377
 9819TIP3    H153652   3.539   0.122  10.859 -0.7392 -0.0825  0.1490
 9819TIP3    H253653   3.442   0.170  10.753  2.2378  0.6660 -2.3762
 9820TIP3   OH253654   1.916   7.110  10.856 -0.2613  0.4833 -0.1157
 9820TIP3    H153655   2.005   7.075  10.853  0.1059  1.4427 -1.3243
 9820TIP3    H253656   1.863   7.043  10.813  0.1825  0.6934 -1.0262
 9821TIP3   OH253657   6.215   0.452  10.459 -0.2205  0.1286 -0.4175
 9821TIP3    H153658   6.309   0.447  10.475 -0.2874  0.5286  0.1729
 9821TIP3    H253659   6.188   0.531  10.506 -0.9389 -0.2809 -0.1295
 9822TIP3   OH253660   3.607   7.650  10.901 -0.1960 -0.2367 -0.6280
 9822TIP3    H153661   3.585   7.570  10.949 -1.0412  0.7647  0.7160
 9822TIP3    H253662   3.642   7.619  10.818 -0.9423 -1.9989 -0.3219
 9823TIP3   OH253663   1.353   4.100  10.995 -0.3897  0.2148 -0.3273
 9823TIP3    H153664   1.304   4.153  10.932  0.0099  1.7053  0.5769
 9823TIP3    H253665   1.334   4.140  11.080  0.5008 -0.6611  0.3037
 9824TIP3   OH253666   2.888   5.639  10.491  0.2498  0.2082  0.4734
 9824TIP3    H153667   2.924   5.556  10.460 -0.4861 -0.3399  1.0561
 9824TIP3    H253668   2.964   5.686  10.526  0.7734  0.0593 -0.4379
 9825TIP3   OH253669   0.036   4.464  10.509  0.1903  0.3112 -0.2840
 9825TIP3    H153670   0.011   4.510  10.589  0.7119  0.6975 -0.3359
 9825TIP3    H253671  -0.040   4.473  10.452  0.1817  0.8692 -0.1909
 9826TIP3   OH253672   6.188   0.433  11.301  0.2528 -0.3453 -0.6338
 9826TIP3    H153673   6.224   0.397  11.382  0.8739 -2.1830 -1.6708
 9826TIP3    H253674   6.255   0.415  11.235 -0.1891  1.2254 -1.5613
 9827TIP3   OH253675   6.672   2.195  11.415 -0.0843  0.3905  0.5983
 9827TIP3    H153676   6.754   2.182  11.462  1.0579  1.3259 -1.0344
 9827TIP3    H253677   6.649   2.109  11.381  1.1443  0.4248 -0.3540
 9828TIP3   OH253678   1.570   7.064  12.196  0.2429 -0.0259 -0.3535
 9828TIP3    H153679   1.498   7.014  12.233  1.0962 -0.2376  1.0979
 9828TIP3    H253680   1.561   7.053  12.102 -1.2926 -0.4855 -0.1859
 9829TIP3   OH253681   2.192   0.903  10.451 -0.1767 -0.4065  0.1687
 9829TIP3    H153682   2.145   0.930  10.372 -0.4115  1.0145  0.7639
 9829TIP3    H253683   2.280   0.939  10.440 -0.0309 -0.7235  0.2869
 9830TIP3   OH253684   6.384   0.825  10.657 -0.3882 -0.2309 -0.2466
 9830TIP3    H153685   6.338   0.906  10.635 -2.1368 -1.0944  0.0590
 9830TIP3    H253686   6.315   0.759  10.662  0.7458 -1.3692  1.4353
 9831TIP3   OH253687   6.409   3.730  11.218  0.3456  0.1054  0.4649
 9831TIP3    H153688   6.378   3.748  11.129  1.7121 -1.9963 -0.5364
 9831TIP3    H253689   6.329   3.715  11.268 -0.4394 -0.7166 -0.9357
 9832TIP3   OH253690   3.237   6.971  10.124 -0.1205  0.2556  0.4795
 9832TIP3    H153691   3.250   7.025  10.045  3.1619 -0.1493  0.5796
 9832TIP3    H253692   3.203   6.888  10.090  1.4251  0.0178 -0.6093
 9833TIP3   OH253693   4.236   7.149  11.705  0.4022 -0.0212  0.0787
 9833TIP3    H153694   4.209   7.231  11.664  1.4503  0.4828  0.3657
 9833TIP3    H253695   4.329   7.140  11.683  0.0586 -1.6888 -0.8596
 9834TIP3   OH253696   4.767   5.822  11.979 -0.3548  0.9054 -0.1835
 9834TIP3    H153697   4.748   5.912  11.953 -1.6271  0.6008 -0.3723
 9834TIP3    H253698   4.685   5.775  11.966  0.0665 -0.1207  0.6775
 9835TIP3   OH253699   6.400   3.969  12.170 -0.3068 -0.5174  0.2852
 9835TIP3    H153700   6.345   3.906  12.124 -1.6890  1.1946 -0.4946
 9835TIP3    H253701   6.489   3.948  12.143 -0.9417 -0.5744 -1.9655
 9836TIP3   OH253702   5.807   2.661  11.139 -0.3773  0.5116  0.1359
 9836TIP3    H153703   5.732   2.642  11.196 -0.9820  1.0221 -0.4672
 9836TIP3    H253704   5.837   2.747  11.166  1.5282 -0.6525  1.9808
 9837TIP3   OH253705   5.324   4.240  10.307 -0.3859  0.4698  0.0832
 9837TIP3    H153706   5.325   4.153  10.266  2.8558  0.7804 -0.8177
 9837TIP3    H253707   5.266   4.230  10.383 -0.6100 -2.2998 -0.3314
 9838TIP3   OH253708   7.174   0.769  12.132  0.4318  0.2272  0.0103
 9838TIP3    H153709   7.126   0.848  12.157  1.5368  0.5468  1.2743
 9838TIP3    H253710   7.258   0.778  12.177  0.1107 -2.3019  1.2751
 9839TIP3   OH253711   2.420   1.534  12.195  0.0940 -0.4030 -0.2349
 9839TIP3    H153712   2.375   1.618  12.202 -1.1721 -1.0053 -0.8481
 9839TIP3    H253713   2.353   1.469  12.215  1.1129 -1.2694  0.4567
 9840TIP3   OH253714   2.942   4.868  10.068 -0.3186  0.2391 -0.1587
 9840TIP3    H153715   3.025   4.836  10.103  0.1788  1.4697 -0.1859
 9840TIP3    H253716   2.910   4.796  10.013  0.1476 -0.6984  0.7721
 9841TIP3   OH253717   2.649   3.036   9.520 -0.2371  0.2679  0.1766
 9841TIP3    H153718   2.606   3.117   9.492 -1.4642 -0.8322 -1.2980
 9841TIP3    H253719   2.671   2.991   9.439  0.9686 -0.6175  0.9600
 9842TIP3   OH253720   4.528   1.260  11.073  0.3638  0.0776  0.4678
 9842TIP3    H153721   4.450   1.301  11.036  0.0645  0.0746  1.0700
 9842TIP3    H253722   4.530   1.292  11.164  3.2449  3.3393 -0.5162
 9843TIP3   OH253723   5.145   2.116  11.947  0.0877 -0.3528 -0.1435
 9843TIP3    H153724   5.157   2.161  12.030 -1.0542  1.5719 -0.9648
 9843TIP3    H253725   5.124   2.025  11.971  1.0449 -0.1470  1.5958
 9844TIP3   OH253726   4.017   0.374  12.275  0.1233 -0.1258 -0.4260
 9844TIP3    H153727   4.022   0.470  12.276  0.5771 -0.1477 -0.4898
 9844TIP3    H253728   3.923   0.355  12.269  0.0962  0.3235 -1.5308
 9845TIP3   OH253729   3.681   5.607   9.626 -0.2631  0.0186  0.1909
 9845TIP3    H153730   3.617   5.607   9.554  0.3692 -2.4123 -0.4648
 9845TIP3    H253731   3.644   5.547   9.690  1.1451 -1.1032 -0.0128
 9846TIP3   OH253732   4.552   3.644  11.200  0.4779 -0.1350 -0.4018
 9846TIP3    H153733   4.569   3.567  11.145  1.1009  0.0679 -0.4946
 9846TIP3    H253734   4.460   3.634  11.225 -0.1659  0.3208 -2.3757
 9847TIP3   OH253735   3.038   0.235  11.377  0.1251 -0.1596  0.4483
 9847TIP3    H153736   2.994   0.317  11.398  0.5151  0.1634  0.0240
 9847TIP3    H253737   2.973   0.168  11.394  0.1349  0.1482  1.8126
 9848TIP3   OH253738   5.885   6.882  11.633 -0.5219  0.1983 -0.1912
 9848TIP3    H153739   5.887   6.839  11.718 -1.1504 -0.1714 -0.3564
 9848TIP3    H253740   5.944   6.829  11.579 -0.1754  0.3936 -0.0070
 9849TIP3   OH253741   2.008   4.500  11.031  0.3446 -0.6902  0.0465
 9849TIP3    H153742   1.961   4.501  10.947  1.2231  1.0683 -0.4691
 9849TIP3    H253743   2.094   4.465  11.010  1.2336  1.5034 -0.2378
 9850TIP3   OH253744   0.914   5.700  10.385 -0.3868  0.2708 -0.2316
 9850TIP3    H153745   0.932   5.792  10.363 -3.9924  0.6338 -2.4188
 9850TIP3    H253746   0.886   5.661  10.302  0.0829 -2.5995  0.8701
 9851TIP3   OH253747   2.547   0.017  11.101  0.0254  0.3945 -0.5253
 9851TIP3    H153748   2.516   0.106  11.082 -0.4841  0.2944 -0.1959
 9851TIP3    H253749   2.642   0.024  11.099  0.0303  1.3113  1.0315
 9852TIP3   OH253750   3.939   4.657  10.781 -0.1569 -0.1103 -0.5341
 9852TIP3    H153751   3.895   4.663  10.696 -1.6429  1.4128  0.2873
 9852TIP3    H253752   4.029   4.682  10.763 -0.7056  1.2780 -1.4856
 9853TIP3   OH253753   7.494   6.068  12.787 -0.0004  0.1188 -0.1091
 9853TIP3    H153754   7.455   5.991  12.745  0.1717 -0.9081  1.5382
 9853TIP3    H253755   7.432   6.091  12.856  1.5970 -0.7592  1.7274
 9854TIP3   OH253756   1.911   3.327  10.488  0.2231  0.1478 -0.3102
 9854TIP3    H153757   1.815   3.332  10.485  0.1852  1.5321  1.6806
 9854TIP3    H253758   1.929   3.269  10.562  0.9465  0.0647 -0.5469
 9855TIP3   OH253759   4.324   4.924  10.676  0.3652 -0.0658 -0.0254
 9855TIP3    H153760   4.334   4.965  10.761 -1.4365 -0.3417  0.3574
 9855TIP3    H253761   4.404   4.872  10.664  0.4909 -0.2799  1.6218
 9856TIP3   OH253762   0.872   3.960  10.923  0.2569  0.1335  0.4763
 9856TIP3    H153763   0.786   3.917  10.927 -0.1575  0.8912 -0.2295
 9856TIP3    H253764   0.853   4.052  10.911  1.1819  0.0850 -1.8001
 9857TIP3   OH253765   0.903   7.049  10.498 -0.5444 -0.0986  0.3678
 9857TIP3    H153766   0.909   7.032  10.404 -1.8971 -0.1194  0.2667
 9857TIP3    H253767   0.987   7.019  10.532 -0.6744 -1.7448 -0.6016
 9858TIP3   OH253768   1.203   3.004  10.668 -0.7537 -0.6152 -0.0091
 9858TIP3    H153769   1.255   2.933  10.632 -0.5932 -1.3435  1.5644
 9858TIP3    H253770   1.148   2.963  10.735 -0.7476  0.7010  0.8529
 9859TIP3   OH253771   1.644   4.052  10.048 -0.2185  1.0083  0.4407
 9859TIP3    H153772   1.630   4.025  10.139 -0.9217  2.3671  0.7656
 9859TIP3    H253773   1.700   4.130  10.054  0.3723  0.6681 -0.3541
 9860TIP3   OH253774   3.364   1.371  11.650  0.0286 -0.4511  0.1997
 9860TIP3    H153775   3.339   1.435  11.584  1.5420  2.2330  2.0586
 9860TIP3    H253776   3.415   1.306  11.602  1.7327  1.8092 -1.2415
 9861TIP3   OH253777   2.896   5.569  11.018 -0.4068 -0.3372 -0.2009
 9861TIP3    H153778   2.845   5.507  11.070  0.2106  0.1457  1.0225
 9861TIP3    H253779   2.986   5.537  11.024  0.5471  2.3752  3.2892
 9862TIP3   OH253780   1.662   3.068   9.852  0.8080  0.4049 -0.3444
 9862TIP3    H153781   1.568   3.079   9.839  1.1329  1.2084 -2.5557
 9862TIP3    H253782   1.678   2.974   9.841  0.2631  0.2709  0.0095
 9863TIP3   OH253783   2.864   0.454  11.418 -0.2426 -0.3007 -0.3383
 9863TIP3    H153784   2.797   0.505  11.373  1.3399  0.6763 -1.6960
 9863TIP3    H253785   2.836   0.453  11.510 -0.6286  2.5530 -0.3526
 9864TIP3   OH253786   4.524   6.631  11.180 -0.1967  0.1163 -0.0050
 9864TIP3    H153787   4.457   6.641  11.112 -1.1570  0.9155  1.0294
 9864TIP3    H253788   4.585   6.703  11.165 -0.1108 -0.0188 -0.3254
 9865TIP3   OH253789   6.539   6.810  11.738 -0.1806  0.2274 -0.2013
 9865TIP3    H153790   6.621   6.852  11.764  0.8368 -0.9049 -1.4127
 9865TIP3    H253791   6.495   6.791  11.820  1.8120 -1.1071  0.6419
 9866TIP3   OH253792   7.416   2.791  10.228 -0.5212 -0.0773 -0.3445
 9866TIP3    H153793   7.369   2.736  10.165  0.7733 -1.1999 -0.3716
 9866TIP3    H253794   7.442   2.868  10.178 -0.8589 -0.2318 -0.7697
 9867TIP3   OH253795   6.619   0.610  10.638 -0.1113  0.2106 -0.0291
 9867TIP3    H153796   6.563   0.590  10.564 -1.3526  1.0848  0.6246
 9867TIP3    H253797   6.684   0.672  10.603 -1.4627  1.6262 -0.1445
 9868TIP3   OH253798   7.261   6.962  10.385 -0.2550 -0.1385  0.3068
 9868TIP3    H153799   7.324   7.031  10.404 -2.4037  1.8189  0.9239
 9868TIP3    H253800   7.275   6.897  10.455  1.5119 -0.1469 -0.0131
 9869TIP3   OH253801   2.590   1.988  10.915 -0.2383  0.3100 -0.5882
 9869TIP3    H153802   2.542   1.932  10.976 -0.6156 -0.5947 -1.6738
 9869TIP3    H253803   2.547   2.073  10.922 -0.7054  0.0388 -0.0787
 9870TIP3   OH253804   2.242   1.877   9.915 -0.3160 -0.2090 -0.7792
 9870TIP3    H153805   2.153   1.864   9.948 -0.6415 -0.6258 -1.7969
 9870TIP3    H253806   2.233   1.947   9.850  0.3628  0.7926  0.1677
 9871TIP3   OH253807   0.357   7.059  11.223  0.7398 -0.6443 -0.2477
 9871TIP3    H153808   0.275   7.054  11.174  0.6118  0.5329 -0.1810
 9871TIP3    H253809   0.420   7.097  11.161  1.8501 -3.4688 -1.0174
 9872TIP3   OH253810   0.550   2.396  11.016  0.0332  0.5251 -0.5981
 9872TIP3    H153811   0.551   2.363  10.926  1.0809  0.1900 -0.4803
 9872TIP3    H253812   0.488   2.339  11.062  0.4823 -0.1532 -0.8152
 9873TIP3   OH253813   4.168   6.821  11.521  0.4223 -0.0226 -0.4151
 9873TIP3    H153814   4.170   6.725  11.520 -2.0820 -0.1602 -2.0367
 9873TIP3    H253815   4.238   6.846  11.460  1.1108 -0.8016  0.0249
 9874TIP3   OH253816   4.718   3.091  10.734  0.1281  0.3874  0.0559
 9874TIP3    H153817   4.653   3.153  10.702 -0.1240  0.5566  0.8729
 9874TIP3    H253818   4.668   3.014  10.759  0.3404  0.1864 -0.1410
 9875TIP3   OH253819   2.683   7.345  12.474  0.1486  0.2628  0.2221
 9875TIP3    H153820   2.612   7.390  12.521 -0.9175 -2.0667  0.9764
 9875TIP3    H253821   2.687   7.388  12.389 -2.3093  0.3517  0.0986
 9876TIP3   OH253822   2.651   3.695  12.422  0.2467  0.1641 -0.0147
 9876TIP3    H153823   2.719   3.753  12.456  0.3871  0.9328 -1.5318
 9876TIP3    H253824   2.692   3.608  12.421  0.9321  0.4842 -0.1657
 9877TIP3   OH253825   5.815   7.165  10.131 -0.0650 -0.1619 -0.0276
 9877TIP3    H153826   5.903   7.129  10.144  0.2496  0.9020  1.0060
 9877TIP3    H253827   5.787   7.130  10.046  2.1293  0.9649 -1.3128
 9878TIP3   OH253828   7.397   1.619  10.598 -0.3104  0.3229  0.3277
 9878TIP3    H153829   7.481   1.636  10.642 -0.3293  1.4638 -0.0355
 9878TIP3    H253830   7.380   1.699  10.548 -0.7349 -0.5942 -1.0407
 9879TIP3   OH253831   5.699   5.927   9.868 -0.9308 -0.2870  0.5397
 9879TIP3    H153832   5.634   5.861   9.846 -1.7986  0.6401  0.2561
 9879TIP3    H253833   5.649   5.998   9.907 -0.1440  0.5989 -0.0245
 9880TIP3   OH253834   5.974   5.492  10.430 -0.1171  0.1812 -0.3477
 9880TIP3    H153835   6.013   5.418  10.475  0.0745  0.6705  0.3113
 9880TIP3    H253836   5.948   5.552  10.501 -3.4159 -0.7551 -0.5986
 9881TIP3   OH253837   0.061   2.339  10.623 -0.1204 -0.1740 -0.1309
 9881TIP3    H153838   0.129   2.401  10.597  0.4846  0.1260  1.9763
 9881TIP3    H253839   0.108   2.269  10.668 -0.9805 -1.3398 -0.9554
 9882TIP3   OH253840   3.516   0.400  10.446 -0.2796 -0.5905  0.2169
 9882TIP3    H153841   3.563   0.429  10.524  0.0280 -1.2672  0.2907
 9882TIP3    H253842   3.433   0.366  10.478 -1.0888  1.0929  0.0388
 9883TIP3   OH253843   2.492   2.485  10.986 -0.3226  0.1710 -0.2102
 9883TIP3    H153844   2.435   2.504  10.912 -0.2438  3.4315  0.4101
 9883TIP3    H253845   2.432   2.462  11.057 -0.6789  0.6231 -0.3573
 9884TIP3   OH253846   0.235   1.599  10.237  0.1574  0.2742 -0.3090
 9884TIP3    H153847   0.263   1.634  10.152  0.3876 -2.0809 -1.2775
 9884TIP3    H253848   0.266   1.663  10.301  1.1458  1.4640 -1.9029
 9885TIP3   OH253849   1.734   6.880  11.625  0.5875  0.3050  0.5846
 9885TIP3    H153850   1.787   6.867  11.546  0.9645  1.6100  0.5966
 9885TIP3    H253851   1.705   6.792  11.649  0.6394 -0.1432 -0.8844
 9886TIP3   OH253852   0.537   6.183  10.831 -0.2195  0.4216  0.1902
 9886TIP3    H153853   0.520   6.276  10.847 -1.2158  0.3592 -0.4096
 9886TIP3    H253854   0.576   6.180  10.744 -0.1307  0.2847  0.2345
 9887TIP3   OH253855   2.885   6.248  11.055 -0.5568  0.3268 -0.5631
 9887TIP3    H153856   2.809   6.200  11.023  0.3232 -0.4968 -1.4560
 9887TIP3    H253857   2.958   6.186  11.051  0.2794  1.2384 -0.1868
 9888TIP3   OH253858   5.830   4.867  10.855 -0.5684 -0.2532 -0.3110
 9888TIP3    H153859   5.816   4.811  10.779 -1.2746 -1.6069  0.7749
 9888TIP3    H253860   5.746   4.911  10.869  0.2730  2.0813 -1.8361
 9889TIP3   OH253861   2.370   5.791  12.052 -0.1528  0.4855 -0.3939
 9889TIP3    H153862   2.392   5.772  12.142  0.1751  0.5118 -0.4686
 9889TIP3    H253863   2.281   5.827  12.056 -1.0007 -1.4983 -0.3046
 9890TIP3   OH253864   0.602   0.316  11.973 -0.2677  0.7181  0.2555
 9890TIP3    H153865   0.550   0.347  12.047 -0.9753 -2.0342  1.0021
 9890TIP3    H253866   0.661   0.250  12.010  0.6120  0.5417 -1.3466
 9891TIP3   OH253867   1.794   3.127  11.494 -0.2995  0.1013  0.1977
 9891TIP3    H153868   1.719   3.086  11.451 -0.3849  0.6718 -0.1990
 9891TIP3    H253869   1.769   3.218  11.505 -0.6202 -0.1864  2.2280
 9892TIP3   OH253870   3.960   5.017  11.572 -0.1327 -0.4929 -0.0119
 9892TIP3    H153871   3.895   5.068  11.524  0.5754 -0.3440 -0.8125
 9892TIP3    H253872   3.944   5.039  11.664 -0.8196  0.0014 -0.2432
 9893TIP3   OH253873   0.613   0.536  10.944 -0.4023  0.1382  0.0810
 9893TIP3    H153874   0.599   0.521  11.037 -2.8307  0.2564 -0.2122
 9893TIP3    H253875   0.709   0.537  10.934 -0.0503  1.4936  2.7608
 9894TIP3   OH253876   4.977   6.085  10.309 -0.3952 -0.2300 -0.7489
 9894TIP3    H153877   4.995   6.111  10.219 -0.9394  0.3588 -0.6977
 9894TIP3    H253878   4.883   6.068  10.310 -0.7758  1.6834  0.1509
 9895TIP3   OH253879   7.513   2.109  11.563 -0.2891 -0.0871 -0.1534
 9895TIP3    H153880   7.444   2.165  11.598  0.6845 -0.0515  1.8241
 9895TIP3    H253881   7.489   2.020  11.591  1.6429  0.1898  2.7553
 9896TIP3   OH253882   1.468   5.163   9.841 -0.0376  0.5137  0.3022
 9896TIP3    H153883   1.394   5.183   9.784 -0.7157  0.5528  1.1835
 9896TIP3    H253884   1.519   5.244   9.842 -0.9955  1.1250  1.1849
 9897TIP3   OH253885   2.379   0.236   9.819  0.0571 -0.2183 -1.2675
 9897TIP3    H153886   2.341   0.320   9.848 -0.5682 -0.3664 -1.6374
 9897TIP3    H253887   2.473   0.250   9.824  0.1005 -0.9382  2.9466
 9898TIP3   OH253888   7.007   0.215  10.072 -0.1776  0.2019 -0.1497
 9898TIP3    H153889   6.933   0.276  10.073  0.7339  1.3637  2.3284
 9898TIP3    H253890   6.967   0.129  10.084 -1.3124  0.4575 -1.7524
 9899TIP3   OH253891   0.725   5.937  11.981 -0.2728 -0.2568 -0.7513
 9899TIP3    H153892   0.665   5.959  11.910  0.5824 -0.2523 -1.4864
 9899TIP3    H253893   0.737   5.843  11.974 -0.4176 -0.2990 -0.4299
 9900TIP3   OH253894   7.456   1.777  11.146 -0.2343 -0.2104 -0.1349
 9900TIP3    H153895   7.394   1.759  11.217  0.7903 -2.5006  0.2461
 9900TIP3    H253896   7.462   1.695  11.098  1.4972  0.3571 -0.9621
 9901TIP3   OH253897   3.078   3.740  12.044 -0.2341  0.9350 -0.3406
 9901TIP3    H153898   3.003   3.767  12.096 -0.1425  0.9838 -0.2340
 9901TIP3    H253899   3.092   3.813  11.983 -0.9407  0.4639 -1.0835
 9902TIP3   OH253900   5.793   7.226   9.791 -0.2828  0.6864  0.0275
 9902TIP3    H153901   5.871   7.267   9.828  1.0490 -0.8479 -0.9329
 9902TIP3    H253902   5.768   7.282   9.718  2.0531 -0.5536 -1.8526
 9903TIP3   OH253903   3.542   2.872  12.281 -0.3842  0.0137  0.2484
 9903TIP3    H153904   3.623   2.897  12.325 -0.0297 -1.2187  0.3440
 9903TIP3    H253905   3.565   2.869  12.188 -0.5301  0.4152  0.1980
 9904TIP3   OH253906   3.313   5.938  11.753 -0.0880  0.0149 -0.0653
 9904TIP3    H153907   3.231   5.971  11.715  0.3995  0.4790 -0.7209
 9904TIP3    H253908   3.380   6.000  11.724  0.2869  0.4822  1.6734
 9905TIP3   OH253909   1.913   1.272  11.790 -0.1997 -0.1459 -0.2026
 9905TIP3    H153910   1.820   1.284  11.808 -0.3545 -1.7630  0.1689
 9905TIP3    H253911   1.918   1.250  11.697 -0.2055 -0.2227 -0.1848
 9906TIP3   OH253912   6.800   4.745  11.026 -0.2756 -0.1916 -0.3796
 9906TIP3    H153913   6.735   4.757  10.957  0.0603 -0.0679 -0.6741
 9906TIP3    H253914   6.752   4.701  11.096 -0.6274 -0.2858 -0.6764
 9907TIP3   OH253915   0.455   4.830  11.112  0.5542 -0.2137  0.1320
 9907TIP3    H153916   0.422   4.762  11.054 -0.2054 -1.5265  2.0240
 9907TIP3    H253917   0.389   4.900  11.108 -0.2907 -0.9757  0.6178
 9908TIP3   OH253918   2.892   5.903  11.623 -0.2211  0.0336 -0.2088
 9908TIP3    H153919   2.895   5.884  11.529 -0.6745 -0.4138 -0.1420
 9908TIP3    H253920   2.967   5.960  11.639 -0.4321  0.5288 -0.9339
 9909TIP3   OH253921   0.154   5.072  11.732  0.3493 -0.1912 -0.2432
 9909TIP3    H153922   0.205   5.002  11.773 -0.3419 -0.8566 -0.4772
 9909TIP3    H253923   0.208   5.103  11.659  0.5357 -0.6985 -0.3249
 9910TIP3   OH253924   2.207   1.922  11.371  0.0925 -0.4829  0.0976
 9910TIP3    H153925   2.120   1.882  11.366  0.0157 -0.5739  1.6360
 9910TIP3    H253926   2.265   1.860  11.327 -0.5412 -0.6485 -0.5198
 9911TIP3   OH253927   3.327   7.541  10.638 -0.0740  0.6652  0.2950
 9911TIP3    H153928   3.370   7.457  10.627 -1.4782 -0.0438 -0.0909
 9911TIP3    H253929   3.311   7.549  10.732 -1.0746 -0.1208  0.2079
 9912TIP3   OH253930   4.835   6.462  12.196  0.5262  0.0917  0.0766
 9912TIP3    H153931   4.927   6.464  12.223 -0.1721  0.6562  2.7846
 9912TIP3    H253932   4.810   6.370  12.206  0.5434  0.1181  0.3861
 9913TIP3   OH253933   3.195   0.893  12.572 -0.1241  0.2366 -0.4681
 9913TIP3    H153934   3.116   0.887  12.625  0.2804  2.2844  0.4840
 9913TIP3    H253935   3.189   0.978  12.528  1.1541  0.0701 -1.0420
 9914TIP3   OH253936   1.188   4.266  10.847 -0.1548  0.0278  0.0149
 9914TIP3    H153937   1.235   4.348  10.863 -0.9635  0.3840  0.6639
 9914TIP3    H253938   1.103   4.279  10.889  0.1467 -1.6161  1.2668
 9915TIP3   OH253939   2.378   6.903  10.580 -0.0022  0.4387  0.1369
 9915TIP3    H153940   2.414   6.945  10.501 -0.1177  1.8067  0.7778
 9915TIP3    H253941   2.363   6.812  10.554  2.4366  0.1799 -0.6411
 9916TIP3   OH253942   2.910   4.987  10.847  0.2058  0.4379  0.3650
 9916TIP3    H153943   2.919   5.040  10.926  1.1917  0.3197  0.3419
 9916TIP3    H253944   2.961   5.033  10.781  0.5514 -0.1988  0.1790
 9917TIP3   OH253945   3.946   6.162  11.336  0.1796  0.2648  0.0702
 9917TIP3    H153946   3.935   6.215  11.416  0.5577 -1.4404  1.3181
 9917TIP3    H253947   4.016   6.101  11.359 -0.3561 -0.8725 -1.2630
 9918TIP3   OH253948   3.917   2.110  10.488  0.2629  0.2595  0.1887
 9918TIP3    H153949   3.911   2.025  10.445  1.1752  0.2115  0.1210
 9918TIP3    H253950   3.841   2.159  10.458 -0.5745 -0.7170  0.6518
 9919TIP3   OH253951   2.043   4.078  11.500  0.1441 -0.3284  0.2231
 9919TIP3    H153952   2.087   4.125  11.429 -0.6298  0.3847  0.1971
 9919TIP3    H253953   2.104   4.085  11.574 -0.5277  1.9555  0.6305
 9920TIP3   OH253954   2.241   5.803  10.568  0.0098 -0.5602  0.0706
 9920TIP3    H153955   2.263   5.729  10.512  0.0015  0.0278 -0.7266
 9920TIP3    H253956   2.324   5.827  10.610 -0.0419 -1.1824  0.5325
 9921TIP3   OH253957   0.350   4.762   9.819 -0.2875 -0.2465 -0.3833
 9921TIP3    H153958   0.258   4.746   9.798 -1.2101  0.2367  2.7077
 9921TIP3    H253959   0.356   4.857   9.830  0.0101 -0.4273  1.3965
 9922TIP3   OH253960   0.121   0.591  11.109 -0.1684 -0.6672 -0.3242
 9922TIP3    H153961   0.197   0.557  11.156 -0.9431 -2.1413 -0.0926
 9922TIP3    H253962   0.087   0.517  11.060 -1.2568  0.0551 -0.7082
 9923TIP3   OH253963   0.087   4.712   9.690  0.2115 -0.1200  0.2598
 9923TIP3    H153964  -0.007   4.727   9.704  0.1173 -0.8245  0.4178
 9923TIP3    H253965   0.101   4.621   9.715  1.1126  0.2209  1.0929
 9924TIP3   OH253966   0.629   0.692  11.459  0.0474 -0.3309  0.1031
 9924TIP3    H153967   0.712   0.653  11.487 -0.2756 -1.3617 -0.3309
 9924TIP3    H253968   0.586   0.717  11.541 -0.3459 -2.1930  0.5235
 9925TIP3   OH253969   1.915   6.680  11.967  0.3520  0.1791  0.1033
 9925TIP3    H153970   1.875   6.616  11.908  2.5638 -2.1042  0.9323
 9925TIP3    H253971   1.925   6.759  11.914 -3.0782  0.1903 -0.7596
 9926TIP3   OH253972   5.836   3.696  10.498  0.4245  0.3411 -0.2920
 9926TIP3    H153973   5.774   3.678  10.427  0.4631 -3.2544  0.4066
 9926TIP3    H253974   5.921   3.699  10.455  0.5173 -2.3847 -0.4670
 9927TIP3   OH253975   1.462   6.926  10.884 -0.0074  0.4623  0.3451
 9927TIP3    H153976   1.449   7.012  10.843 -2.9035  1.2954  2.6464
 9927TIP3    H253977   1.537   6.938  10.943  0.9343  0.7341 -0.8724
 9928TIP3   OH253978   4.752   1.835  10.369  0.3970 -0.0857  0.0558
 9928TIP3    H153979   4.843   1.862  10.383  0.6608  0.1727 -1.8781
 9928TIP3    H253980   4.699   1.902  10.413  1.1141  0.5682 -0.0702
 9929TIP3   OH253981   6.370   2.591  11.042  0.1148 -0.1958 -0.1245
 9929TIP3    H153982   6.282   2.631  11.043  0.8055  1.3954 -0.1913
 9929TIP3    H253983   6.363   2.520  10.978 -0.6446  1.0946 -1.5519
 9930TIP3   OH253984   6.992   3.200   9.985  0.0026  0.4995 -0.1542
 9930TIP3    H153985   7.006   3.238   9.898  3.5669 -1.5571 -0.6736
 9930TIP3    H253986   7.079   3.193  10.023 -1.0057 -2.1784  2.0331
 9931TIP3   OH253987   2.449   1.102  10.433 -0.2168  0.0931  0.0803
 9931TIP3    H153988   2.541   1.122  10.448 -0.4005  0.5735  0.6213
 9931TIP3    H253989   2.430   1.136  10.346  0.3411 -0.8427 -0.4298
 9932TIP3   OH253990   6.342   3.658  12.279  0.5861  0.6648  0.4552
 9932TIP3    H153991   6.336   3.652  12.184  0.7428 -0.5348  0.5065
 9932TIP3    H253992   6.403   3.588  12.304 -0.9767 -0.3840  1.5966
 9933TIP3   OH253993   1.537   2.906  10.896  0.1670  0.0348  0.1600
 9933TIP3    H153994   1.446   2.875  10.901  0.3511 -0.6054 -0.3997
 9933TIP3    H253995   1.588   2.838  10.941  0.6611 -0.8968 -1.7230
 9934TIP3   OH253996   5.257   0.203   9.872  0.3640 -0.3745  0.0652
 9934TIP3    H153997   5.165   0.230   9.875  0.8201  1.4524 -0.9328
 9934TIP3    H253998   5.270   0.173   9.782  1.0128  0.4624 -0.1268
 9935TIP3   OH253999   0.692   6.062  11.058 -0.0286  0.3778  0.0240
 9935TIP3    H154000   0.665   6.102  10.975  1.8795  1.9730  0.1110
 9935TIP3    H254001   0.703   5.969  11.037 -1.6701  0.3442 -0.9340
 9936TIP3   OH254002   3.521   6.854  11.689  0.5422 -0.2852 -0.7170
 9936TIP3    H154003   3.477   6.877  11.771 -0.2249 -0.0648 -1.1765
 9936TIP3    H254004   3.450   6.830  11.630  1.1336 -1.1094 -1.1173
 9937TIP3   OH254005   5.939   3.758  10.187 -0.3983 -0.0029  0.0293
 9937TIP3    H154006   5.874   3.793  10.248  0.2456  0.0845  0.6814
 9937TIP3    H254007   5.899   3.768  10.100 -0.7613  1.1309  0.3187
 9938TIP3   OH254008   6.223   1.574  10.441 -0.5744 -0.0828 -0.4077
 9938TIP3    H154009   6.274   1.643  10.483  1.8301 -0.6363 -2.1929
 9938TIP3    H254010   6.251   1.493  10.485 -1.0644 -0.2581 -0.4062
 9939TIP3   OH254011   5.038   0.325  10.762 -0.1026  0.0577 -0.4034
 9939TIP3    H154012   5.105   0.386  10.732  0.4232 -0.7677 -0.9639
 9939TIP3    H254013   5.007   0.362  10.845  2.4070 -0.4968  0.8980
 9940TIP3   OH254014   3.735   7.547  10.690 -0.5030  0.1037 -0.0917
 9940TIP3    H154015   3.708   7.583  10.606 -1.4711 -0.9916 -0.2660
 9940TIP3    H254016   3.760   7.456  10.671  0.1492  0.1090  0.6531
 9941TIP3   OH254017   3.518   1.314   9.860 -0.3489 -0.2232  0.5893
 9941TIP3    H154018   3.469   1.392   9.886  0.0888  0.2626 -0.0161
 9941TIP3    H254019   3.580   1.345   9.794  0.8270 -0.8120  1.3845
 9942TIP3   OH254020   4.293   2.453  11.287 -0.3097 -0.0793  0.2341
 9942TIP3    H154021   4.270   2.544  11.271 -0.2270 -0.2947 -1.2084
 9942TIP3    H254022   4.225   2.421  11.346 -0.3546  0.8949  0.7292
 9943TIP3   OH254023   1.465   5.838  12.731  0.2610 -0.3277 -0.5282
 9943TIP3    H154024   1.523   5.909  12.704 -0.0979  0.6064  1.0067
 9943TIP3    H254025   1.377   5.872  12.717  0.0530 -1.3643 -1.9133
 9944TIP3   OH254026   3.500   3.582  12.231 -0.0289 -0.1891  0.3973
 9944TIP3    H154027   3.573   3.581  12.293 -0.2745  0.4307  0.7018
 9944TIP3    H254028   3.460   3.668  12.242  0.8674  0.5828 -1.7094
 9945TIP3   OH254029   5.609   1.015  10.681 -0.0299  0.5777 -0.0929
 9945TIP3    H154030   5.608   1.110  10.665 -0.0940  0.9833  2.0806
 9945TIP3    H254031   5.606   1.006  10.776  0.6196 -1.6167 -0.2142
 9946TIP3   OH254032   2.395   2.991   9.873  0.4304  0.1323 -0.4086
 9946TIP3    H154033   2.430   3.013   9.960  1.0273 -0.9584 -0.3522
 9946TIP3    H254034   2.313   3.039   9.867  0.9525  1.1568  0.2817
 9947TIP3   OH254035   7.468   5.280  12.350 -0.2280 -0.4962  0.2270
 9947TIP3    H154036   7.486   5.352  12.290 -0.2654 -0.8683 -0.2385
 9947TIP3    H254037   7.436   5.322  12.430  0.3259  0.0361  0.1763
 9948TIP3   OH254038   5.463   7.099  12.206 -0.5376 -0.5335  0.4624
 9948TIP3    H154039   5.380   7.071  12.244 -1.5008  0.9761 -0.4188
 9948TIP3    H254040   5.450   7.191  12.185  1.4883 -0.1732  0.5943
 9949TIP3   OH254041   0.526   4.195  11.647 -0.1822 -0.1498  0.2430
 9949TIP3    H154042   0.451   4.254  11.640  1.3455  1.8924  0.3004
 9949TIP3    H254043   0.596   4.249  11.683  2.2182 -1.1460 -2.5357
 9950TIP3   OH254044   7.340   4.572  11.066 -0.4207 -0.2302  0.2479
 9950TIP3    H154045   7.414   4.628  11.089  0.0908 -0.6929 -0.2387
 9950TIP3    H254046   7.360   4.488  11.108 -1.8773  0.3253  2.1759
 9951TIP3   OH254047   0.379   1.877  11.599 -0.3943 -0.3032 -0.0283
 9951TIP3    H154048   0.290   1.849  11.621 -1.0754  0.0269 -2.0822
 9951TIP3    H254049   0.397   1.834  11.515  1.2383 -0.0313  0.1451
 9952TIP3   OH254050   1.781   4.071  11.609 -0.2673  0.3780 -0.1650
 9952TIP3    H154051   1.869   4.058  11.573  0.1588  1.9922  0.2113
 9952TIP3    H254052   1.794   4.081  11.703 -0.5377  2.7415 -0.3169
 9953TIP3   OH254053   6.593   3.181  10.616  0.3669  0.1675  0.3472
 9953TIP3    H154054   6.578   3.196  10.709 -0.0340 -1.9190  0.6716
 9953TIP3    H254055   6.507   3.155  10.582  0.6089  0.4700 -0.5136
 9954TIP3   OH254056   7.157   2.173  11.789 -0.3073  0.0233 -0.0457
 9954TIP3    H154057   7.064   2.156  11.776 -0.7010 -0.4499  2.7369
 9954TIP3    H254058   7.184   2.108  11.854  1.6338  1.0446  0.2502
 9955TIP3   OH254059   6.658   1.284  11.721  0.3341 -0.5868 -0.0592
 9955TIP3    H154060   6.716   1.345  11.676  0.2389  0.5164  1.2562
 9955TIP3    H254061   6.570   1.315  11.699  0.2865  0.4237  1.4366
 9956TIP3   OH254062   3.370   4.828  12.505 -0.7943 -0.0910  0.1430
 9956TIP3    H154063   3.286   4.830  12.550 -0.5162 -1.1849  0.7655
 9956TIP3    H254064   3.355   4.774  12.428 -0.6774 -0.2499  0.2304
 9957TIP3   OH254065   7.469   4.221  12.025 -0.2217 -0.5959 -0.5260
 9957TIP3    H154066   7.430   4.307  12.009  2.0439  0.2340 -2.2424
 9957TIP3    H254067   7.445   4.200  12.115 -1.7070  1.3416 -0.4016
 9958TIP3   OH254068   5.442   3.475  11.439  0.1936 -0.5577 -0.2980
 9958TIP3    H154069   5.369   3.414  11.444 -0.4225  0.1924 -0.0203
 9958TIP3    H254070   5.417   3.547  11.496  0.6404  0.2358 -1.0819
 9959TIP3   OH254071   2.866   3.229  12.464 -0.0248 -0.3216 -0.6189
 9959TIP3    H154072   2.825   3.158  12.514 -1.3918  0.3473 -0.7614
 9959TIP3    H254073   2.916   3.184  12.396 -0.0516 -1.1743 -0.0972
 9960TIP3   OH254074   0.943   2.115  11.382 -0.7639  0.3919  0.6854
 9960TIP3    H154075   0.910   2.056  11.314  1.1510  2.8061 -2.6218
 9960TIP3    H254076   0.904   2.200  11.361  3.3058  2.2329 -0.3950
 9961TIP3   OH254077   7.660   0.684  12.436  0.4252  0.3316  0.0009
 9961TIP3    H154078   7.748   0.676  12.473  1.5187 -1.0449 -2.6051
 9961TIP3    H254079   7.607   0.622  12.486  1.2072  0.3025  0.8227
 9962TIP3   OH254080   0.453   2.302  10.486  0.2918 -0.5327 -0.3554
 9962TIP3    H154081   0.413   2.266  10.407 -1.3388 -1.1601  0.7132
 9962TIP3    H254082   0.515   2.368  10.454  1.0089 -2.0390 -2.2041
 9963TIP3   OH254083   4.126   5.219  10.738 -0.4937  0.0403  0.4085
 9963TIP3    H154084   4.060   5.268  10.690 -1.1301 -0.5975  0.6192
 9963TIP3    H254085   4.196   5.204  10.674 -0.4314  0.9322  0.2543
 9964TIP3   OH254086   5.319   5.547  12.526 -0.0873  0.3128  0.3182
 9964TIP3    H154087   5.361   5.486  12.466  0.8050  1.1684  0.0402
 9964TIP3    H254088   5.294   5.621  12.471  0.8682  1.1679  0.9933
 9965TIP3   OH254089   1.928   2.346  12.028  0.3322  0.2715  0.7732
 9965TIP3    H154090   1.939   2.309  12.115 -0.9683  1.6708  1.5783
 9965TIP3    H254091   1.869   2.421  12.040 -0.0391  0.3954 -1.3326
 9966TIP3   OH254092   2.725   6.126  11.361  0.4128  0.0184 -0.0200
 9966TIP3    H154093   2.735   6.192  11.430  1.2696  0.9686 -1.0028
 9966TIP3    H254094   2.642   6.083  11.381  0.5415  0.4018  1.4727
 9967TIP3   OH254095   1.383   0.930  12.412  0.0374  0.4240  0.5508
 9967TIP3    H154096   1.396   1.025  12.411 -0.8056  0.5516 -0.9945
 9967TIP3    H254097   1.293   0.919  12.443  0.0810  0.1437  0.5761
 9968TIP3   OH254098   4.072   3.282  10.237  0.1743  0.0823  0.3374
 9968TIP3    H154099   4.070   3.211  10.172 -1.3311 -0.4642  0.9613
 9968TIP3    H254100   4.025   3.248  10.312 -0.2712  1.6202  0.7908
 9969TIP3   OH254101   1.899   1.385  11.554 -0.3715 -0.0824  0.2893
 9969TIP3    H154102   1.911   1.480  11.541 -0.1522 -0.2381 -0.7248
 9969TIP3    H254103   1.843   1.358  11.482  0.3433 -0.8858  0.0169
 9970TIP3   OH254104   1.728   4.878  11.014  0.4570 -0.6856  0.3964
 9970TIP3    H154105   1.669   4.823  10.963 -0.2509  0.7322 -0.3333
 9970TIP3    H254106   1.672   4.921  11.078  1.0218 -0.8594  1.0188
 9971TIP3   OH254107   6.827   5.691  11.030  0.4636 -0.1309 -0.5617
 9971TIP3    H154108   6.867   5.774  11.006  1.5119 -0.7395 -0.9821
 9971TIP3    H254109   6.749   5.685  10.974 -0.4833  1.2429  0.5531
 9972TIP3   OH254110   5.422   6.532  10.364 -0.6787  0.6544 -0.1241
 9972TIP3    H154111   5.338   6.543  10.409  0.1370 -1.1239  2.0133
 9972TIP3    H254112   5.487   6.564  10.427  0.4460 -1.1053 -0.3368
 9973TIP3   OH254113   4.515   6.375   9.843 -0.3387  0.3386  0.2044
 9973TIP3    H154114   4.499   6.282   9.860  1.9618 -0.1070  0.2720
 9973TIP3    H254115   4.533   6.380   9.749 -0.9538  0.7978  0.1087
 9974TIP3   OH254116   2.490   7.147  11.010  0.0908  0.2861  0.1212
 9974TIP3    H154117   2.529   7.126  10.925  0.3883 -2.1880  0.7756
 9974TIP3    H254118   2.411   7.093  11.014 -1.5524  2.5618  0.2788
 9975TIP3   OH254119   0.096   7.476  12.212 -0.0820  0.7470 -0.1928
 9975TIP3    H154120   0.183   7.491  12.175  0.3654  0.4748  0.7211
 9975TIP3    H254121   0.060   7.563  12.226  0.4319  0.8835  0.3119
 9976TIP3   OH254122   6.938   6.291  11.702 -0.0418 -0.1346  0.4522
 9976TIP3    H154123   6.967   6.383  11.703 -0.5088  0.0369  2.4453
 9976TIP3    H254124   6.843   6.297  11.705 -0.1796 -0.7253 -1.3753
 9977TIP3   OH254125   0.720   4.775  11.931 -0.5631  0.0678 -0.4826
 9977TIP3    H154126   0.681   4.713  11.870 -0.2707 -1.3367  0.7135
 9977TIP3    H254127   0.662   4.774  12.007  0.4843 -0.2215  0.3323
 9978TIP3   OH254128   0.186   1.761  12.442  0.1869 -0.3730 -0.2735
 9978TIP3    H154129   0.093   1.779  12.429  0.2093 -1.0056 -1.4912
 9978TIP3    H254130   0.213   1.822  12.510 -1.3075 -0.7900  0.7356
 9979TIP3   OH254131   5.852   7.488  10.642 -0.5819 -0.0708  0.0978
 9979TIP3    H154132   5.913   7.517  10.573  0.9981  1.1343  1.9009
 9979TIP3    H254133   5.823   7.568  10.684 -0.2054 -0.8243  1.8862
 9980TIP3   OH254134   2.963   0.997  10.392  0.8672  0.6570 -0.4794
 9980TIP3    H154135   2.908   0.921  10.375  0.6895  0.3073  1.4268
 9980TIP3    H254136   2.969   1.042  10.308 -0.4105 -0.5526 -1.2513
 9981TIP3   OH254137   4.724   3.830  10.533  0.1597  0.2151 -0.5537
 9981TIP3    H154138   4.768   3.811  10.616  0.8412 -0.3224 -1.0175
 9981TIP3    H254139   4.681   3.914  10.547 -0.1064 -0.0708  0.4821
 9982TIP3   OH254140   5.200   4.275  10.550 -0.2843 -0.0012  0.0358
 9982TIP3    H154141   5.107   4.295  10.556 -0.2346  0.5900 -0.8758
 9982TIP3    H254142   5.244   4.353  10.585 -0.1163 -1.0485  2.3273
 9983TIP3   OH254143   7.103   6.465  12.935 -0.2361 -0.7455  0.0994
 9983TIP3    H154144   7.053   6.539  12.898  1.2043 -0.8533 -2.2117
 9983TIP3    H254145   7.037   6.415  12.984 -1.6848  0.9110 -0.0215
 9984TIP3   OH254146   4.131   6.894  11.777 -0.3561  0.0762 -0.4460
 9984TIP3    H154147   4.160   6.871  11.688 -0.9348 -1.9964 -0.1481
 9984TIP3    H254148   4.145   6.988  11.783 -1.1419  0.4235 -3.0532
 9985TIP3   OH254149   0.707   1.415  10.172 -0.3654 -0.7173 -0.2870
 9985TIP3    H154150   0.757   1.433  10.252 -0.6431 -0.5604 -0.1467
 9985TIP3    H254151   0.617   1.407  10.201 -0.3935 -1.2656 -0.5029
 9986TIP3   OH254152   2.461   6.254  11.795 -0.5536  0.3032 -0.1104
 9986TIP3    H154153   2.465   6.261  11.890 -1.3831 -0.5418  0.0046
 9986TIP3    H254154   2.430   6.165  11.778 -0.0655  0.3166 -1.1830
 9987TIP3   OH254155   3.686   4.338  11.058  0.0550 -0.6329 -0.1262
 9987TIP3    H154156   3.658   4.307  11.145 -3.5238  1.5158 -0.3173
 9987TIP3    H254157   3.767   4.385  11.075 -0.4046 -0.4955  2.0674
 9988TIP3   OH254158   6.260   1.648   9.991 -0.0938  0.0262 -0.4477
 9988TIP3    H154159   6.206   1.690  10.057  1.4340  2.4391 -0.6225
 9988TIP3    H254160   6.342   1.698   9.991  2.0013 -3.1442 -0.5414
 9989TIP3   OH254161   2.673   3.389  10.033 -0.1595  0.0066 -0.2010
 9989TIP3    H154162   2.584   3.416  10.056 -0.5292 -0.5233 -0.9802
 9989TIP3    H254163   2.662   3.304   9.991  0.8913 -0.9330  1.3302
 9990TIP3   OH254164   7.655   7.254  11.390 -0.0729  0.3018 -0.0420
 9990TIP3    H154165   7.692   7.342  11.396 -0.0655  0.2279  1.3873
 9990TIP3    H254166   7.562   7.266  11.409  0.2548 -0.1923  2.2217
 9991TIP3   OH254167   1.470   5.891  11.839 -0.1771  0.3968 -0.0922
 9991TIP3    H154168   1.384   5.857  11.813 -0.1183  0.4903 -0.4192
 9991TIP3    H254169   1.453   5.941  11.919 -0.2955 -0.2265  0.2756
 9992TIP3   OH254170   3.625   1.563  10.535 -0.8202 -0.5840  0.6178
 9992TIP3    H154171   3.543   1.539  10.491 -0.7396 -1.3668  0.8650
 9992TIP3    H254172   3.689   1.570  10.465 -1.3103  1.1086  0.2944
 9993TIP3   OH254173   0.824   4.177  12.258 -0.0060 -0.0028  0.0691
 9993TIP3    H154174   0.919   4.169  12.255  0.1041 -2.2883  3.9166
 9993TIP3    H254175   0.794   4.102  12.309 -3.7890  1.3400  0.1749
 9994TIP3   OH254176   0.128   6.159  11.933  0.0448 -0.0254 -0.7092
 9994TIP3    H154177   0.193   6.102  11.892  0.0203 -1.4334  1.1228
 9994TIP3    H254178   0.178   6.233  11.966  0.6037 -0.6438 -0.1402
 9995TIP3   OH254179   7.208   3.824   9.819 -0.9830  0.1670 -0.4787
 9995TIP3    H154180   7.287   3.823   9.873 -1.6562 -0.3042  0.5447
 9995TIP3    H254181   7.230   3.879   9.745  0.3917 -0.1600 -0.3469
 9996TIP3   OH254182   0.809   5.179  10.068  0.7611 -0.2556 -0.1357
 9996TIP3    H154183   0.813   5.204  10.161  0.2450  1.7404 -0.5995
 9996TIP3    H254184   0.899   5.159  10.045  0.9455 -0.4508  0.7193
 9997TIP3   OH254185   5.791   0.183  11.292  0.4793  0.0467 -0.0939
 9997TIP3    H154186   5.875   0.165  11.334  0.3401  0.0639  0.1904
 9997TIP3    H254187   5.778   0.109  11.232 -0.2803 -1.0534  1.3616
 9998TIP3   OH254188   0.068   4.467   9.874  0.0427 -0.2691 -0.2085
 9998TIP3    H154189   0.018   4.524   9.933  0.6978  0.1657 -0.0541
 9998TIP3    H254190   0.013   4.390   9.862 -0.0021 -0.4879  1.1957
 9999TIP3   OH254191   3.374   5.082  11.092  0.0999 -0.5424 -0.1920
 9999TIP3    H154192   3.456   5.072  11.044 -0.8327  0.8897 -2.2577
 9999TIP3    H254193   3.382   5.023  11.167  2.2758 -1.7559 -1.2857
10000TIP3   OH254194   7.155   2.704  11.412  0.3671  0.7168 -0.0421
10000TIP3    H154195   7.250   2.706  11.421  0.4826  0.6067 -1.1218
10000TIP3    H254196   7.129   2.621  11.451  0.5753  1.2851  1.3526
10001TIP3   OH254197   3.394   5.943  10.167  0.0588 -0.1324  0.1253
10001TIP3    H154198   3.383   5.860  10.121  2.2268 -0.5562  0.2744
10001TIP3    H254199   3.318   5.948  10.225 -0.1758 -1.9669  0.0398
10002TIP3   OH254200   4.524   3.962  10.818  0.2930 -0.2525  0.0496
10002TIP3    H154201   4.442   3.915  10.799  0.4242 -0.7998  0.7997
10002TIP3    H254202   4.555   3.925  10.900  1.0174  0.3408  0.0594
10003TIP3   OH254203   5.653   2.578  10.333  0.5405 -0.2261  0.1815
10003TIP3    H154204   5.727   2.556  10.389  1.5749  0.0794 -1.0272
10003TIP3    H254205   5.669   2.531  10.252 -0.9519 -0.6903  0.1281
10004TIP3   OH254206   0.415   1.677  11.041 -0.1653  0.5284  0.2280
10004TIP3    H154207   0.503   1.708  11.062 -0.1390  0.3737  0.3467
10004TIP3    H254208   0.358   1.720  11.104 -0.1809  0.6656  0.1210
10005TIP3   OH254209   2.090   7.232   9.972  0.4031  0.0561 -0.0082
10005TIP3    H154210   2.079   7.318   9.930  2.8706  1.4554  1.9476
10005TIP3    H254211   2.145   7.249  10.048  0.2649 -3.1756  0.9694
10006TIP3   OH254212   5.983   6.623  12.030 -0.1742  0.1092 -0.0717
10006TIP3    H154213   6.022   6.708  12.010 -1.0675  0.7885  0.9725
10006TIP3    H254214   5.912   6.642  12.091 -0.6692 -1.3475 -0.1400
10007TIP3   OH254215   3.455   5.075  11.705  0.0047 -0.2256  0.0376
10007TIP3    H154216   3.457   5.023  11.785 -0.5108 -1.5457 -0.7761
10007TIP3    H254217   3.364   5.106  11.699  0.6557  2.3160  1.4064
10008TIP3   OH254218   0.582   1.997  11.317 -0.0658 -0.3688 -0.1196
10008TIP3    H154219   0.630   1.983  11.235 -0.2551  2.1065 -0.7185
10008TIP3    H254220   0.631   1.946  11.382  1.5041 -0.4629 -1.3065
10009TIP3   OH254221   7.251   2.593  10.897  0.0230  0.2856 -0.6383
10009TIP3    H154222   7.297   2.618  10.817  0.3298  1.0384 -0.2342
10009TIP3    H254223   7.225   2.677  10.936 -0.1472 -0.0798  0.0326
10010TIP3   OH254224   7.562   6.496   9.753 -0.2674  0.4366  0.1253
10010TIP3    H154225   7.612   6.483   9.834 -0.3149 -0.3541  0.0299
10010TIP3    H254226   7.593   6.580   9.719  0.2447  0.4459  0.6068
10011TIP3   OH254227   5.396   2.855  11.189  0.3592  0.3006 -0.4426
10011TIP3    H154228   5.396   2.843  11.284 -0.0151 -0.6837 -0.5474
10011TIP3    H254229   5.405   2.949  11.176 -1.8911  0.7277  0.6086
10012TIP3   OH254230   5.093   4.920  11.371  0.0257 -0.0842  0.7255
10012TIP3    H154231   5.000   4.937  11.358  0.2725  1.8505  1.0986
10012TIP3    H254232   5.097   4.853  11.439 -1.0930  0.1026  0.9817
10013TIP3   OH254233   2.128   3.011  11.172 -0.6073  0.2189 -0.3720
10013TIP3    H154234   2.120   3.044  11.262 -0.0069 -1.2698  0.2580
10013TIP3    H254235   2.150   3.089  11.120  0.4971  0.8720  0.9992
10014TIP3   OH254236   0.566   4.102  10.337  0.3066  0.2925  0.0202
10014TIP3    H154237   0.582   4.195  10.323 -0.5226  0.1404 -2.1703
10014TIP3    H254238   0.638   4.058  10.291  1.0409 -0.1874  1.5498
10015TIP3   OH254239   3.457   2.511  11.685 -0.2507  0.1008  0.8439
10015TIP3    H154240   3.361   2.509  11.680 -0.2416  1.3173 -0.2764
10015TIP3    H254241   3.484   2.439  11.627 -0.4785  0.1139  0.7178
10016TIP3   OH254242   7.091   1.200  10.806 -0.5442  0.1451 -0.2057
10016TIP3    H154243   7.170   1.215  10.755 -0.1110 -0.0810  0.3903
10016TIP3    H254244   7.110   1.122  10.859 -1.5021 -0.4586 -0.7301
10017TIP3   OH254245   0.741   5.251  10.338 -0.2949 -0.0814  0.1213
10017TIP3    H154246   0.746   5.157  10.352 -1.1046  0.0453  1.4171
10017TIP3    H254247   0.817   5.287  10.384 -0.7632 -0.0013  0.8541
10018TIP3   OH254248   4.583   6.590  10.287 -0.3003  0.4190 -0.1736
10018TIP3    H154249   4.614   6.557  10.372 -0.6647 -0.0272 -0.2084
10018TIP3    H254250   4.616   6.680  10.283  1.8517 -0.3367 -0.6563
10019TIP3   OH254251   4.215   0.183  11.401  0.2121 -0.4382 -0.3101
10019TIP3    H154252   4.233   0.275  11.384  1.5317 -0.9740 -2.2931
10019TIP3    H254253   4.120   0.177  11.405  0.1053  0.9933 -0.1721
10020TIP3   OH254254   2.112   4.912  10.509  0.2035  0.3511 -0.1627
10020TIP3    H154255   2.161   4.943  10.433  0.5368  0.9731  0.3025
10020TIP3    H254256   2.084   4.992  10.554 -0.5289 -0.0016  0.0340
10021TIP3   OH254257   4.768   5.468  10.931  0.0839 -0.0063 -0.8436
10021TIP3    H154258   4.842   5.487  10.988 -0.0219  0.4772 -0.8623
10021TIP3    H254259   4.691   5.476  10.988  0.0045  0.0894 -0.9642
10022TIP3   OH254260   1.744   1.338  11.077  0.2078 -0.2534  0.2192
10022TIP3    H154261   1.741   1.349  11.172  1.2964  2.4815  0.0289
10022TIP3    H254262   1.668   1.387  11.044  0.1126 -0.7710 -0.3501
10023TIP3   OH254263   0.656   6.979  12.025 -0.3374  0.5528  0.2839
10023TIP3    H154264   0.591   6.909  12.028  0.9760 -0.7110 -0.0310
10023TIP3    H254265   0.733   6.944  12.069  0.6699  1.4326 -0.7034
10024TIP3   OH254266   7.534   4.722  10.294  0.4173 -0.4917  0.4649
10024TIP3    H154267   7.624   4.754  10.295  0.3382 -0.2485  0.1495
10024TIP3    H254268   7.543   4.628  10.281  0.6140 -0.3674 -0.3893
10025TIP3   OH254269   1.784   2.138  10.873  0.5810 -0.1603  0.0465
10025TIP3    H154270   1.767   2.072  10.941  2.0667 -1.4384 -0.7477
10025TIP3    H254271   1.765   2.222  10.915 -0.2698 -1.0234  1.4544
10026TIP3   OH254272   0.641   7.397  10.812 -0.2840  0.1070 -0.3254
10026TIP3    H154273   0.686   7.319  10.842 -1.1994  0.4607  2.2382
10026TIP3    H254274   0.710   7.460  10.794  0.3863 -0.6940 -0.5957
10027TIP3   OH254275   2.450   6.867   9.860  0.2990 -0.6307  0.1667
10027TIP3    H154276   2.439   6.872   9.955  0.4995  0.1085  0.1588
10027TIP3    H254277   2.362   6.878   9.824  0.4834  1.3568  0.2135
10028TIP3   OH254278   0.118   7.565  11.395  0.3332 -0.5261 -0.2119
10028TIP3    H154279   0.096   7.635  11.333  0.4756 -0.4780 -0.2081
10028TIP3    H254280   0.192   7.520  11.355  0.3880 -0.5311 -0.1034
10029TIP3   OH254281   5.818   2.839  10.271  0.5716 -0.5664 -0.5231
10029TIP3    H154282   5.725   2.853  10.290 -0.0106 -0.5327 -3.0178
10029TIP3    H254283   5.864   2.902  10.327 -1.1004  1.3110 -1.1299
10030TIP3   OH254284   4.412   2.406  10.676 -0.2439 -0.4039  0.3255
10030TIP3    H154285   4.442   2.436  10.591 -0.5249 -0.2083  0.2953
10030TIP3    H254286   4.323   2.439  10.684 -0.4082 -0.8670  0.4700
10031TIP3   OH254287   3.097   4.230  10.739  0.4155  0.4475  0.2260
10031TIP3    H154288   3.150   4.306  10.715  0.3456  0.1368 -1.0173
10031TIP3    H254289   3.007   4.263  10.744  0.0396  0.1010 -2.5057
10032TIP3   OH254290   1.938   3.764  11.437 -0.5702 -0.2210  0.3880
10032TIP3    H154291   1.913   3.696  11.375 -0.6933 -0.0008  0.1906
10032TIP3    H254292   1.856   3.813  11.452 -0.5573 -0.3170  0.7766
10033TIP3   OH254293   2.779   0.252  11.122 -0.1593 -0.8961  0.1139
10033TIP3    H154294   2.859   0.205  11.102  0.7932  0.7524 -0.1456
10033TIP3    H254295   2.796   0.296  11.205 -1.4673 -1.9267  0.9724
10034TIP3   OH254296   4.861   7.533  10.899 -0.1602  0.3324 -0.4961
10034TIP3    H154297   4.776   7.520  10.858  0.2235 -0.1913 -1.1557
10034TIP3    H254298   4.869   7.628  10.911 -1.1030  0.3425  0.1856
10035TIP3   OH254299   4.290   5.972  11.652  0.3759 -0.2722  0.0922
10035TIP3    H154300   4.276   5.924  11.734 -0.7582  0.5177  0.3818
10035TIP3    H254301   4.327   6.056  11.680  1.6056 -0.6331 -0.3583
10036TIP3   OH254302   5.338   5.071  11.164  0.5059 -0.3631  0.4045
10036TIP3    H154303   5.375   5.064  11.252 -0.4220  0.7099  0.8973
10036TIP3    H254304   5.398   5.130  11.118  0.1760  0.2984  0.7976
10037TIP3   OH254305   2.872   2.893  11.762 -0.3318  0.4649  0.0291
10037TIP3    H154306   2.781   2.918  11.743 -0.6834 -0.2578  0.7092
10037TIP3    H254307   2.905   2.961  11.819 -0.2663  1.0120 -0.6467
10038TIP3   OH254308   6.136   4.761  12.291  0.5025  0.0273 -0.0935
10038TIP3    H154309   6.221   4.754  12.248  0.1399 -1.0448 -0.6625
10038TIP3    H254310   6.088   4.682  12.264  0.2230 -0.6461  2.1746
10039TIP3   OH254311   5.569   2.057  11.084  0.3503  0.5399 -0.2220
10039TIP3    H154312   5.553   2.150  11.100 -0.6792  0.2636  0.4198
10039TIP3    H254313   5.647   2.056  11.028  0.0433  1.8080 -0.7166
10040TIP3   OH254314   4.883   7.245  11.690  0.0214 -0.3844 -0.4802
10040TIP3    H154315   4.900   7.156  11.660 -0.0162 -0.6618  0.3028
10040TIP3    H254316   4.965   7.272  11.732 -0.0320 -0.1278 -0.5414
10041TIP3   OH254317   5.349   4.275  11.804 -0.6972  0.2594 -0.0586
10041TIP3    H154318   5.330   4.182  11.789 -1.3077 -0.1343  2.5677
10041TIP3    H254319   5.433   4.289  11.760 -0.0328 -1.8655  0.3791
10042TIP3   OH254320   6.539   5.309  10.234 -0.3415  0.2370  0.1149
10042TIP3    H154321   6.493   5.331  10.315  1.9359  3.6939  0.6708
10042TIP3    H254322   6.541   5.390  10.184  0.9683 -1.0084 -2.0271
10043TIP3   OH254323   1.143   5.061  11.980  0.1047  0.5872 -0.2350
10043TIP3    H154324   1.176   5.026  11.897  1.4939 -3.0690  1.6480
10043TIP3    H254325   1.047   5.054  11.972  0.2336 -0.2753 -1.3419
10044TIP3   OH254326   5.717   1.413  10.317 -0.2824 -0.1301 -0.0661
10044TIP3    H154327   5.771   1.440  10.391  1.1366 -1.4602 -0.5620
10044TIP3    H254328   5.741   1.322  10.301 -3.0135 -0.9448 -0.0608
10045TIP3   OH254329   4.785   3.492  10.907  0.8678 -0.2162 -0.5591
10045TIP3    H154330   4.805   3.402  10.936  1.5873 -0.2368 -1.1023
10045TIP3    H254331   4.860   3.543  10.937  0.2660  0.2946  0.1154
10046TIP3   OH254332   1.572   4.040  11.208 -0.0529  0.0645 -0.3781
10046TIP3    H154333   1.492   4.091  11.213  0.7039  1.2410  3.7248
10046TIP3    H254334   1.623   4.081  11.138 -1.9895  0.8318 -1.4146
10047TIP3   OH254335   4.530   3.824  10.098 -0.6331 -0.3608  0.0432
10047TIP3    H154336   4.453   3.770  10.117 -1.0792 -0.6056 -2.1649
10047TIP3    H254337   4.503   3.913  10.116 -1.6393 -0.3957 -1.1808
10048TIP3   OH254338   0.838   6.524  12.064 -0.1192 -0.2521  0.1957
10048TIP3    H154339   0.771   6.487  12.007 -0.9821 -1.3982  1.8820
10048TIP3    H254340   0.828   6.619  12.055  0.0024 -0.3895 -1.7770
10049TIP3   OH254341   3.288   0.369  10.597 -0.3598 -0.1742  0.4878
10049TIP3    H154342   3.198   0.387  10.569 -0.2614 -0.2378  0.1238
10049TIP3    H254343   3.286   0.277  10.623 -0.2381 -0.3808 -0.2013
10050TIP3   OH254344   2.838   4.322  10.802  0.0029  0.7518  0.0911
10050TIP3    H154345   2.756   4.332  10.850  0.2932  2.1025  0.3596
10050TIP3    H254346   2.818   4.353  10.713 -0.3940 -1.2402 -0.5687
10051TIP3   OH254347   7.533   0.695  10.275 -0.5398  0.0031 -0.4560
10051TIP3    H154348   7.563   0.779  10.307 -2.5225  1.1954 -1.5460
10051TIP3    H254349   7.460   0.716  10.217 -0.2448 -2.3729 -1.8140
10052TIP3   OH254350   4.055   0.789   9.890 -0.0240 -0.9906 -0.0230
10052TIP3    H154351   4.113   0.862   9.870  0.9899 -1.5836  0.6620
10052TIP3    H254352   4.036   0.798   9.984 -3.4819  0.8843 -0.7558
10053TIP3   OH254353   2.784   4.577  10.042  0.1430  0.9932  0.0235
10053TIP3    H154354   2.706   4.525  10.024  0.6131  1.0380 -2.5143
10053TIP3    H254355   2.842   4.519  10.091 -0.7137  0.3127  0.2419
10054TIP3   OH254356   5.086   4.013  12.161 -0.2229  0.2771  0.3142
10054TIP3    H154357   5.080   4.081  12.228 -3.8940  1.2093 -0.7475
10054TIP3    H254358   5.127   4.056  12.086  0.1165  0.4432  0.5916
10055TIP3   OH254359   4.563   0.531   9.856 -0.3771  0.0549  0.1434
10055TIP3    H154360   4.635   0.568   9.805 -1.3752 -0.6966 -1.9228
10055TIP3    H254361   4.504   0.605   9.873  0.2471  0.4221  0.7359
10056TIP3   OH254362   4.058   3.799  10.239  0.1032 -0.6024 -0.4051
10056TIP3    H154363   4.071   3.873  10.298 -1.5268 -0.2186 -0.4751
10056TIP3    H254364   4.111   3.820  10.162  2.7449 -1.3971  1.0684
10057TIP3   OH254365   4.914   5.332  12.456 -0.4712  0.2948 -0.3891
10057TIP3    H154366   4.835   5.279  12.465 -0.5269  0.4919  0.3149
10057TIP3    H254367   4.985   5.268  12.447 -0.2594 -0.0066  2.5179
10058TIP3   OH254368   2.063   6.055  10.992 -0.1338 -0.0532  0.4016
10058TIP3    H154369   2.065   5.962  11.016  0.7400  0.0684  0.8096
10058TIP3    H254370   2.155   6.080  10.981 -0.2349  1.1459  1.8187
10059TIP3   OH254371   6.640   6.002  11.731  0.1806  0.1194  0.5390
10059TIP3    H154372   6.578   5.998  11.804  1.3059 -1.1007  1.4757
10059TIP3    H254373   6.725   5.983  11.771  0.6347 -2.2173 -1.3159
10060TIP3   OH254374   1.321   5.673  10.753  0.1917 -0.2282 -0.1172
10060TIP3    H154375   1.410   5.638  10.747 -0.4472 -2.0305  0.2417
10060TIP3    H254376   1.317   5.741  10.686  1.5935 -0.6641 -0.6761
10061TIP3   OH254377   1.837   4.611  11.217  0.7414 -0.1725 -0.0989
10061TIP3    H154378   1.772   4.645  11.155 -0.1278 -0.6969  0.5162
10061TIP3    H254379   1.886   4.547  11.166 -0.9409 -1.7102  0.1297
10062TIP3   OH254380   3.139   2.816  11.713 -0.4934 -0.5035  0.5937
10062TIP3    H154381   3.049   2.818  11.746 -0.9763 -0.6966 -0.6361
10062TIP3    H254382   3.143   2.888  11.651 -0.6999 -2.1619 -1.4742
10063TIP3   OH254383   5.098   5.578  10.200  0.1586  0.3229  0.2005
10063TIP3    H154384   5.138   5.663  10.221  0.8982 -0.0555  0.3599
10063TIP3    H254385   5.118   5.564  10.108  1.7995 -0.5961  0.6715
10064TIP3   OH254386   3.585   3.478  10.799  0.0911  0.1065 -0.7146
10064TIP3    H154387   3.605   3.554  10.744 -0.3285  0.4441 -0.4015
10064TIP3    H254388   3.625   3.498  10.883 -2.4158  1.2985  0.2853
10065TIP3   OH254389   3.469   3.880  11.736  0.1915  0.2474 -0.2262
10065TIP3    H154390   3.470   3.804  11.794 -1.2420  0.0453 -0.4281
10065TIP3    H254391   3.421   3.947  11.785  0.6917  0.7519 -0.4031
10066TIP3   OH254392   7.511   3.812  11.003 -0.5478 -0.5902  0.5691
10066TIP3    H154393   7.450   3.882  11.028 -1.1179 -0.8625 -0.0434
10066TIP3    H254394   7.592   3.834  11.049 -0.6059  0.6770  0.1195
10067TIP3   OH254395   1.126   7.475   9.966  0.1118 -0.1677 -0.5348
10067TIP3    H154396   1.031   7.477   9.969  0.0079 -2.8713  1.7326
10067TIP3    H254397   1.147   7.478   9.873 -2.0084  2.3521 -1.0559
10068TIP3   OH254398   3.272   6.283   9.843  0.4886  0.4497  0.0050
10068TIP3    H154399   3.252   6.217   9.910  0.0092  1.5473  0.9869
10068TIP3    H254400   3.215   6.262   9.770 -1.8065  1.4194  1.4110
10069TIP3   OH254401   4.468   6.194  12.426 -0.4221 -0.4070 -0.5156
10069TIP3    H154402   4.383   6.207  12.468  0.1063 -0.7292  0.6937
10069TIP3    H254403   4.529   6.248  12.477  0.1736 -0.4732 -1.1372
10070TIP3   OH254404   3.403   4.023  11.497  0.0727  0.4024  0.3432
10070TIP3    H154405   3.442   4.111  11.495 -1.5050  1.2317  2.2071
10070TIP3    H254406   3.434   3.986  11.580  3.0206 -2.0527 -1.6175
10071TIP3   OH254407   0.835   0.989  11.598  0.0265  0.4948  0.5927
10071TIP3    H154408   0.850   0.964  11.689  0.3863 -0.6104  0.2482
10071TIP3    H254409   0.773   0.924  11.565 -2.4104  2.5633  0.8184
10072TIP3   OH254410   2.974   2.402  10.045 -0.3175 -0.3538 -0.0187
10072TIP3    H154411   2.980   2.435   9.955 -2.2501  2.2117  0.6604
10072TIP3    H254412   2.885   2.426  10.073  0.4755 -0.4202  2.8135
10073TIP3   OH254413   2.493   6.557  10.760 -0.4292 -0.0512  0.1009
10073TIP3    H154414   2.565   6.539  10.699  0.1024 -0.1047  0.7420
10073TIP3    H254415   2.472   6.472  10.798  1.8224  0.4491  2.8372
10074TIP3   OH254416   0.059   4.712  11.624  0.4341 -0.0791 -0.2948
10074TIP3    H154417   0.072   4.617  11.633 -0.8713 -0.4100 -1.5659
10074TIP3    H254418  -0.030   4.727  11.656  0.3845  0.6125 -0.7343
10075TIP3   OH254419   3.413   1.596  10.911 -0.1878 -0.1605  0.5768
10075TIP3    H154420   3.413   1.690  10.894 -0.5633 -0.4151 -0.9601
10075TIP3    H254421   3.323   1.568  10.893 -0.4467 -0.6095  2.3677
10076TIP3   OH254422   3.954   4.663  10.255  0.2175 -0.0627  0.0770
10076TIP3    H154423   3.884   4.682  10.192 -0.2526 -0.9341  0.3103
10076TIP3    H254424   3.981   4.574  10.234  0.3401 -0.2118  0.8358
10077TIP3   OH254425   1.287   4.191  12.416  0.0609 -0.1473 -0.0210
10077TIP3    H154426   1.261   4.281  12.435  1.0008 -0.1424  1.4363
10077TIP3    H254427   1.211   4.152  12.374 -0.8489  0.9434  0.5562
10078TIP3   OH254428   7.188   1.795  10.936 -0.1833 -0.7683  0.2373
10078TIP3    H154429   7.101   1.786  10.976 -0.0491  1.5468  1.1699
10078TIP3    H254430   7.249   1.773  11.006  0.0088 -0.6442  0.1072
10079TIP3   OH254431   4.275   6.674  10.322 -0.1465  0.7108  0.3653
10079TIP3    H154432   4.369   6.687  10.334 -0.1968 -0.0765  1.7868
10079TIP3    H254433   4.258   6.702  10.231  1.3445  1.3836  0.2701
10080TIP3   OH254434   7.072   3.539  10.949 -0.0475 -0.7156 -0.7365
10080TIP3    H154435   7.044   3.607  11.010  0.0692  1.6205 -3.1214
10080TIP3    H254436   7.161   3.565  10.923 -0.2451 -1.3968 -2.1856
10081TIP3   OH254437   1.944   5.109  10.645 -0.0183  0.4100 -0.2872
10081TIP3    H154438   1.929   5.034  10.704  0.0231  1.5284  1.1951
10081TIP3    H254439   1.986   5.175  10.700  0.2047  1.4392 -1.6399
10082TIP3   OH254440   1.816   7.157   9.932 -0.3019 -0.1904  0.5313
10082TIP3    H154441   1.779   7.236   9.893 -0.3774 -0.7622 -0.5829
10082TIP3    H254442   1.896   7.187   9.976 -1.2590  0.7938  1.6875
10083TIP3   OH254443   7.038   2.126   9.917 -0.2016 -0.0428 -0.3587
10083TIP3    H154444   6.944   2.135   9.902 -0.3171  0.3590  0.5250
10083TIP3    H254445   7.074   2.212   9.894 -0.4928  0.8721  2.2943
10084TIP3   OH254446   5.995   7.284  12.472  0.6629 -0.6687  0.0456
10084TIP3    H154447   5.914   7.323  12.439  1.3749  0.1882 -0.7611
10084TIP3    H254448   6.017   7.336  12.550  0.3030 -1.0749  0.4224
10085TIP3   OH254449   3.631   4.389  10.672 -0.0044  0.4418 -0.5105
10085TIP3    H154450   3.592   4.473  10.649 -1.0690 -0.5718 -2.7523
10085TIP3    H254451   3.559   4.340  10.713  0.0007 -0.0561 -1.0694
10086TIP3   OH254452   7.047   0.218  11.261 -0.0816  0.3294 -0.2174
10086TIP3    H154453   7.066   0.152  11.195  0.3676  0.7412 -0.5027
10086TIP3    H254454   7.118   0.209  11.325 -0.4351  0.0290  0.1342
10087TIP3   OH254455   0.516   4.558  12.402  0.4404  0.0289 -0.0775
10087TIP3    H154456   0.426   4.568  12.435  1.1302  0.0883  1.9063
10087TIP3    H254457   0.551   4.647  12.401  0.1380  0.1657 -1.9985
10088TIP3   OH254458   3.777   1.893  11.214  0.4010  0.4579 -0.3167
10088TIP3    H154459   3.722   1.824  11.179 -1.4035  1.3074  0.7070
10088TIP3    H254460   3.724   1.973  11.206  1.4556  1.3146  0.7255
10089TIP3   OH254461   5.759   2.711  10.760  0.1420 -0.0526 -0.3915
10089TIP3    H154462   5.789   2.675  10.676  1.0066  1.6422 -0.8584
10089TIP3    H254463   5.838   2.748  10.800 -0.3606 -0.3540  0.9431
10090TIP3   OH254464   3.907   5.230  10.085  0.0066  0.0090 -0.3378
10090TIP3    H154465   3.880   5.149  10.041 -0.9314  1.3645 -2.3671
10090TIP3    H254466   3.971   5.269  10.027  0.3533  0.8190  0.5610
10091TIP3   OH254467   2.170   0.744   9.899 -0.1115  0.2864  0.0978
10091TIP3    H154468   2.141   0.701   9.980  1.0985 -0.6139  0.0777
10091TIP3    H254469   2.120   0.826   9.896 -2.0828 -0.8583  0.4147
10092TIP3   OH254470   5.552   6.760  11.637 -0.0736  0.3351 -0.2703
10092TIP3    H154471   5.592   6.837  11.595  1.4356 -1.4243 -2.3019
10092TIP3    H254472   5.622   6.723  11.691 -0.5335 -0.0323  0.0848
10093TIP3   OH254473   3.129   1.775  10.956  0.3362 -0.1243  0.2557
10093TIP3    H154474   3.054   1.813  10.910  1.1993  0.7974 -0.4523
10093TIP3    H254475   3.204   1.797  10.901  1.1638 -0.7950  1.0809
10094TIP3   OH254476   6.629   7.109  10.452  0.2557 -0.6770  0.1028
10094TIP3    H154477   6.716   7.147  10.446  0.2920 -0.8321 -0.3613
10094TIP3    H254478   6.620   7.085  10.545  0.9314 -1.1992  0.0429
10095TIP3   OH254479   3.711   5.575  11.194 -0.0669 -0.1892  0.0825
10095TIP3    H154480   3.658   5.653  11.210  1.1886  0.4537  1.3364
10095TIP3    H254481   3.757   5.594  11.112 -0.9141 -0.2928 -0.4323
10096TIP3   OH254482   4.728   0.879  10.544  0.1343 -0.5624 -0.1918
10096TIP3    H154483   4.792   0.920  10.485  0.5983 -0.4755  0.3637
10096TIP3    H254484   4.779   0.853  10.620 -0.1404 -2.1881 -0.5269
10097TIP3   OH254485   5.309   4.972  11.825 -0.1460  0.3247 -0.3531
10097TIP3    H154486   5.304   5.058  11.783  1.0828  0.5554 -0.0669
10097TIP3    H254487   5.361   4.919  11.765  0.8340  0.3917  0.4095
10098TIP3   OH254488   3.569   3.343  11.141  0.1570  0.5476  0.2185
10098TIP3    H154489   3.486   3.309  11.106  0.8294  1.2785 -2.2717
10098TIP3    H254490   3.636   3.287  11.104  0.9291  1.3648  0.3354
10099TIP3   OH254491   7.660   1.846   9.949  0.1596  0.3081  0.1426
10099TIP3    H154492   7.670   1.765   9.998 -0.0882  0.1053 -0.1380
10099TIP3    H254493   7.631   1.910  10.014  2.3758  0.7233  0.8292
10100TIP3   OH254494   3.890   0.619   9.745 -0.6536  0.7167  0.1844
10100TIP3    H154495   3.931   0.632   9.659 -0.0819  1.8481  0.6065
10100TIP3    H254496   3.922   0.693   9.798 -2.0796  0.7983  0.9638
10101TIP3   OH254497   1.962   2.531  12.413 -0.2012 -0.4992 -0.7200
10101TIP3    H154498   2.010   2.585  12.476 -2.0204  0.6015 -0.1954
10101TIP3    H254499   1.958   2.585  12.334 -1.5209 -0.0507 -0.3819
10102TIP3   OH254500   7.104   3.383  11.713  0.0013 -0.3159  0.0482
10102TIP3    H154501   7.080   3.315  11.775 -0.2093 -2.4885 -2.2776
10102TIP3    H254502   7.194   3.362  11.688 -0.4407 -0.4640 -1.5221
10103TIP3   OH254503   0.135   0.481  11.790 -0.3585  0.1133 -0.6401
10103TIP3    H154504   0.063   0.529  11.749  0.0546  2.4301  1.1420
10103TIP3    H254505   0.214   0.515  11.749 -0.0939  0.4344  0.1125
10104TIP3   OH254506   0.502   7.555  10.133 -0.4729  0.2289  0.1209
10104TIP3    H154507   0.524   7.467  10.162 -1.7281 -0.0281  0.3357
10104TIP3    H254508   0.416   7.546  10.092 -0.7517  1.3997  0.4168
10105TIP3   OH254509   6.382   6.355  11.674  0.1143 -0.2039 -0.4148
10105TIP3    H154510   6.343   6.267  11.683  0.0247 -0.4388 -2.7242
10105TIP3    H254511   6.383   6.372  11.580 -0.8465  2.7325  0.0006
10106TIP3   OH254512   1.086   5.942  10.782  0.4556  0.2767 -0.1953
10106TIP3    H154513   1.101   6.023  10.830 -0.0582  0.8278 -0.9315
10106TIP3    H254514   0.994   5.946  10.757  0.3993 -0.5866 -0.1572
10107TIP3   OH254515   0.487   1.331  11.382  0.1708 -0.2376 -0.6273
10107TIP3    H154516   0.557   1.270  11.405  1.7996  0.5565 -3.1474
10107TIP3    H254517   0.448   1.295  11.303 -1.1024  0.2921 -0.2774
10108TIP3   OH254518   5.731   2.901  11.602  0.2697 -0.2623  0.4238
10108TIP3    H154519   5.704   2.910  11.510 -0.2538 -0.9187  0.5076
10108TIP3    H254520   5.656   2.930  11.653 -0.0505 -1.4415  0.6530
10109TIP3   OH254521   7.209   3.413  10.274 -0.6092  0.2406 -0.0486
10109TIP3    H154522   7.269   3.400  10.348 -1.8804  0.9556  1.1557
10109TIP3    H254523   7.162   3.330  10.267 -0.5085  0.1824 -0.0445
10110TIP3   OH254524   0.635   5.271  11.436 -0.0888  0.2301 -0.4928
10110TIP3    H154525   0.629   5.208  11.364 -1.3718 -0.7214  0.3949
10110TIP3    H254526   0.691   5.341  11.403 -0.6667 -0.1740 -2.4034
10111TIP3   OH254527   4.148   7.286  10.280 -0.0471 -0.7939 -0.3237
10111TIP3    H154528   4.137   7.205  10.330  0.1334  0.2324  1.4641
10111TIP3    H254529   4.094   7.350  10.326 -0.5603  0.0283 -1.9765
10112TIP3   OH254530   6.276   6.249  11.102  0.3778 -0.3680 -0.1179
10112TIP3    H154531   6.203   6.246  11.041  0.3189  1.3267 -0.1609
10112TIP3    H254532   6.307   6.340  11.100  0.6690 -0.3604  2.0101
10113TIP3   OH254533   2.535   0.874  11.771 -0.5366 -0.2569  0.3151
10113TIP3    H154534   2.606   0.850  11.711  1.4405  0.0126  2.4023
10113TIP3    H254535   2.473   0.922  11.716  0.1619 -1.7199 -1.8910
10114TIP3   OH254536   4.858   3.446  11.341  0.1862 -0.6407  0.2170
10114TIP3    H154537   4.857   3.421  11.433 -0.8019  0.4049  0.5020
10114TIP3    H254538   4.790   3.391  11.301  2.5759 -3.3025 -0.5535
10115TIP3   OH254539   3.858   1.960  10.825  0.1082  0.1969  0.6146
10115TIP3    H154540   3.850   1.921  10.738 -0.1881 -0.2137  0.8246
10115TIP3    H254541   3.878   1.886  10.883 -3.3331 -0.1993  1.5254
10116TIP3   OH254542   2.380   3.986  11.528 -0.2260 -0.0941 -0.6471
10116TIP3    H154543   2.319   3.974  11.456 -1.1909  1.1900 -0.0803
10116TIP3    H254544   2.359   3.917  11.591  0.6993 -1.2929 -1.6081
10117TIP3   OH254545   5.689   2.041  10.352 -0.2441 -0.1610  0.6651
10117TIP3    H154546   5.669   2.118  10.406 -0.0099  0.6614 -0.3856
10117TIP3    H254547   5.612   2.031  10.295 -0.4388 -0.9465  1.0551
10118TIP3   OH254548   5.346   3.499  10.158  0.3334 -0.3176  0.3158
10118TIP3    H154549   5.283   3.472  10.091 -0.7750  0.5336  0.9943
10118TIP3    H254550   5.296   3.553  10.218  2.1024  1.9345 -0.0985
10119TIP3   OH254551   6.368   6.410  11.956  0.5706 -0.4200  0.6325
10119TIP3    H154552   6.400   6.369  11.875  1.6879  1.5983 -0.0247
10119TIP3    H254553   6.273   6.408  11.948  0.6458  1.0591 -1.5009
10120TIP3   OH254554   3.917   5.464  10.373 -0.0343 -0.1515 -0.3415
10120TIP3    H154555   3.911   5.374  10.341 -0.3918  0.2219 -1.3469
10120TIP3    H254556   3.973   5.509  10.311 -0.2567  0.4433 -0.1264
10121TIP3   OH254557   6.852   7.608  10.568 -0.0242  0.1256 -0.4038
10121TIP3    H154558   6.913   7.562  10.510  0.4897 -0.3212  0.4663
10121TIP3    H254559   6.874   7.576  10.655 -0.1379  1.5079  0.1504
10122TIP3   OH254560   4.233   5.299   9.767 -0.6163 -0.3374 -0.3217
10122TIP3    H154561   4.212   5.281   9.859 -1.2707  0.4584 -0.3088
10122TIP3    H254562   4.283   5.381   9.770  1.6946 -1.6387 -0.4476
10123TIP3   OH254563   4.344   0.100   9.947  0.6188 -0.8151  0.7925
10123TIP3    H154564   4.402   0.110   9.871  0.6275  0.9674  0.9869
10123TIP3    H254565   4.361   0.178  10.001 -0.7311 -1.1100  1.7094
10124TIP3   OH254566   2.346   7.533  11.174  0.0378 -0.1550 -0.6559
10124TIP3    H154567   2.284   7.599  11.142 -0.3820 -1.1782 -2.0904
10124TIP3    H254568   2.429   7.556  11.133 -0.2309 -0.7807 -1.6018
10125TIP3   OH254569   1.441   7.026  11.948  0.4486  0.3810  0.3188
10125TIP3    H154570   1.515   6.983  11.906  1.1514 -0.1118  2.0165
10125TIP3    H254571   1.398   7.074  11.876  1.8223 -0.0952 -0.8708
10126TIP3   OH254572   3.814   1.989   9.844  0.6898  0.2421  0.1345
10126TIP3    H154573   3.899   2.031   9.857  0.2276  1.4810 -0.6681
10126TIP3    H254574   3.755   2.034   9.905  0.1478  0.9374 -0.8641
10127TIP3   OH254575   6.391   0.019  10.320 -0.0340  0.2819  0.2084
10127TIP3    H154576   6.406  -0.060  10.372  3.5334  1.0064  0.5170
10127TIP3    H254577   6.299   0.014  10.295 -0.5798 -2.6798  2.2923
10128TIP3   OH254578   4.818   3.136  12.138 -0.0674  0.5280 -0.1562
10128TIP3    H154579   4.767   3.074  12.085 -0.7447  0.1207  0.9521
10128TIP3    H254580   4.865   3.189  12.073 -0.2773 -0.4604 -1.1446
10129TIP3   OH254581   1.773   0.196  10.222 -0.0700  0.0032  0.2913
10129TIP3    H154582   1.867   0.180  10.217 -0.5116 -3.0626 -0.0271
10129TIP3    H254583   1.752   0.240  10.140  0.5283 -3.2670 -1.8017
10130TIP3   OH254584   3.115   3.949  11.886 -0.1995 -0.2178  0.5116
10130TIP3    H154585   3.199   3.994  11.892 -0.0703 -0.5609  1.3354
10130TIP3    H254586   3.058   4.010  11.840  0.0678  0.6536  1.3226
10131TIP3   OH254587   4.083   2.922  11.086 -0.6584  0.2084 -0.3897
10131TIP3    H154588   4.119   3.004  11.051 -0.6161  0.4236  0.1456
10131TIP3    H254589   3.992   2.922  11.058 -0.8099  0.7171  0.0914
10132TIP3   OH254590   1.789   6.967  13.046  0.0114 -0.3569 -0.1876
10132TIP3    H154591   1.880   6.991  13.030  0.0493 -0.2870  0.1276
10132TIP3    H254592   1.791   6.871  13.057  0.1581 -0.2729  0.5525
10133TIP3   OH254593   3.273   2.370   9.899  0.5125  0.3139  0.3735
10133TIP3    H154594   3.341   2.437   9.906  0.3916  0.4111  0.6288
10133TIP3    H254595   3.292   2.310   9.971  0.1035  0.5460  0.6793
10134TIP3   OH254596   5.162   3.402   9.965 -0.4191  0.3595  0.0307
10134TIP3    H154597   5.194   3.385   9.877 -0.1322 -2.1869  0.5450
10134TIP3    H254598   5.148   3.315  10.003  0.0188  1.3460  2.6899
10135TIP3   OH254599   3.358   2.276  10.988  0.3826 -0.2756 -0.0291
10135TIP3    H154600   3.285   2.312  11.037  0.1433  0.3783 -0.8465
10135TIP3    H254601   3.431   2.277  11.049  0.6133  2.3822 -0.2354
10136TIP3   OH254602   4.912   0.072  10.654  0.1228 -0.0489  0.3565
10136TIP3    H154603   4.924   0.154  10.701  0.0512  0.1885 -0.0444
10136TIP3    H254604   5.000   0.033  10.652  0.7185  1.2961 -1.8315
10137TIP3   OH254605   1.752   6.379  10.604  0.0398  0.3801  0.4758
10137TIP3    H154606   1.726   6.439  10.673  2.2638  2.2045 -0.1503
10137TIP3    H254607   1.752   6.292  10.645  0.4094  1.2910  2.4798
10138TIP3   OH254608   0.319   4.634  10.981 -0.4326 -0.1623  0.1513
10138TIP3    H154609   0.238   4.681  10.999 -0.7253 -0.3411 -0.6670
10138TIP3    H254610   0.321   4.624  10.886  0.0382 -1.0760  0.2441
10139TIP3   OH254611   3.727   6.794  12.257 -0.1245  0.4880  0.3111
10139TIP3    H154612   3.786   6.780  12.183 -0.2862  0.2890  0.2183
10139TIP3    H254613   3.713   6.889  12.259  2.6070  0.9757  2.1888
10140TIP3   OH254614   3.721   3.994  12.140 -0.3071 -0.2185 -0.4663
10140TIP3    H154615   3.688   3.994  12.230 -1.4384 -0.0232 -0.8632
10140TIP3    H254616   3.739   3.902  12.122  0.3887 -0.2030  0.1179
10141TIP3   OH254617   7.527   3.900  11.410  0.0247  0.0195  0.6779
10141TIP3    H154618   7.607   3.896  11.462  1.0059 -1.8245 -0.8667
10141TIP3    H254619   7.482   3.817  11.430  0.0285 -0.3445 -0.7595
10142TIP3   OH254620   2.444   1.856  10.344 -0.6068 -0.4236  0.4240
10142TIP3    H154621   2.495   1.905  10.280 -0.3071  0.6640  1.4595
10142TIP3    H254622   2.483   1.768  10.345 -1.0019 -0.6508 -1.2829
10143TIP3   OH254623   4.370   6.939  11.082 -0.1476  0.0729 -0.5925
10143TIP3    H154624   4.440   6.972  11.026 -0.2066  4.0078  1.2908
10143TIP3    H254625   4.399   6.957  11.172 -2.7423  0.1337  0.3454
10144TIP3   OH254626   0.377   6.196  11.439  0.1260 -0.6052 -0.4871
10144TIP3    H154627   0.397   6.137  11.366 -1.4682 -1.1295 -0.5349
10144TIP3    H254628   0.295   6.238  11.415  0.4275  0.4735  0.2677
10145TIP3   OH254629   2.195   7.156  10.301  0.1532 -0.8445  0.5283
10145TIP3    H154630   2.127   7.156  10.369 -0.0589  1.0893  0.3693
10145TIP3    H254631   2.166   7.091  10.238 -0.9034 -0.9476  1.0913
10146TIP3   OH254632   1.910   6.515   9.977 -0.5339 -0.0128 -0.3736
10146TIP3    H154633   1.968   6.565   9.919  2.0024 -1.4065  0.7851
10146TIP3    H254634   1.875   6.580  10.038  1.0573  0.7032 -0.1786
10147TIP3   OH254635   1.773   3.172  11.953  0.4330  0.2250  0.1894
10147TIP3    H154636   1.866   3.178  11.928  0.2896  2.0515 -0.0239
10147TIP3    H254637   1.769   3.211  12.040 -0.1479  0.2291  0.1643
10148TIP3   OH254638   2.189   4.789  11.106  0.1698  0.6095  0.2968
10148TIP3    H154639   2.211   4.698  11.084  1.8605  1.1040 -0.2493
10148TIP3    H254640   2.112   4.782  11.162 -1.4519 -1.0001 -1.9422
10149TIP3   OH254641   6.760   0.887  10.864  0.4566  0.0579 -0.1761
10149TIP3    H154642   6.783   0.859  10.775  0.3777  1.2574 -0.5904
10149TIP3    H254643   6.838   0.865  10.916  1.5569  1.6620 -1.0594
10150TIP3   OH254644   7.433   0.490  11.141 -0.6690 -0.2937 -0.3031
10150TIP3    H154645   7.443   0.455  11.230  2.9176 -0.3561 -0.5938
10150TIP3    H254646   7.378   0.426  11.097 -2.8330 -0.1009  1.8805
10151TIP3   OH254647   0.338   2.006  12.309  0.4228 -0.7447  0.2405
10151TIP3    H154648   0.275   1.939  12.283  2.2038 -2.1486 -0.7604
10151TIP3    H254649   0.308   2.086  12.265  1.0600 -2.1102 -3.0114
10152TIP3   OH254650   4.603   0.980  12.068 -0.0915  0.1005 -0.3025
10152TIP3    H154651   4.638   1.065  12.095  2.0640 -0.5377 -0.9593
10152TIP3    H254652   4.599   0.929  12.149  0.8345  0.0892 -0.2522
10153TIP3   OH254653   0.491   7.105  11.617 -0.3762 -0.4939 -0.0670
10153TIP3    H154654   0.409   7.154  11.613 -0.2773 -0.3465 -0.4273
10153TIP3    H254655   0.476   7.036  11.680 -0.5560 -0.0554  0.3747
10154TIP3   OH254656   1.193   4.911  10.211 -0.0873 -0.0181 -0.4386
10154TIP3    H154657   1.142   4.840  10.172 -0.5075  0.3520 -0.5670
10154TIP3    H254658   1.137   4.988  10.203 -0.2485  0.0517  1.0209
10155TIP3   OH254659   6.037   3.517  11.752  0.5956  0.0599 -0.4050
10155TIP3    H154660   6.036   3.437  11.699  1.5003 -0.1441 -0.1526
10155TIP3    H254661   5.969   3.572  11.715 -0.8721 -1.3091  0.1628
10156TIP3   OH254662   7.653   5.405  11.641 -0.2458 -0.4568 -0.1158
10156TIP3    H154663   7.637   5.445  11.555  0.5878  1.0370  0.3946
10156TIP3    H254664   7.746   5.419  11.657 -0.7124  0.7886  1.7710
10157TIP3   OH254665   2.019   6.242  10.744 -0.8123 -0.1835 -0.0911
10157TIP3    H154666   2.079   6.286  10.684 -2.1610 -0.2807 -1.5625
10157TIP3    H254667   2.075   6.180  10.791  0.0787 -1.2407 -2.3698
10158TIP3   OH254668   1.760   0.834  10.211 -0.1093 -0.0401 -0.0445
10158TIP3    H154669   1.785   0.753  10.255 -0.0303  0.9036  1.7262
10158TIP3    H254670   1.786   0.903  10.272 -0.1120  1.3332 -1.5417
10159TIP3   OH254671   2.999   0.366  10.582  0.2291 -0.0733 -0.4912
10159TIP3    H154672   2.914   0.331  10.609  0.2964 -0.1655 -0.3972
10159TIP3    H254673   2.981   0.410  10.499  0.2875 -0.9780 -0.9950
10160TIP3   OH254674   5.535   2.593  10.598 -0.1925 -0.3181 -0.3743
10160TIP3    H154675   5.606   2.568  10.658 -0.5958 -0.4234  0.0719
10160TIP3    H254676   5.573   2.583  10.511  0.1662 -0.9212 -0.1606
10161TIP3   OH254677   6.679   5.176  10.908 -0.2316 -0.5069  0.8589
10161TIP3    H154678   6.711   5.207  10.823  2.6656 -0.4836  1.8279
10161TIP3    H254679   6.584   5.177  10.900 -0.1434  1.9735 -1.4995
10162TIP3   OH254680   7.392   2.902   9.797 -0.0491  0.4134  0.2957
10162TIP3    H154681   7.382   2.837   9.866  0.1289  1.3208  1.2063
10162TIP3    H254682   7.304   2.937   9.783 -0.2120 -0.2745 -0.4640
10163TIP3   OH254683   0.500   4.435  12.101  0.2384 -0.3224 -0.3523
10163TIP3    H154684   0.440   4.380  12.152  2.2401 -1.5125  0.8369
10163TIP3    H254685   0.454   4.519  12.094 -1.4281 -1.0740  0.7881
10164TIP3   OH254686   7.111   1.871  11.641 -0.2166 -0.3224 -0.1076
10164TIP3    H154687   7.053   1.933  11.686  0.4404  0.1193  0.1424
10164TIP3    H254688   7.051   1.814  11.592 -0.8955 -0.2964  0.6693
10165TIP3   OH254689   0.103   4.302  12.082 -0.6428  0.0361  0.4674
10165TIP3    H154690   0.060   4.238  12.025 -0.3910 -2.0359  2.4430
10165TIP3    H254691   0.175   4.337  12.028 -0.2589 -1.9976 -0.4493
10166TIP3   OH254692   0.694   2.095  11.032 -0.1178  0.3072  0.1807
10166TIP3    H154693   0.785   2.070  11.050 -0.1851  1.5963  2.7712
10166TIP3    H254694   0.701   2.172  10.976  0.4496  0.8986  1.0390
10167TIP3   OH254695   7.014   1.951  10.601  0.0563 -0.0303  0.0883
10167TIP3    H154696   6.922   1.927  10.597  0.4648 -1.6344 -1.7750
10167TIP3    H254697   7.018   2.025  10.661 -2.5081  0.4561 -0.2348
10168TIP3   OH254698   2.797   4.741   9.813 -0.4847 -0.3378  0.1207
10168TIP3    H154699   2.705   4.755   9.790 -0.8098 -0.8425  1.0701
10168TIP3    H254700   2.794   4.690   9.894  0.6378 -0.0764  0.3400
10169TIP3   OH254701   5.495   3.838  11.428  0.0223  0.4024  0.4163
10169TIP3    H154702   5.534   3.816  11.343 -0.7020  0.3539  0.0917
10169TIP3    H254703   5.458   3.925  11.416  0.4801  0.6691  0.8840
10170TIP3   OH254704   6.390   7.147  10.307 -0.4486  0.6360 -0.6755
10170TIP3    H154705   6.483   7.135  10.328 -0.3359  2.7790  0.3335
10170TIP3    H254706   6.373   7.085  10.236  0.5987 -3.1094  1.9700
10171TIP3   OH254707   5.285   1.714  12.309 -0.5031  0.1267  0.1167
10171TIP3    H154708   5.347   1.689  12.241 -1.8991 -1.4883 -0.6561
10171TIP3    H254709   5.335   1.769  12.369  1.3280 -0.1456 -1.0828
10172TIP3   OH254710   5.962   5.924   9.835  0.5243 -0.2510 -0.1970
10172TIP3    H154711   5.868   5.920   9.852  0.7640  0.8742  1.6324
10172TIP3    H254712   5.996   5.841   9.867  0.1941 -0.5791 -0.6818
10173TIP3   OH254713   5.095   5.287   9.955 -0.6384  0.1788  0.5354
10173TIP3    H154714   5.002   5.305   9.964 -0.4529  0.8316  1.2362
10173TIP3    H254715   5.138   5.366   9.987  0.1516  1.0540 -2.4142
10174TIP3   OH254716   1.742   2.374  10.048 -0.1901  0.0076  0.3117
10174TIP3    H154717   1.757   2.455  10.000 -0.2551 -0.2341 -0.1215
10174TIP3    H254718   1.651   2.380  10.076 -0.3306 -0.1206 -0.1138
10175TIP3   OH254719   7.646   0.926  12.020 -0.3018  0.1710  0.4124
10175TIP3    H154720   7.638   0.998  12.084  0.6044  0.7197 -0.0719
10175TIP3    H254721   7.701   0.862  12.064  0.4137  0.5971  0.1507
10176TIP3   OH254722   2.550   2.896  12.130  0.1886 -0.4342  0.0346
10176TIP3    H154723   2.608   2.835  12.085  0.3681  0.5938 -1.1919
10176TIP3    H254724   2.485   2.921  12.064 -0.4060  0.0199  0.7694
10177TIP3   OH254725   1.570   7.548  11.237 -0.2525  0.1150  0.1538
10177TIP3    H154726   1.533   7.623  11.191  0.3610  0.4844  0.2634
10177TIP3    H254727   1.541   7.559  11.327 -0.4605  0.0200  0.1013
10178TIP3   OH254728   5.989   6.409  10.634 -0.1165 -0.5028  0.6024
10178TIP3    H154729   5.919   6.475  10.635  0.7868  0.4932  0.3990
10178TIP3    H254730   6.070   6.460  10.637  0.6167 -1.6190  0.4935
10179TIP3   OH254731   4.227   6.577   9.615 -0.4617 -0.6780 -0.4222
10179TIP3    H154732   4.233   6.521   9.693 -0.4713 -0.7229 -0.4529
10179TIP3    H254733   4.278   6.530   9.549  3.7152  1.5888  0.8049
10180TIP3   OH254734   3.654   7.239  10.401  0.3167 -0.5688  0.6839
10180TIP3    H154735   3.673   7.145  10.405 -0.8775 -0.8448  0.2928
10180TIP3    H254736   3.626   7.254  10.311  4.2205  0.9703 -0.4677
10181TIP3   OH254737   4.429   6.759  11.392  1.0390 -0.6585 -0.3637
10181TIP3    H154738   4.472   6.724  11.314  0.0991 -2.1039 -0.2724
10181TIP3    H254739   4.421   6.683  11.450  1.1346  0.2585  0.8826
10182TIP3   OH254740   5.183   5.847  10.278  0.7474 -0.0754  0.2337
10182TIP3    H154741   5.211   5.932  10.313 -1.5683  0.6367  0.4965
10182TIP3    H254742   5.098   5.865  10.237  1.4864 -1.7025 -2.2560
10183TIP3   OH254743   2.301   4.577  10.647  0.1352  0.1784  0.5144
10183TIP3    H154744   2.358   4.636  10.696 -0.9338  1.5404  0.1830
10183TIP3    H254745   2.335   4.490  10.665  0.5688  0.7372  2.6217
10184TIP3   OH254746   1.069   3.444  10.829  0.5843 -0.3407 -0.0488
10184TIP3    H154747   1.138   3.394  10.872  1.8363  1.0673 -0.3170
10184TIP3    H254748   0.987   3.409  10.865  1.4725 -1.3720  1.0463
10185TIP3   OH254749   5.256   6.127  10.236  0.1117 -0.2016  0.0346
10185TIP3    H154750   5.339   6.176  10.240  0.8330 -1.3472 -0.3048
10185TIP3    H254751   5.196   6.177  10.290  1.3865  0.0147  1.3158
10186TIP3   OH254752   4.143   4.279   9.795 -0.2661 -0.2693  0.0227
10186TIP3    H154753   4.091   4.356   9.817 -0.6900 -1.5680  4.7257
10186TIP3    H254754   4.234   4.305   9.811 -0.2289 -0.1952 -0.3131
10187TIP3   OH254755   5.820   1.891  11.522 -0.1976 -0.0506 -0.4375
10187TIP3    H154756   5.764   1.926  11.453  0.5816 -0.3795 -1.2422
10187TIP3    H254757   5.780   1.923  11.603 -1.2989  0.0825 -1.0122
10188TIP3   OH254758   4.488   2.217  10.170 -0.2278 -0.2516  0.2019
10188TIP3    H154759   4.544   2.139  10.169 -1.7073 -1.3698  0.2483
10188TIP3    H254760   4.539   2.284  10.125  0.8114 -1.4590 -0.4818
10189TIP3   OH254761   3.619   4.263  10.411  0.1355 -0.1565  0.3314
10189TIP3    H154762   3.689   4.267  10.345  0.0471 -0.3137  0.2270
10189TIP3    H254763   3.651   4.318  10.483 -0.1507  0.7264 -0.2071
10190TIP3   OH254764   2.533   3.527  10.563  0.3120  0.0085  0.3597
10190TIP3    H154765   2.623   3.559  10.559 -0.5824  2.5926 -2.3443
10190TIP3    H254766   2.480   3.605  10.573 -1.7906 -1.0336 -1.7973
10191TIP3   OH254767   2.492   0.790  11.417 -0.2569  0.1096  0.3739
10191TIP3    H154768   2.408   0.813  11.375 -0.6813  0.5166  1.4231
10191TIP3    H254769   2.533   0.874  11.436  0.1421 -0.0833  0.3635
10192TIP3   OH254770   1.050   5.578  10.918  0.2189 -0.1816  0.1098
10192TIP3    H154771   1.041   5.643  10.988  2.5373  1.0975 -0.6808
10192TIP3    H254772   1.032   5.626  10.837 -0.9588 -1.2867 -0.3215
10193TIP3   OH254773   4.409   1.075  10.486  0.0177  0.0767 -0.3700
10193TIP3    H154774   4.458   1.150  10.452  0.6394  0.0754  0.4895
10193TIP3    H254775   4.417   1.082  10.581 -0.7816 -0.5171 -0.2447
10194TIP3   OH254776   2.032   6.347  10.164  0.5611  0.3513 -0.2069
10194TIP3    H154777   2.103   6.305  10.115  0.7067 -0.2945  0.5553
10194TIP3    H254778   1.982   6.393  10.096  2.5483  2.1061 -0.6120
10195TIP3   OH254779   2.118   1.015  10.144  0.4941 -0.9221 -0.7262
10195TIP3    H154780   2.052   0.968  10.094 -0.4272 -1.7997  1.2035
10195TIP3    H254781   2.068   1.080  10.194  1.5583  1.0183 -2.0290
10196TIP3   OH254782   5.709   4.129  11.117  0.4070 -0.5311 -0.3678
10196TIP3    H154783   5.671   4.145  11.031 -2.1721 -0.7307  0.6661
10196TIP3    H254784   5.705   4.214  11.162  1.5927 -0.4618 -0.3603
10197TIP3   OH254785   3.712   6.682  11.786 -0.1592 -0.0050  0.6323
10197TIP3    H154786   3.677   6.756  11.735  1.1386 -0.1954 -0.6181
10197TIP3    H254787   3.775   6.723  11.846 -0.5847  0.0587  1.0403
10198TIP3   OH254788   0.900   2.670  10.297  0.3033 -0.2306  0.1585
10198TIP3    H154789   0.828   2.725  10.328  0.3922 -0.2801  0.4659
10198TIP3    H254790   0.951   2.728  10.241 -0.2363 -0.3329 -0.4442
10199TIP3   OH254791   1.198   4.830  10.477  0.0114 -0.5646 -0.2404
10199TIP3    H154792   1.280   4.783  10.490 -0.2476 -0.5666  1.6137
10199TIP3    H254793   1.210   4.876  10.394  3.1931  2.0282  1.4231
10200TIP3   OH254794   7.466   3.479  11.191  0.3022 -0.1292  0.0266
10200TIP3    H154795   7.415   3.559  11.177 -0.1172 -0.4935 -0.6114
10200TIP3    H254796   7.544   3.508  11.237 -1.1956  0.2130  2.5095
10201TIP3   OH254797   6.186   0.620  10.717  0.4598 -0.3517  0.4835
10201TIP3    H154798   6.113   0.641  10.775  0.7512  0.3459  0.6096
10201TIP3    H254799   6.240   0.559  10.767  0.7257  0.2683  0.9662
10202TIP3   OH254800   7.572   5.288  11.340 -0.1682  0.0671 -0.7857
10202TIP3    H154801   7.627   5.366  11.344  2.4747 -1.4716 -3.4095
10202TIP3    H254802   7.621   5.227  11.285 -2.2933 -3.3437  0.8153
10203TIP3   OH254803   2.973   6.127  10.692 -0.1200  0.5130  0.0422
10203TIP3    H154804   3.051   6.141  10.746 -1.0706 -0.4782  1.7893
10203TIP3    H254805   2.910   6.191  10.724 -0.1492  1.1175 -1.1645
10204TIP3   OH254806   6.518   5.128  10.546 -0.2323 -0.5770 -0.6562
10204TIP3    H154807   6.488   5.144  10.457 -0.4810  1.5238 -0.2562
10204TIP3    H254808   6.440   5.097  10.593 -0.7852  0.8138 -0.6010
10205TIP3   OH254809   1.553   6.236  11.094 -0.1132  0.2284 -0.4947
10205TIP3    H154810   1.647   6.222  11.080 -0.2057 -1.2129  0.1665
10205TIP3    H254811   1.512   6.197  11.016 -0.1457  1.5373 -1.1524
10206TIP3   OH254812   7.341   4.099  11.670  0.3729 -0.0050  0.1326
10206TIP3    H154813   7.324   4.014  11.631  0.9853  0.1338 -0.4520
10206TIP3    H254814   7.293   4.161  11.615 -0.1787  0.0217  0.6335
10207TIP3   OH254815   6.225   0.918  11.077  0.3617  0.2601  0.6066
10207TIP3    H154816   6.279   0.956  11.007 -1.9158  0.1278 -1.3192
10207TIP3    H254817   6.261   0.830  11.089 -0.7290 -0.6997 -2.2915
10208TIP3   OH254818   5.519   6.441  11.514 -0.0744  0.2009 -0.2197
10208TIP3    H154819   5.483   6.499  11.447  0.1792  1.3198  0.5946
10208TIP3    H254820   5.472   6.463  11.594 -1.0190 -1.7502 -0.1737
10209TIP3   OH254821   5.949   2.233  10.693 -0.2694 -0.3010  0.6814
10209TIP3    H154822   5.890   2.167  10.657 -2.7496  2.0267  0.1275
10209TIP3    H254823   6.021   2.238  10.630 -1.2981 -0.7688 -0.5902
10210TIP3   OH254824   2.291   1.379  10.032 -0.1318  0.0592  0.3288
10210TIP3    H154825   2.222   1.444  10.044 -1.1445 -0.7551 -0.8105
10210TIP3    H254826   2.319   1.390   9.941  1.1232  0.2362  0.7154
10211TIP3   OH254827   3.391   3.078  11.481 -0.2005 -0.0080  0.0576
10211TIP3    H154828   3.349   3.127  11.552 -1.5388 -1.7940  0.5730
10211TIP3    H254829   3.448   3.142  11.439 -1.6207  1.9065  0.8686
10212TIP3   OH254830   5.083   6.962  10.626 -0.4863 -0.2167  0.4425
10212TIP3    H154831   5.056   6.877  10.590  1.5916 -1.0077  0.6227
10212TIP3    H254832   5.171   6.976  10.592  0.0502  0.8510  2.1251
10213TIP3   OH254833   3.633   2.833  11.511 -0.4384 -0.3591  0.2899
10213TIP3    H154834   3.561   2.806  11.454 -0.8352  2.2905 -0.5884
10213TIP3    H254835   3.708   2.841  11.453 -0.4586  0.8326  0.4050
10214TIP3   OH254836   1.325   0.643   9.803 -0.4219  0.1179 -0.0453
10214TIP3    H154837   1.239   0.606   9.784 -0.0015 -0.6048 -0.5612
10214TIP3    H254838   1.387   0.579   9.770  0.3242  0.4288  0.7261
10215TIP3   OH254839   3.117   2.434  11.462  0.2529  0.4325 -0.0481
10215TIP3    H154840   3.036   2.397  11.498  0.8156 -1.3021 -0.4373
10215TIP3    H254841   3.090   2.515  11.420 -0.7117  1.7173  2.7709
10216TIP3   OH254842   0.905   7.166  11.477  0.2118  0.1254  0.3287
10216TIP3    H154843   0.919   7.182  11.384  0.8962  0.4015  0.4748
10216TIP3    H254844   0.887   7.253  11.514  1.3563  0.2306  0.6835
10217TIP3   OH254845   4.636   3.097  11.366  0.2882 -0.0864  0.0566
10217TIP3    H154846   4.662   3.026  11.307  1.1934  1.3954 -1.4206
10217TIP3    H254847   4.589   3.053  11.437 -1.0005 -1.9670 -1.8214
10218TIP3   OH254848   0.753   5.404  10.831 -0.4397 -0.3625 -0.1491
10218TIP3    H154849   0.838   5.364  10.812 -0.0916  0.7058 -0.9282
10218TIP3    H254850   0.709   5.409  10.746 -0.7951  0.1661  0.0617
10219TIP3   OH254851   4.831   3.537  10.139  0.5986 -0.0695 -0.1312
10219TIP3    H154852   4.839   3.463  10.200 -0.3469 -1.4800 -1.6130
10219TIP3    H254853   4.750   3.518  10.091 -0.2468  2.5228  0.1420
10220TIP3   OH254854   5.313   0.593  11.899 -0.3218 -0.0767 -0.0134
10220TIP3    H154855   5.362   0.630  11.826  1.9834 -3.0971 -0.1637
10220TIP3    H254856   5.232   0.561  11.861  0.7057 -1.3081 -1.2584
10221TIP3   OH254857   6.831   0.238  12.123  0.1107  0.2072  0.3521
10221TIP3    H154858   6.797   0.157  12.086 -1.2520  1.3276 -0.9464
10221TIP3    H254859   6.806   0.234  12.215  1.7658 -1.6780  0.8082
10222TIP3   OH254860   2.572   1.618  10.319  0.1946 -0.4307  0.2439
10222TIP3    H154861   2.606   1.594  10.233 -0.6407 -1.4484  0.1827
10222TIP3    H254862   2.527   1.540  10.350  0.5569 -0.1181  1.6575
10223TIP3   OH254863   4.215   5.518  11.041  0.4770 -0.3398  0.4277
10223TIP3    H154864   4.160   5.456  11.088  2.4203 -3.0683 -0.6648
10223TIP3    H254865   4.187   5.512  10.950  1.9505 -1.1567 -0.0067
10224TIP3   OH254866   5.388   0.463  10.962 -0.0983  0.3685  0.6901
10224TIP3    H154867   5.482   0.450  10.963  0.2360  2.3167 -0.1253
10224TIP3    H254868   5.356   0.415  11.038  1.3873 -1.2252  0.3678
10225TIP3   OH254869   3.005   4.891  10.535  0.3797  0.1894 -0.1459
10225TIP3    H154870   2.993   4.978  10.573  0.4234  0.8601 -1.6194
10225TIP3    H254871   2.941   4.886  10.464  0.0476 -1.1705  0.2237
10226TIP3   OH254872   0.396   1.701  12.177 -0.3706  0.0400 -0.7931
10226TIP3    H154873   0.330   1.711  12.246  0.8865  1.1473  0.3015
10226TIP3    H254874   0.405   1.607  12.165 -0.0418 -0.1981  1.1449
10227TIP3   OH254875   0.562   6.902  10.492 -0.3505 -0.5367  0.3620
10227TIP3    H154876   0.630   6.843  10.525  1.6906  0.5489 -1.5766
10227TIP3    H254877   0.602   6.943  10.414 -2.3995  1.8700  0.4464
10228TIP3   OH254878   7.264   6.435  10.773 -0.0240 -0.1553  0.3980
10228TIP3    H154879   7.276   6.524  10.739  0.2963 -0.5992 -0.6979
10228TIP3    H254880   7.285   6.442  10.866  2.6576  0.4092 -0.1745
10229TIP3   OH254881   4.771   7.520  10.552  1.1208 -0.4295 -0.1614
10229TIP3    H154882   4.795   7.597  10.603  1.2090 -2.0035  2.3654
10229TIP3    H254883   4.705   7.475  10.606  1.8474 -2.6387 -1.0028
10230TIP3   OH254884   1.669   0.309  11.009  0.3133 -0.2509  0.2574
10230TIP3    H154885   1.604   0.371  11.042 -2.3443 -1.5313 -2.1466
10230TIP3    H254886   1.703   0.351  10.929 -0.1558 -1.0769 -0.3878
10231TIP3   OH254887   5.874   1.266  10.815 -0.1756  0.0958 -0.0068
10231TIP3    H154888   5.867   1.181  10.858 -1.2216 -0.9057 -2.0362
10231TIP3    H254889   5.802   1.267  10.751  0.0347  2.3598 -0.2892
10232TIP3   OH254890   1.026   5.364  10.765 -0.0214  0.5296 -0.2744
10232TIP3    H154891   1.089   5.358  10.693  2.5701 -1.7614  1.9414
10232TIP3    H254892   1.067   5.424  10.827 -0.6534  0.0096  0.6604
10233TIP3   OH254893   5.038   7.416   9.791  0.3083 -0.1181  0.4445
10233TIP3    H154894   5.111   7.455   9.840 -0.9482  1.5101  1.1102
10233TIP3    H254895   4.963   7.472   9.811 -0.5688 -0.1422 -2.3172
10234TIP3   OH254896   3.616   3.185  11.380 -0.0320 -0.3106  0.3158
10234TIP3    H154897   3.589   3.229  11.300 -0.0322 -0.5159  0.1999
10234TIP3    H254898   3.695   3.136  11.354 -0.6631 -1.2646  0.1553
10235TIP3   OH254899   5.714   3.430  12.042 -0.1680  0.1873  0.6576
10235TIP3    H154900   5.689   3.488  11.969  0.4700 -0.8331 -0.4057
10235TIP3    H254901   5.800   3.463  12.069  0.3947 -0.4885 -0.2348
10236TIP3   OH254902   0.017   1.426  11.159  0.1716 -0.2339  0.1077
10236TIP3    H154903   0.003   1.464  11.246 -0.4663 -0.2059 -0.0072
10236TIP3    H254904  -0.068   1.430  11.116  0.8197  1.2144 -1.1124
10237TIP3   OH254905   7.472   4.913  10.827 -0.4921  0.6782 -0.5663
10237TIP3    H154906   7.481   4.997  10.782  0.7278 -0.1644 -1.9866
10237TIP3    H254907   7.378   4.895  10.825 -0.8802  2.3745  0.5112
10238TIP3   OH254908   4.051   4.901  12.406  0.1773 -0.0224 -0.1189
10238TIP3    H154909   4.102   4.943  12.475  0.3674  0.8507 -0.7715
10238TIP3    H254910   3.962   4.896  12.441  0.4071 -0.2356  0.4529
10239TIP3   OH254911   5.762   1.647  12.213  0.2372  0.3341  0.0386
10239TIP3    H154912   5.812   1.727  12.224  0.2314  0.1639  1.4005
10239TIP3    H254913   5.824   1.577  12.233 -0.1411  0.0559  0.2496
10240TIP3   OH254914   7.220   3.467  10.669  0.1468 -0.1484 -0.6525
10240TIP3    H154915   7.286   3.503  10.729  0.9087 -1.1160 -0.8838
10240TIP3    H254916   7.270   3.446  10.590 -0.5437 -0.4235 -1.0192
10241TIP3   OH254917   0.705   3.458  12.673  0.4770  0.4813  0.1791
10241TIP3    H154918   0.652   3.433  12.749 -2.2392 -0.2246 -1.7814
10241TIP3    H254919   0.760   3.382  12.656 -0.2192 -0.0785  0.3790
10242TIP3   OH254920   6.946   6.454  12.069 -0.1338 -0.2881  0.3074
10242TIP3    H154921   6.881   6.516  12.035 -0.7358 -0.9602  0.2004
10242TIP3    H254922   6.912   6.429  12.154 -0.4724 -1.3022 -0.1139
10243TIP3   OH254923   0.173   2.687  12.568 -0.0991  0.5646  0.0014
10243TIP3    H154924   0.209   2.689  12.657 -1.4217 -0.4335  0.6096
10243TIP3    H254925   0.117   2.765  12.564 -0.1753  0.5156  0.1052
10244TIP3   OH254926   7.049   6.298  11.133 -0.3070  0.0444  0.4034
10244TIP3    H154927   6.964   6.329  11.165 -0.7589  0.5265 -1.1354
10244TIP3    H254928   7.050   6.205  11.156 -2.0592 -0.4032 -1.0067
10245TIP3   OH254929   2.141   6.791  11.272 -0.2922 -0.8829 -0.3083
10245TIP3    H154930   2.150   6.830  11.359 -0.1499 -2.9448  0.6671
10245TIP3    H254931   2.072   6.842  11.230  0.7310  1.1731  0.3808
10246TIP3   OH254932   4.933   4.725  10.152 -0.4837 -0.0753  0.4181
10246TIP3    H154933   4.856   4.694  10.200 -0.4325  0.6275  0.9556
10246TIP3    H254934   5.003   4.728  10.218  0.1399 -1.1317 -0.1505
10247TIP3   OH254935   5.665   0.566  10.967 -0.7440  0.0311 -0.9931
10247TIP3    H154936   5.680   0.477  11.000 -1.7530 -0.1251 -0.9206
10247TIP3    H254937   5.636   0.615  11.044  1.1649  0.8089 -0.7190
10248TIP3   OH254938   3.440   5.355  11.346 -0.4213 -0.5648 -0.5470
10248TIP3    H154939   3.354   5.391  11.368 -0.8562 -1.4749 -0.7187
10248TIP3    H254940   3.500   5.429  11.358 -0.8525 -0.5317  2.0206
10249TIP3   OH254941   7.516   3.375  10.842  0.1245 -0.1383 -0.1496
10249TIP3    H154942   7.564   3.322  10.905  0.5510 -0.1419 -0.4668
10249TIP3    H254943   7.485   3.312  10.777 -0.3524 -0.1413  0.0791
10250TIP3   OH254944   5.211   6.519  10.720 -0.2567  0.0918  0.1081
10250TIP3    H154945   5.263   6.591  10.755  4.3276 -2.0330 -1.4328
10250TIP3    H254946   5.191   6.545  10.630  0.9177 -0.2053 -0.2663
10251TIP3   OH254947   2.821   1.826  11.356 -0.8333  0.5134  0.2137
10251TIP3    H154948   2.847   1.741  11.322  0.1468  0.6781  0.4955
10251TIP3    H254949   2.904   1.869  11.378 -1.2524  1.9221 -0.8335
10252TIP3   OH254950   0.105   5.097  10.425  0.5489 -0.3609 -0.1403
10252TIP3    H154951   0.126   5.148  10.346  2.8876 -0.0281  0.5946
10252TIP3    H254952   0.036   5.147  10.468  0.0597  0.0827 -1.3962
10253TIP3   OH254953   4.195   0.117  11.868 -0.0235 -0.0042  0.5609
10253TIP3    H154954   4.165   0.192  11.921  1.2367  0.4276  0.7097
10253TIP3    H254955   4.208   0.047  11.932  2.7116  0.8890  1.0895
10254TIP3   OH254956   1.368   2.774  10.657 -0.8740  0.2886 -0.5521
10254TIP3    H154957   1.454   2.738  10.634 -1.3999 -0.9811 -0.6124
10254TIP3    H254958   1.322   2.781  10.573 -1.0986  0.2238 -0.4344
10255TIP3   OH254959   6.677   5.880  12.499  0.4325 -0.4592 -0.4856
10255TIP3    H154960   6.718   5.965  12.511 -0.7153  0.1287 -0.5831
10255TIP3    H254961   6.609   5.876  12.567 -0.6255 -0.5786 -1.5052
10256TIP3   OH254962   2.240   1.189  11.333 -0.0069 -0.8782  0.0004
10256TIP3    H154963   2.247   1.219  11.242 -2.4480 -0.5159 -0.1404
10256TIP3    H254964   2.258   1.267  11.385  0.2481 -0.8091 -0.1864
10257TIP3   OH254965   2.351   3.113  10.391  0.0618  0.3184  0.5603
10257TIP3    H154966   2.290   3.040  10.379  0.6259  0.2458 -2.7214
10257TIP3    H254967   2.433   3.071  10.419  0.2261 -0.2921 -0.7680
10258TIP3   OH254968   6.096   7.578  11.302 -0.7145  0.1639 -0.2273
10258TIP3    H154969   6.065   7.668  11.310 -0.1604  0.3470 -0.0807
10258TIP3    H254970   6.037   7.526  11.357 -1.7520  0.2600 -1.2188
10259TIP3   OH254971   7.525   6.572  12.521 -0.5053  0.0500 -0.7886
10259TIP3    H154972   7.478   6.542  12.599 -1.1435 -1.0016 -1.5493
10259TIP3    H254973   7.460   6.622  12.472  0.0109  1.0614 -0.4641
10260TIP3   OH254974   7.094   0.002  12.092 -0.6280  0.5052  0.0243
10260TIP3    H154975   6.998  -0.006  12.095 -0.6180  0.4361  0.2364
10260TIP3    H254976   7.119  -0.036  12.009 -0.7626  0.2529  0.0984
10261TIP3   OH254977   2.747   0.091  10.353  0.1143 -0.5054  0.0404
10261TIP3    H154978   2.780   0.022  10.410 -1.2252 -1.9559 -0.8365
10261TIP3    H254979   2.667   0.122  10.396 -0.2331 -0.7350 -0.4349
10262TIP3   OH254980   3.792   5.061  12.279 -0.3888 -0.2433  0.0029
10262TIP3    H154981   3.746   5.046  12.361 -1.2087 -2.1304 -0.7325
10262TIP3    H254982   3.743   5.010  12.214  2.2870 -1.8554 -0.9600
10263TIP3   OH254983   0.848   2.960  10.529  0.2750 -0.3719  0.5126
10263TIP3    H154984   0.839   2.954  10.624  1.3393  2.8613  0.9320
10263TIP3    H254985   0.808   3.044  10.506  0.3046 -0.9309 -1.8748
10264TIP3   OH254986   7.617   7.541  11.144 -0.9143 -0.1770  0.2198
10264TIP3    H154987   7.640   7.449  11.154 -2.2489 -0.8918 -2.3214
10264TIP3    H254988   7.687   7.577  11.090 -2.1433 -0.6963 -1.8557
10265TIP3   OH254989   0.641   1.221  12.140 -0.0403 -0.0525 -0.1092
10265TIP3    H154990   0.588   1.180  12.072 -0.0067 -1.0905  0.4761
10265TIP3    H254991   0.681   1.296  12.097 -3.1721  1.7476 -0.2265
10266TIP3   OH254992   6.546   4.322  10.016 -0.2128  0.7432 -0.0514
10266TIP3    H154993   6.470   4.348   9.964  0.8820  1.7395 -1.2418
10266TIP3    H254994   6.537   4.228  10.027 -0.5325  0.4964 -2.0204
10267TIP3   OH254995   3.735   0.891  11.449 -0.0791 -0.0483  0.4715
10267TIP3    H154996   3.683   0.845  11.383  0.4532 -2.7222  1.7685
10267TIP3    H254997   3.819   0.846  11.448  0.4643  0.8733  1.8968
10268TIP3   OH254998   4.735   4.565  10.852 -0.1305  0.1320  0.1101
10268TIP3    H154999   4.649   4.557  10.894 -1.0676  0.7868 -1.5676
10268TIP3    H255000   4.754   4.659  10.852 -0.1827  0.1525 -0.9441
10269TIP3   OH255001   1.762   2.819  12.576  0.1791  0.2528 -0.0480
10269TIP3    H155002   1.848   2.814  12.535 -0.2156  0.0815 -0.8859
10269TIP3    H255003   1.755   2.908  12.610  0.2486  0.6262 -0.9837
10270TIP3   OH255004   1.673   3.643  11.593  0.4213 -0.5260 -0.0689
10270TIP3    H155005   1.587   3.615  11.625  1.0038  0.1669  2.2491
10270TIP3    H255006   1.656   3.727  11.550  0.1067  0.4399  1.8249
10271TIP3   OH255007   4.764   6.186  12.248 -0.1645 -0.0653 -0.0336
10271TIP3    H155008   4.703   6.113  12.259 -0.5445  0.3457  0.6496
10271TIP3    H255009   4.824   6.179  12.321 -0.7368  0.8033  0.5366
10272TIP3   OH255010   7.404   7.357  12.282  0.3550  0.5706 -0.1198
10272TIP3    H155011   7.429   7.399  12.199  1.7390  0.3417  0.1558
10272TIP3    H255012   7.487   7.330  12.321 -0.3870 -0.9842  0.4767
10273TIP3   OH255013   3.268   1.920  10.099 -0.3160 -0.3799 -0.3972
10273TIP3    H155014   3.301   1.913  10.009  0.1186  0.4535 -0.3140
10273TIP3    H255015   3.311   1.998  10.134  0.2731 -1.2385  0.8598
10274TIP3   OH255016   7.398   6.775  10.898 -0.2229  0.0876 -0.0625
10274TIP3    H155017   7.428   6.685  10.896 -0.0932  0.0779  1.4148
10274TIP3    H255018   7.356   6.789  10.813 -0.0033 -1.2691 -0.4021
10275TIP3   OH255019   4.035   7.118  12.004 -0.2503 -0.1296 -0.7396
10275TIP3    H155020   4.041   7.115  12.100  0.7124  1.3286 -0.7187
10275TIP3    H255021   4.109   7.065  11.974 -0.4303 -0.4174 -0.6792
10276TIP3   OH255022   1.752   5.422  10.311 -0.0991 -0.3820  0.3800
10276TIP3    H155023   1.697   5.467  10.376  1.0706  0.7640  0.6088
10276TIP3    H255024   1.789   5.348  10.359  1.3760  0.8938  1.3189
10277TIP3   OH255025   2.734   3.040   9.943  0.0698 -0.4076 -0.0365
10277TIP3    H155026   2.675   3.053  10.017 -0.0998 -2.3523  0.2462
10277TIP3    H255027   2.703   2.959   9.902  0.7741  0.0904 -1.6475
10278TIP3   OH255028   3.620   5.481  10.428 -0.0312  0.7185  0.2764
10278TIP3    H155029   3.713   5.462  10.446  0.1681  0.6848 -0.7420
10278TIP3    H255030   3.575   5.453  10.508  0.6895 -0.5123  0.2910
10279TIP3   OH255031   5.561   4.657  10.816  0.6389 -0.0462  0.3304
10279TIP3    H155032   5.503   4.689  10.747 -0.0325 -0.5978  0.6244
10279TIP3    H255033   5.641   4.631  10.771  1.4140  2.4459  0.1188
10280TIP3   OH255034   2.020   6.822  12.844  0.5043  0.0088  0.3676
10280TIP3    H155035   1.940   6.778  12.814 -0.1105  0.8182  0.7827
10280TIP3    H255036   2.018   6.907  12.800  2.2617 -0.7390 -1.3350
10281TIP3   OH255037   2.136   2.063  10.732  0.0339 -0.5869 -0.1282
10281TIP3    H155038   2.154   1.978  10.692 -0.2315 -0.8793  0.3586
10281TIP3    H255039   2.084   2.110  10.667 -2.8840 -2.1212  0.9514
10282TIP3   OH255040   1.270   0.342  11.927  0.9775  0.0147 -0.2778
10282TIP3    H155041   1.352   0.325  11.882  0.1601  1.2345 -2.3513
10282TIP3    H255042   1.256   0.437  11.918  0.5575  0.2785  2.2479
10283TIP3   OH255043   1.277   2.761  10.083 -0.0427 -0.1834 -0.3179
10283TIP3    H155044   1.338   2.832  10.106  1.0600 -0.7682 -1.2719
10283TIP3    H255045   1.326   2.681  10.101 -1.7100 -0.7952  1.9047
10284TIP3   OH255046   0.464   3.009  11.737 -0.1259  0.0309 -0.0069
10284TIP3    H155047   0.409   3.084  11.760  1.5288  1.1613  0.4590
10284TIP3    H255048   0.443   2.943  11.802 -1.1895  0.2841 -0.0673
10285TIP3   OH255049   1.711   1.604  11.403 -0.6365 -0.1203  0.2640
10285TIP3    H155050   1.723   1.698  11.392  0.0146 -0.1433  0.7432
10285TIP3    H255051   1.660   1.577  11.326  0.9325  0.2786 -0.9493
10286TIP3   OH255052   5.673   5.558  10.066  0.2380  0.4264 -0.0697
10286TIP3    H155053   5.651   5.467  10.046  1.7976 -0.0536  0.2072
10286TIP3    H255054   5.653   5.567  10.159  2.7889 -0.5945  0.6787
10287TIP3   OH255055   6.594   0.959  10.570  0.0807 -0.1957  0.0063
10287TIP3    H155056   6.673   0.916  10.602  0.5688 -0.1266 -1.1032
10287TIP3    H255057   6.522   0.905  10.606  0.6352 -0.7260  0.3438
10288TIP3   OH255058   5.194   4.577  11.219  0.6724  0.0090 -0.1715
10288TIP3    H155059   5.195   4.667  11.185  0.2633 -0.9104 -2.8366
10288TIP3    H255060   5.101   4.556  11.227  0.7188 -0.7990 -1.4782
10289TIP3   OH255061   1.623   0.214  10.450 -0.0210 -0.3263 -0.1465
10289TIP3    H155062   1.544   0.200  10.398 -0.6165 -2.3712  1.2123
10289TIP3    H255063   1.695   0.195  10.389 -0.5548  0.6315 -1.1224
10290TIP3   OH255064   6.393   5.515  12.382 -0.2702 -0.1118  0.3736
10290TIP3    H155065   6.364   5.466  12.306  0.1043 -1.0752  0.8398
10290TIP3    H255066   6.459   5.459  12.424 -1.0120  0.0445  1.8179
10291TIP3   OH255067   1.345   5.823  10.985  0.2641  0.2621 -0.5809
10291TIP3    H155068   1.293   5.899  10.959  0.0962 -0.0206 -1.0961
10291TIP3    H255069   1.336   5.762  10.912  1.1596  0.1276 -0.5980
10292TIP3   OH255070   6.062   0.719  10.508  0.2710 -0.3802  0.2222
10292TIP3    H155071   6.106   0.695  10.590 -0.4785 -0.3276  0.6500
10292TIP3    H255072   5.971   0.733  10.533 -0.2407 -1.6147 -0.8552
10293TIP3   OH255073   6.054   1.935  10.974 -0.2003 -0.2243  0.1054
10293TIP3    H155074   6.131   1.989  10.993 -0.7155  0.3958  0.4689
10293TIP3    H255075   6.070   1.900  10.887  0.7317 -0.5184  0.3876
10294TIP3   OH255076   1.099   4.169  12.184  0.4490 -0.0106  0.0765
10294TIP3    H155077   1.165   4.103  12.162  0.0526 -0.0336 -1.0655
10294TIP3    H255078   1.144   4.253  12.173  0.4163 -0.0388 -0.2771
10295TIP3   OH255079   0.295   4.495  11.878 -0.3048  0.2319 -0.2227
10295TIP3    H155080   0.372   4.548  11.901  0.5537 -1.1121  0.1140
10295TIP3    H255081   0.225   4.531  11.932  0.8119 -0.4247  1.7961
10296TIP3   OH255082   3.516   5.244  12.199  0.4680 -0.1360  0.4179
10296TIP3    H155083   3.479   5.165  12.239 -2.2927  0.4499 -0.7601
10296TIP3    H255084   3.469   5.316  12.240  0.2965  0.6734 -1.1342
10297TIP3   OH255085   1.181   1.972  11.411  0.2422 -0.1578  0.4748
10297TIP3    H155086   1.097   2.018  11.404 -0.4232 -1.1878  1.2469
10297TIP3    H255087   1.234   2.027  11.469  0.3795  0.8538 -0.5717
10298TIP3   OH255088   7.139   6.628  11.952  0.2645 -0.1967  0.0943
10298TIP3    H155089   7.106   6.700  12.004 -2.8462  0.0353 -1.9708
10298TIP3    H255090   7.096   6.550  11.989  0.3406 -0.4226 -0.2889
10299TIP3   OH255091   0.444   6.967  10.744  0.4032  0.6351  0.0778
10299TIP3    H155092   0.464   7.060  10.758  1.2594  0.4666  0.0652
10299TIP3    H255093   0.484   6.947  10.659  0.9242  0.0714  0.4441
10300TIP3   OH255094   5.849   6.497  10.070  0.3058 -0.1992 -0.1574
10300TIP3    H155095   5.867   6.465  10.158 -0.0793  0.0215  0.0033
10300TIP3    H255096   5.909   6.449  10.014  1.8187  0.9287  0.4261
10301TIP3   OH255097   5.954   1.475  10.543 -0.1318  0.0454 -0.3875
10301TIP3    H155098   6.014   1.507  10.476  0.2648  0.6097  0.2212
10301TIP3    H255099   5.959   1.379  10.536 -1.8440  0.0476 -2.6769
10302TIP3   OH255100   7.606   0.039  10.724  0.2475 -0.1765  0.0525
10302TIP3    H155101   7.601  -0.019  10.800  1.5939  1.3539  1.3855
10302TIP3    H255102   7.696   0.028  10.692  0.9784  2.0743  1.1541
10303TIP3   OH255103   6.638   3.390  10.368 -0.6848  0.1021 -0.7193
10303TIP3    H155104   6.546   3.414  10.368 -1.0302 -0.9501  1.6144
10303TIP3    H255105   6.647   3.329  10.442  1.4171 -1.6415 -2.2803
10304TIP3   OH255106   3.156   5.276  10.029 -0.1073 -0.1695  0.1834
10304TIP3    H155107   3.240   5.291  10.072 -0.4753 -0.0690  0.8691
10304TIP3    H255108   3.161   5.185   9.999 -0.4240 -0.7499  1.7816
10305TIP3   OH255109   2.382   1.136  10.158  0.1123 -0.5168 -0.7064
10305TIP3    H155110   2.296   1.094  10.153 -0.7830  1.2768 -1.6402
10305TIP3    H255111   2.369   1.221  10.115  1.7687  0.7584  1.1369
10306TIP3   OH255112   1.139   3.036  11.462  0.0808 -0.6447 -0.4610
10306TIP3    H155113   1.156   2.959  11.517  0.0871 -0.4603 -0.2010
10306TIP3    H255114   1.074   3.007  11.398 -0.2422 -0.7426 -0.0881
10307TIP3   OH255115   4.577   2.400  11.295 -0.4639  0.4869 -0.0573
10307TIP3    H155116   4.585   2.322  11.350 -2.0459  1.5816  1.8479
10307TIP3    H255117   4.485   2.403  11.271 -0.4547  1.8469  0.0080
10308TIP3   OH255118   7.473   0.013  11.316 -0.1064 -0.1055  0.1523
10308TIP3    H155119   7.380  -0.007  11.307 -0.0547 -2.6590  3.2536
10308TIP3    H255120   7.518  -0.062  11.276  0.5021 -0.0724  0.7481
10309TIP3   OH255121   6.428   4.878  10.387 -0.4057 -0.3255 -0.3535
10309TIP3    H155122   6.490   4.859  10.316  1.8264  0.5522  1.2216
10309TIP3    H255123   6.436   4.803  10.445  0.8069  0.6845  0.8640
10310TIP3   OH255124   4.984   1.749   9.870  0.3383  0.2064  0.5529
10310TIP3    H155125   4.919   1.819   9.860  0.4197  0.4451  1.5846
10310TIP3    H255126   5.064   1.784   9.829 -0.3913 -0.4617 -1.6038
10311TIP3   OH255127   3.117   1.869  11.794  0.7537  0.0105  0.4561
10311TIP3    H155128   3.078   1.782  11.803  0.1817  0.2698  0.5335
10311TIP3    H255129   3.128   1.880  11.699 -0.3720  0.3604  0.3500
10312TIP3   OH255130   2.705   0.635  12.396 -0.3305 -0.4642  0.1446
10312TIP3    H155131   2.767   0.624  12.324 -0.2652  1.2312 -0.0888
10312TIP3    H255132   2.639   0.567  12.381 -0.0880 -0.4215 -1.2746
10313TIP3   OH255133   2.081   3.376  10.768  0.7921  0.3783  0.8233
10313TIP3    H155134   2.014   3.310  10.749  0.2585  0.8518  1.0382
10313TIP3    H255135   2.045   3.457  10.733  0.8252  0.8176  1.7766
10314TIP3   OH255136   0.818   6.471  12.357  0.4210  0.2607  0.2827
10314TIP3    H155137   0.854   6.483  12.269 -0.1114 -0.2313 -0.0048
10314TIP3    H255138   0.774   6.554  12.376 -2.0914 -0.6502 -1.1585
10315TIP3   OH255139   4.477   4.480  10.916 -0.0433 -0.4908 -0.3645
10315TIP3    H155140   4.466   4.400  10.866 -0.3502  1.1655 -3.1547
10315TIP3    H255141   4.388   4.505  10.941  0.0935 -1.2113  0.9521
10316TIP3   OH255142   4.246   1.998  11.891 -0.5331 -0.3526 -0.2425
10316TIP3    H155143   4.194   2.076  11.912  1.1646  1.1245 -1.1776
10316TIP3    H255144   4.302   1.986  11.967 -0.9648 -0.8157  0.0037
10317TIP3   OH255145   4.162   5.875  12.520  0.7811 -0.0763  0.3517
10317TIP3    H155146   4.204   5.839  12.442  1.5327 -1.2881  1.2716
10317TIP3    H255147   4.193   5.966  12.524  2.4587 -0.6078  0.3725
10318TIP3   OH255148   3.206   3.496  11.490  0.2100  0.0920  0.6564
10318TIP3    H155149   3.172   3.548  11.563  1.7625  0.8089  0.9152
10318TIP3    H255150   3.213   3.407  11.525  1.5203  0.5397  1.6253
10319TIP3   OH255151   0.931   5.436  10.471 -0.8046 -0.2559 -0.6446
10319TIP3    H155152   0.925   5.527  10.444  0.1457 -0.2621 -0.8955
10319TIP3    H255153   1.023   5.424  10.496 -1.3886 -0.5040  1.6506
10320TIP3   OH255154   7.379   1.859  11.649 -0.1846 -0.0103 -0.3763
10320TIP3    H155155   7.283   1.865  11.642 -0.1226  2.9285  0.3163
10320TIP3    H255156   7.401   1.906  11.729  1.9604  0.7702 -1.3493
10321TIP3   OH255157   4.557   3.349  11.467 -0.3183  0.1321 -0.6014
10321TIP3    H155158   4.577   3.274  11.412 -0.9890  1.7183 -3.1867
10321TIP3    H255159   4.481   3.390  11.424 -0.5606  1.7634  1.2505
10322TIP3   OH255160   6.712   2.485  11.329  0.5165 -0.2883  0.1871
10322TIP3    H155161   6.704   2.392  11.349 -1.1431 -0.0389  0.8434
10322TIP3    H255162   6.697   2.529  11.412  0.0897  0.5955 -0.3463
10323TIP3   OH255163   2.387   4.343  10.802  0.1601  0.1136  0.3679
10323TIP3    H155164   2.434   4.356  10.884  0.1388 -0.4980  0.4876
10323TIP3    H255165   2.453   4.304  10.743  0.2721  0.8780 -0.0179
10324TIP3   OH255166   0.908   5.119  11.340  0.7694 -0.2602 -0.5385
10324TIP3    H155167   0.918   5.214  11.335 -0.6453  0.1503  2.3744
10324TIP3    H255168   0.995   5.087  11.362  1.4541  0.1919 -2.3674
10325TIP3   OH255169   1.039   2.186  11.676 -0.1910 -0.1365 -0.1139
10325TIP3    H155170   1.005   2.137  11.601  1.3494 -1.8178  0.2262
10325TIP3    H255171   1.049   2.121  11.745 -1.2095  1.3146  1.4845
10326TIP3   OH255172   3.324   5.856  11.386 -0.5432  0.5773  0.2104
10326TIP3    H155173   3.356   5.944  11.366  1.9104 -0.0311  1.0860
10326TIP3    H255174   3.318   5.853  11.481 -0.1757 -0.3302  0.2162
10327TIP3   OH255175   5.011   2.822   9.912 -0.0084  0.4571 -0.1775
10327TIP3    H155176   5.082   2.884   9.894 -0.6477  0.5950 -2.5800
10327TIP3    H255177   5.045   2.764   9.980  0.9970  2.7669  1.4077
10328TIP3   OH255178   0.837   2.177  10.065 -0.2122  0.2339  0.2264
10328TIP3    H155179   0.758   2.145  10.020  0.0193 -1.1116  0.7535
10328TIP3    H255180   0.804   2.243  10.126 -0.8937 -0.1098  0.2388
10329TIP3   OH255181   5.991   2.473   9.861  0.3718 -0.3184  0.6422
10329TIP3    H155182   5.958   2.517   9.782 -0.3347 -2.0486 -0.0891
10329TIP3    H255183   5.977   2.536   9.931  1.2047  1.3627 -0.6227
10330TIP3   OH255184   6.437   5.758  12.120  0.0373  0.1095 -0.0091
10330TIP3    H155185   6.508   5.808  12.159  0.4699  1.2227 -2.0635
10330TIP3    H255186   6.359   5.782  12.170  0.7777  0.3681  1.0399
10331TIP3   OH255187   6.875   7.264  10.374 -0.4800 -0.0872 -0.0692
10331TIP3    H155188   6.847   7.223  10.293 -0.5579 -0.1663 -0.0020
10331TIP3    H255189   6.886   7.356  10.352 -1.4895  0.0848  0.0730
10332TIP3   OH255190   2.304   4.011  10.987  0.5696  0.0540 -0.6464
10332TIP3    H155191   2.372   4.000  10.921  0.9700  1.5607 -0.5285
10332TIP3    H255192   2.351   4.008  11.071  0.4707  0.7849 -0.5533
10333TIP3   OH255193   7.337   1.735  10.013  0.4082  0.5599  0.0000
10333TIP3    H155194   7.390   1.700   9.941  2.4975 -0.1398  1.7537
10333TIP3    H255195   7.395   1.796  10.058 -1.2652  1.9125  0.4032
10334TIP3   OH255196   1.040   0.698  10.904 -0.0620  0.7565  0.7381
10334TIP3    H155197   1.127   0.675  10.937  0.6480  1.2743 -0.6573
10334TIP3    H255198   1.045   0.791  10.885  0.4507  0.1435 -2.9871
10335TIP3   OH255199   4.654   0.665  11.563  1.1121 -0.4527  0.4788
10335TIP3    H155200   4.614   0.596  11.510 -0.7744 -1.7400  3.2711
10335TIP3    H255201   4.583   0.726  11.581  1.8881  0.3713  0.8164
10336TIP3   OH255202   3.691   0.087  12.430 -0.5965  0.5941  0.4871
10336TIP3    H155203   3.600   0.058  12.422 -1.0423  2.2064 -0.7085
10336TIP3    H255204   3.742   0.020  12.385 -1.3003  0.2317  0.2127
10337TIP3   OH255205   5.253   0.835  10.792  0.1387  0.0815 -0.1057
10337TIP3    H155206   5.242   0.816  10.885 -2.4753  0.5183 -0.2647
10337TIP3    H255207   5.269   0.930  10.789  0.4143  0.0364 -0.1018
10338TIP3   OH255208   3.254   7.153  11.506  0.3077 -0.2669 -0.4273
10338TIP3    H155209   3.217   7.231  11.465 -0.4132 -0.2072  0.3027
10338TIP3    H255210   3.342   7.145  11.469  0.2118  0.6123 -0.8665
10339TIP3   OH255211   1.997   0.344  11.104  0.3367  0.1641 -0.4534
10339TIP3    H155212   1.942   0.266  11.097 -1.1662  1.1895 -0.5707
10339TIP3    H255213   2.067   0.330  11.041  0.5373 -1.4163  0.0644
10340TIP3   OH255214   4.326   1.445  11.929  0.0343  0.0232 -0.2657
10340TIP3    H155215   4.317   1.437  12.024  0.1607 -1.4488 -0.3587
10340TIP3    H255216   4.290   1.532  11.909 -0.6373  0.0755  1.0329
10341TIP3   OH255217   4.607   7.619  10.338  1.2623  0.5936  0.4271
10341TIP3    H155218   4.604   7.707  10.374  0.5780  0.3870  0.9052
10341TIP3    H255219   4.660   7.569  10.400  1.4139  0.6049  0.3067
10342TIP3   OH255220   7.336   4.291  10.592 -0.1300  0.6004  0.1492
10342TIP3    H155221   7.267   4.279  10.657 -1.0651  2.3481 -0.4392
10342TIP3    H255222   7.289   4.310  10.511  1.0277 -0.8220 -0.9103
10343TIP3   OH255223   3.342   7.489  11.555 -0.2174  0.4840 -0.4896
10343TIP3    H155224   3.298   7.462  11.636  0.9486 -0.1617 -0.0407
10343TIP3    H255225   3.433   7.502  11.581  0.0045  1.0856 -1.5383
10344TIP3   OH255226   1.223   5.758  12.086  0.1551  0.7621 -0.0562
10344TIP3    H155227   1.143   5.722  12.124  0.6126 -1.0483 -0.7056
10344TIP3    H255228   1.192   5.810  12.011 -0.3880 -1.5968 -1.5820
10345TIP3   OH255229   4.077   3.302  11.856 -0.0645  0.1414  0.4003
10345TIP3    H155230   4.050   3.334  11.770 -0.6267 -0.6316  0.2776
10345TIP3    H255231   4.005   3.328  11.914 -0.4462 -0.7231  0.3290
10346TIP3   OH255232   2.866   2.814  11.509  0.8615  0.3538  0.3184
10346TIP3    H155233   2.776   2.781  11.510 -0.0506  2.6150  1.1593
10346TIP3    H255234   2.886   2.833  11.600  1.0927  2.4538 -0.1056
10347TIP3   OH255235   0.995   1.035  10.599 -0.1159  0.2371  0.1208
10347TIP3    H155236   0.916   1.000  10.641 -0.6616  0.4704 -0.6747
10347TIP3    H255237   1.003   0.984  10.519 -1.8112  2.8179 -1.8603
10348TIP3   OH255238   3.126   3.072  10.963 -0.5090 -0.2165  0.0681
10348TIP3    H155239   3.107   2.992  10.913  0.6639 -0.9964  0.8033
10348TIP3    H255240   3.082   3.142  10.914 -1.7219 -1.3280 -0.4900
10349TIP3   OH255241   0.608   3.192  11.317  0.5198 -0.1022 -0.1371
10349TIP3    H155242   0.555   3.235  11.384  0.2448 -1.3280  0.4631
10349TIP3    H255243   0.695   3.184  11.357  0.2158 -1.3400  0.3368
10350TIP3   OH255244   7.440   5.219  11.106  0.5106 -0.3085 -0.2874
10350TIP3    H155245   7.524   5.197  11.066  1.7259  1.5279  1.0575
10350TIP3    H255246   7.455   5.208  11.200 -0.4602  0.8246  0.0246
10351TIP3   OH255247   5.254   3.164  11.237 -0.1482  0.2494  0.5489
10351TIP3    H155248   5.166   3.194  11.214 -0.6271 -0.9663  0.7299
10351TIP3    H255249   5.265   3.192  11.328 -0.7522 -0.4587  0.8505
10352TIP3   OH255250   3.749   1.508  12.237 -0.0877 -0.0863  0.3627
10352TIP3    H155251   3.708   1.550  12.312 -1.0630  1.7689 -1.1217
10352TIP3    H255252   3.739   1.571  12.165  2.8248 -0.7724 -0.8216
10353TIP3   OH255253   4.938   5.026  10.011 -0.2470 -0.0839  0.4622
10353TIP3    H155254   5.005   4.999  10.074  0.1616  1.8661  0.9331
10353TIP3    H255255   4.978   5.012   9.926 -0.1177 -1.0488  0.6677
10354TIP3   OH255256   0.292   7.033  10.524  0.6447 -0.1646 -0.0166
10354TIP3    H155257   0.356   7.052  10.593  0.8153 -1.3945  0.1751
10354TIP3    H255258   0.342   6.986  10.457  0.0033 -0.8893  0.0040
10355TIP3   OH255259   3.298   2.710  10.562  0.3051 -0.1038  0.2598
10355TIP3    H155260   3.353   2.758  10.624  0.9615  2.1031 -1.8716
10355TIP3    H255261   3.348   2.632  10.540  1.6946  0.8742 -0.1375
10356TIP3   OH255262   3.285   2.966  11.890  0.7341 -0.2380  0.0481
10356TIP3    H155263   3.240   2.909  11.828  1.1361  0.8256 -1.2759
10356TIP3    H255264   3.251   3.054  11.870  0.2206  0.0338  1.9337
10357TIP3   OH255265   0.961   3.740  11.380 -0.3775  0.0445 -0.1328
10357TIP3    H155266   1.052   3.759  11.399 -0.2705 -1.6288  1.2794
10357TIP3    H255267   0.962   3.697  11.294  0.0002  1.0003 -0.6239
10358TIP3   OH255268   6.213   4.187  10.494 -0.0163 -0.5665 -0.1896
10358TIP3    H155269   6.187   4.211  10.583  2.3550 -1.1304  0.7089
10358TIP3    H255270   6.255   4.102  10.503 -0.6367 -1.1269 -2.0463
10359TIP3   OH255271   4.623   4.110  11.420 -0.3573  0.4899  0.0220
10359TIP3    H155272   4.550   4.050  11.406 -1.0006  1.4071 -0.7849
10359TIP3    H255273   4.675   4.104  11.339 -0.9796  1.7128 -0.4982
10360TIP3   OH255274   2.814   2.745  11.080 -0.0112  0.1808  0.2185
10360TIP3    H155275   2.789   2.683  11.149  2.3131 -3.2302 -1.6432
10360TIP3    H255276   2.891   2.790  11.115 -1.1854  1.4496  1.2540
10361TIP3   OH255277   6.739   6.925  11.152  0.3903  0.8969 -0.1884
10361TIP3    H155278   6.825   6.965  11.147  1.2227 -0.8546 -0.8947
10361TIP3    H255279   6.711   6.916  11.061 -0.2335  0.8496  0.0018
10362TIP3   OH255280   0.919   4.234  11.952 -0.6823 -0.0236  0.1616
10362TIP3    H155281   0.966   4.211  12.032 -0.3802  2.2259  0.7117
10362TIP3    H255282   0.961   4.183  11.884  0.1306 -0.7909  1.2080
10363TIP3   OH255283   5.981   3.198   9.863  0.1181 -0.2905 -0.4441
10363TIP3    H155284   5.985   3.129   9.929 -1.0655 -0.5378 -0.6038
10363TIP3    H255285   5.918   3.261   9.898  0.5399  0.2849 -0.6983
10364TIP3   OH255286   3.290   4.449  10.129  0.1068  0.5281  0.3614
10364TIP3    H155287   3.344   4.450  10.050  1.1803  0.4803  1.0792
10364TIP3    H255288   3.337   4.504  10.191  0.6709 -1.5567  1.8627
10365TIP3   OH255289   7.281   4.661   9.899  0.2790  0.7988 -0.1383
10365TIP3    H155290   7.270   4.669   9.994 -2.5486 -0.4252 -0.2730
10365TIP3    H255291   7.214   4.599   9.872  2.0151 -0.1039 -2.7838
10366TIP3   OH255292   1.763   0.250  12.862  0.2528 -0.2568 -0.2454
10366TIP3    H155293   1.767   0.174  12.921  0.1986 -0.3734 -0.3906
10366TIP3    H255294   1.852   0.284  12.861 -0.0725  0.6971  1.1497
10367TIP3   OH255295   0.301   7.302  10.420 -0.4247 -0.0181  0.0476
10367TIP3    H155296   0.263   7.229  10.469 -0.5728 -1.0234 -1.4955
10367TIP3    H255297   0.228   7.338  10.368 -0.0639  0.3705 -0.2031
10368TIP3   OH255298   0.765   1.277  11.737 -0.3412 -0.0586 -0.0074
10368TIP3    H155299   0.752   1.344  11.804 -0.0537 -0.6057  0.5991
10368TIP3    H255300   0.718   1.200  11.770  0.1894 -0.4750 -0.2032
10369TIP3   OH255301   7.604   6.827  10.560  0.2509 -0.0906  0.2656
10369TIP3    H155302   7.515   6.793  10.554  0.9763 -2.0948  0.0999
10369TIP3    H255303   7.622   6.831  10.654  0.2109 -0.2969  0.2817
10370TIP3   OH255304   3.125   7.333  11.126  0.1545  0.3250 -0.1184
10370TIP3    H155305   3.061   7.359  11.193 -0.3539  3.4142 -1.6288
10370TIP3    H255306   3.210   7.344  11.169 -0.2265 -0.2245  0.7965
10371TIP3   OH255307   2.202   4.697   9.864 -0.0673 -0.2633 -0.0936
10371TIP3    H155308   2.132   4.681   9.928  0.3755  0.6377  0.6352
10371TIP3    H255309   2.159   4.687   9.779 -1.2500  0.8867  0.3361
10372TIP3   OH255310   2.549   2.959  10.548 -0.4357  0.1362 -0.1273
10372TIP3    H155311   2.593   2.888  10.595 -1.1213 -1.7142 -2.1400
10372TIP3    H255312   2.484   2.993  10.609 -2.1958 -3.0482 -0.0596
10373TIP3   OH255313   4.655   6.223  10.121  0.0358 -0.1486  0.2337
10373TIP3    H155314   4.658   6.206  10.215  1.1749 -1.1713  0.0391
10373TIP3    H255315   4.563   6.209  10.098 -0.0583 -1.0005  1.0174
10374TIP3   OH255316   7.598   2.518  11.178 -0.3611  0.5312 -0.4673
10374TIP3    H155317   7.554   2.462  11.242  0.9735  0.3320  0.3334
10374TIP3    H255318   7.680   2.542  11.221 -0.4542  2.2925 -1.2064
10375TIP3   OH255319   4.504   1.794  10.006 -0.1160 -0.1483  0.1282
10375TIP3    H155320   4.500   1.758  10.094  2.4855  3.2327  1.8769
10375TIP3    H255321   4.415   1.824   9.988 -0.4081  0.3922  2.2471
10376TIP3   OH255322   2.612   6.495  11.351  0.2443 -0.0299 -0.1190
10376TIP3    H155323   2.701   6.463  11.334  0.2608  0.0885 -0.2584
10376TIP3    H255324   2.625   6.576  11.400  0.2021 -0.2459  0.2494
10377TIP3   OH255325   1.833   2.599  10.455 -0.1792 -0.7334  0.0430
10377TIP3    H155326   1.750   2.623  10.414 -0.9718 -1.8505  0.9385
10377TIP3    H255327   1.810   2.567  10.542  1.4160  1.0365  1.1932
10378TIP3   OH255328   1.584   5.188  11.386  0.2419  0.7244 -0.4509
10378TIP3    H155329   1.545   5.276  11.385 -0.9779  0.2321  0.8330
10378TIP3    H255330   1.648   5.190  11.316  1.5446  3.2383  0.6733
10379TIP3   OH255331   6.158   6.884  12.167 -0.2241 -0.3282  0.7422
10379TIP3    H155332   6.227   6.880  12.233 -0.6921  0.2051  1.2720
10379TIP3    H255333   6.198   6.930  12.093  0.2830 -0.8799  0.6651
10380TIP3   OH255334   5.049   4.434  11.885 -0.0078 -0.3673  0.2012
10380TIP3    H155335   5.023   4.485  11.808 -0.2356 -0.5799  0.1353
10380TIP3    H255336   4.999   4.473  11.957 -0.8149 -1.0217  0.0079
10381TIP3   OH255337   3.123   2.435  10.992 -0.0190  0.0687 -0.1272
10381TIP3    H155338   3.060   2.414  10.923 -1.6030  3.0273  0.2486
10381TIP3    H255339   3.190   2.487  10.947  0.2574 -0.0652  0.1293
10382TIP3   OH255340   2.127   5.022  12.217 -0.3463  0.1961  0.3863
10382TIP3    H155341   2.167   4.948  12.262 -0.1873 -0.4019 -0.7143
10382TIP3    H255342   2.199   5.082  12.198 -0.1627 -0.2916 -0.4733
10383TIP3   OH255343   3.204   6.238  10.810  0.2001 -0.5163  0.0183
10383TIP3    H155344   3.295   6.228  10.784 -0.0124 -1.8143 -0.3038
10383TIP3    H255345   3.180   6.326  10.779  1.4802  0.0678  0.6163
10384TIP3   OH255346   2.022   3.562  10.406 -0.4635 -0.3311  0.3357
10384TIP3    H155347   2.108   3.538  10.371 -0.9653 -1.0507 -0.4294
10384TIP3    H255348   1.985   3.479  10.437  0.2506  0.3418  3.3349
10385TIP3   OH255349   3.519   3.517  10.406  0.2378 -0.1425 -0.4374
10385TIP3    H155350   3.515   3.583  10.336  1.1242 -1.0500 -1.3779
10385TIP3    H255351   3.570   3.559  10.475 -1.6805  1.2227  0.2183
10386TIP3   OH255352   7.660   1.581  10.071 -0.1901 -0.0953 -0.5462
10386TIP3    H155353   7.577   1.538  10.090 -0.4274  0.9719  1.0522
10386TIP3    H255354   7.717   1.557  10.144  0.3345  0.6083 -0.7131
10387TIP3   OH255355   3.275   6.741  11.893  0.4901  0.1956  0.0250
10387TIP3    H155356   3.273   6.674  11.961  0.8758  0.6356  0.4672
10387TIP3    H255357   3.238   6.819  11.934  2.3800  0.9864  0.3080
10388TIP3   OH255358   4.376   1.991  11.528 -0.0521 -0.0511 -0.7422
10388TIP3    H155359   4.445   2.022  11.586  1.4642  0.0435 -2.4980
10388TIP3    H255360   4.366   1.899  11.549  0.4067  0.0035 -0.2603
10389TIP3   OH255361   4.806   5.274  12.021  0.8171  0.2082  0.2261
10389TIP3    H155362   4.788   5.201  11.961 -0.5171  1.0581 -0.4528
10389TIP3    H255363   4.750   5.258  12.097 -0.2701  1.0217 -0.3683
10390TIP3   OH255364   0.024   4.152  11.511  0.8112  1.0095 -0.4304
10390TIP3    H155365  -0.038   4.184  11.578  1.1173  1.4261 -0.3395
10390TIP3    H255366   0.067   4.077  11.552 -1.6387 -1.1495 -1.5145
10391TIP3   OH255367   1.764   7.407  11.417 -0.5658  0.4989  0.5783
10391TIP3    H155368   1.689   7.395  11.359  0.0222  0.4211 -0.1918
10391TIP3    H255369   1.743   7.485  11.468 -1.5406 -0.0127  0.9831
10392TIP3   OH255370   2.868   1.040  11.491  0.2260  0.2637 -0.1121
10392TIP3    H155371   2.879   1.096  11.567  0.0280  0.4569 -0.2219
10392TIP3    H255372   2.954   1.038  11.449  0.9741 -1.6780  1.3390
10393TIP3   OH255373   2.224   5.343  12.567  0.2792  0.0955  0.2338
10393TIP3    H155374   2.246   5.434  12.584 -0.6325  0.0871  1.6956
10393TIP3    H255375   2.270   5.321  12.487 -0.2418  2.1132 -0.6758
10394TIP3   OH255376   2.776   4.161   9.991  0.8783  0.1585  0.2470
10394TIP3    H155377   2.720   4.087   9.967  1.3166 -0.5167  1.2326
10394TIP3    H255378   2.842   4.164   9.922  0.8725 -0.3866  0.2130
10395TIP3   OH255379   0.041   5.510  11.374  0.5424 -0.3573 -0.4768
10395TIP3    H155380   0.048   5.597  11.335 -1.5050  0.3243  0.5620
10395TIP3    H255381   0.105   5.510  11.446 -1.1283  1.2265  1.0888
10396TIP3   OH255382   1.966   1.793  11.362  0.2804 -0.0725  0.5911
10396TIP3    H155383   1.955   1.778  11.268  0.1077 -0.3097  0.6484
10396TIP3    H255384   1.886   1.840  11.388  0.3817  0.0980  0.5990
10397TIP3   OH255385   3.693   6.160  10.634  0.6487 -0.1853  0.3633
10397TIP3    H155386   3.707   6.172  10.540  0.6685 -1.2045  0.2256
10397TIP3    H255387   3.750   6.226  10.675  2.0591 -0.9332 -0.3009
10398TIP3   OH255388   2.592   6.087  12.701  0.0730 -0.3755 -0.4166
10398TIP3    H155389   2.539   6.088  12.780  0.8541  1.7473  0.1369
10398TIP3    H255390   2.544   6.030  12.641 -1.5591 -0.4444  0.8888
10399TIP3   OH255391   7.468   4.515  10.685 -0.1725 -0.5861  0.1522
10399TIP3    H155392   7.388   4.567  10.688 -0.0641 -0.4414  0.8725
10399TIP3    H255393   7.438   4.424  10.682 -0.3690 -0.5219  0.1508
10400TIP3   OH255394   7.329   5.597  11.506 -0.4731 -0.7548 -0.4550
10400TIP3    H155395   7.297   5.569  11.420  0.2557  1.6208 -1.5873
10400TIP3    H255396   7.353   5.689  11.494 -0.6098 -0.2492  2.3868
10401TIP3   OH255397   1.515   4.679  11.513 -0.2504  0.2411  0.2686
10401TIP3    H155398   1.507   4.772  11.536 -1.0843  0.0644  0.7560
10401TIP3    H255399   1.607   4.667  11.490 -0.1132  1.1658  0.3075
10402TIP3   OH255400   5.984   0.408  11.094  0.1698 -0.3725 -0.1904
10402TIP3    H155401   6.053   0.414  11.160 -2.1443  0.7998  2.3239
10402TIP3    H255402   5.964   0.315  11.087  1.3056 -0.6213 -0.1878
10403TIP3   OH255403   2.478   2.289  11.597 -0.2573  0.1211  0.2706
10403TIP3    H155404   2.446   2.198  11.598  0.0415  0.0025 -0.6414
10403TIP3    H255405   2.487   2.310  11.505 -1.5164  1.5095  0.4258
10404TIP3   OH255406   0.648   6.733  10.271 -0.3509 -0.1272 -0.0289
10404TIP3    H155407   0.663   6.656  10.216  0.0844 -0.0143 -0.0717
10404TIP3    H255408   0.700   6.716  10.350 -1.1632 -0.4037  0.4663
10405TIP3   OH255409   0.356   2.767  11.459 -0.3613 -0.3061 -0.1931
10405TIP3    H155410   0.427   2.832  11.466 -0.3340 -0.2857 -0.6400
10405TIP3    H255411   0.368   2.728  11.373 -0.9658 -0.2201 -0.3212
10406TIP3   OH255412   6.649   4.754  11.283  0.1101  0.9202 -0.1754
10406TIP3    H155413   6.578   4.806  11.322 -1.3213 -1.3672  0.4663
10406TIP3    H255414   6.694   4.715  11.357 -0.0328 -0.2232 -0.6730
10407TIP3   OH255415   2.177   2.346  12.455 -0.4412 -0.6945  0.8819
10407TIP3    H155416   2.148   2.265  12.497  0.3164 -0.6933  1.4278
10407TIP3    H255417   2.098   2.383  12.417 -0.6005 -2.3700 -0.5685
10408TIP3   OH255418   6.339   3.102  10.292 -0.2314  0.3340 -0.0558
10408TIP3    H155419   6.410   3.055  10.247  0.3583  1.3671 -0.2235
10408TIP3    H255420   6.307   3.165  10.228  0.8770  2.0853  1.0404
10409TIP3   OH255421   6.808   3.468  11.812 -0.2946 -0.3012  0.0024
10409TIP3    H155422   6.834   3.545  11.862 -1.4615  0.8358 -1.0663
10409TIP3    H255423   6.862   3.397  11.847  1.0968  1.0640  0.7438
10410TIP3   OH255424   5.001   4.877  10.889 -0.1303 -0.2382 -0.6516
10410TIP3    H155425   5.038   4.821  10.957  0.1237  0.8215  0.1140
10410TIP3    H255426   4.947   4.939  10.937  2.6339  2.6698 -0.9593
10411TIP3   OH255427   0.521   0.596  12.632  0.7216  0.0393 -0.2067
10411TIP3    H155428   0.592   0.550  12.676  0.9532 -0.2225 -0.8459
10411TIP3    H255429   0.555   0.684  12.616  0.7555  0.0337 -0.1653
10412TIP3   OH255430   1.146   4.227  10.511 -0.0584 -0.1450 -0.1736
10412TIP3    H155431   1.165   4.146  10.558  0.6683  0.8580  1.3492
10412TIP3    H255432   1.194   4.294  10.559 -0.3763  1.1504 -1.5887
10413TIP3   OH255433   5.073   3.056  10.865  0.0992 -0.1152 -1.1529
10413TIP3    H155434   5.060   2.979  10.920  1.2927 -0.0856 -0.8019
10413TIP3    H255435   5.089   3.022  10.777  1.3648 -0.3113 -0.8549
10414TIP3   OH255436   1.923   2.081  10.454 -0.1204  0.3423  0.5207
10414TIP3    H155437   1.953   2.171  10.447 -2.9589  1.2795 -1.3642
10414TIP3    H255438   1.966   2.036  10.381 -0.2832  0.6768  0.2175
10415TIP3   OH255439   6.910   2.570  11.168  0.1251 -0.3870  1.4081
10415TIP3    H155440   6.825   2.562  11.213 -0.1051  0.5672  1.1701
10415TIP3    H255441   6.950   2.484  11.177 -1.9117 -1.6856 -0.5603
10416TIP3   OH255442   5.136   1.164  10.633 -0.0022 -0.1834 -0.2545
10416TIP3    H155443   5.062   1.148  10.691 -0.9216  0.7250 -1.1469
10416TIP3    H255444   5.112   1.122  10.550  0.2096  0.6221 -0.7353
10417TIP3   OH255445   3.610   1.085  12.173 -0.0966  0.3906  0.4551
10417TIP3    H155446   3.543   1.037  12.125  0.9475 -1.6750  0.9583
10417TIP3    H255447   3.561   1.139  12.235 -1.3263 -0.2554  0.0723
10418TIP3   OH255448   5.748   4.714  10.608  0.2383  0.1355  0.7482
10418TIP3    H155449   5.699   4.762  10.542  0.7287  1.3020  1.2082
10418TIP3    H255450   5.799   4.649  10.559  1.2736  1.5564 -0.1281
10419TIP3   OH255451   6.528   1.731  10.149 -0.5483 -0.1456 -0.6335
10419TIP3    H155452   6.563   1.662  10.205 -0.6502 -1.4265 -2.0639
10419TIP3    H255453   6.511   1.804  10.208  1.2615 -0.6919  0.6550
10420TIP3   OH255454   6.919   2.171  11.565 -0.0888 -0.0860  0.0041
10420TIP3    H155455   7.001   2.156  11.517 -0.8137  0.4272 -1.4723
10420TIP3    H255456   6.901   2.088  11.608  1.2201 -0.1974  0.3941
10421TIP3   OH255457   7.094   0.782  10.101  0.0740  0.6294 -0.2745
10421TIP3    H155458   7.174   0.818  10.141  0.3694  1.0635 -1.2381
10421TIP3    H255459   7.042   0.858  10.077 -0.0408  0.3816 -0.8320
10422TIP3   OH255460   7.111   4.338  10.754 -0.2072  0.0768  0.6213
10422TIP3    H155461   7.021   4.305  10.752  0.1547 -0.9983 -2.0530
10422TIP3    H255462   7.106   4.416  10.808 -2.3782 -0.9114  2.0100
10423TIP3   OH255463   3.498   4.198   9.492 -0.4649  0.1355 -0.0524
10423TIP3    H155464   3.436   4.136   9.531  0.9166 -1.8131 -0.7955
10423TIP3    H255465   3.554   4.226   9.564  1.1808 -2.3565 -0.2476
10424TIP3   OH255466   4.601   1.350   9.771 -0.1133 -0.0671  0.2079
10424TIP3    H155467   4.627   1.342   9.862  2.3601 -0.5622 -0.4805
10424TIP3    H255468   4.563   1.438   9.765  1.3187  0.6700  1.3649
10425TIP3   OH255469   0.811   5.597  11.694  0.2718 -0.0746 -0.2974
10425TIP3    H155470   0.807   5.624  11.786  1.8097 -0.5011 -0.0684
10425TIP3    H255471   0.779   5.507  11.693 -1.2170  0.4415 -0.4430
10426TIP3   OH255472   0.920   7.449  11.229 -0.0628  0.1482 -0.0964
10426TIP3    H155473   0.952   7.499  11.304 -1.1781  1.2779 -0.3355
10426TIP3    H255474   0.927   7.511  11.156 -0.1377 -0.5358 -0.6854
10427TIP3   OH255475   3.717   1.638  11.033  0.4994 -0.0127  0.5731
10427TIP3    H155476   3.665   1.598  10.963 -1.5089  1.7935  0.9430
10427TIP3    H255477   3.696   1.585  11.110  1.1047 -0.7401  0.2521
10428TIP3   OH255478   5.577   0.251  11.861 -0.6271 -0.5858  0.5439
10428TIP3    H155479   5.535   0.179  11.815 -1.8039  0.9145 -0.8140
10428TIP3    H255480   5.515   0.275  11.930 -0.2272 -0.8755  1.0087
10429TIP3   OH255481   1.456   4.889  10.212 -0.0308  0.7026 -0.7178
10429TIP3    H155482   1.475   4.908  10.121  0.2318 -2.4418 -1.4400
10429TIP3    H255483   1.361   4.898  10.219 -0.2108 -0.2977 -1.6700
10430TIP3   OH255484   3.944   5.425  11.814  0.2154 -0.1371  0.1432
10430TIP3    H155485   3.936   5.431  11.909  0.4380  2.6812  0.0557
10430TIP3    H255486   3.854   5.434  11.782  0.0573 -1.7425  0.0593
10431TIP3   OH255487   1.406   2.313  11.459 -0.2044  0.1389 -0.4870
10431TIP3    H155488   1.321   2.336  11.423 -0.1302  1.2195 -0.0089
10431TIP3    H255489   1.426   2.383  11.521 -0.8431 -2.1599  2.5954
10432TIP3   OH255490   1.887   1.294  10.691  0.0082  0.1437 -0.0721
10432TIP3    H155491   1.964   1.314  10.745 -1.2323  1.5757  1.2362
10432TIP3    H255492   1.840   1.227  10.740 -0.2892  0.2686 -0.1837
10433TIP3   OH255493   0.435   7.459  10.990  0.7621  0.4513  0.3635
10433TIP3    H155494   0.503   7.428  10.931  1.0708 -0.1588  1.0130
10433TIP3    H255495   0.467   7.436  11.078  0.4146  1.5180  0.7843
10434TIP3   OH255496   7.360   4.748  11.524 -0.2912  0.4251 -0.0227
10434TIP3    H155497   7.348   4.656  11.502  2.2817 -0.1035  0.3864
10434TIP3    H255498   7.363   4.793  11.440 -1.2492  0.1045 -0.2365
10435TIP3   OH255499   4.160   3.738  12.084  0.4027  0.2286 -0.2770
10435TIP3    H155500   4.165   3.768  12.175  1.5007 -1.6986  0.3598
10435TIP3    H255501   4.177   3.643  12.089 -0.7660 -0.1532 -2.3643
10436TIP3   OH255502   6.910   6.323  12.309 -0.4429  0.2215 -0.0466
10436TIP3    H155503   7.001   6.294  12.298 -0.5557  0.0636 -0.5929
10436TIP3    H255504   6.900   6.335  12.403 -0.0540 -0.4124  0.0809
10437TIP3   OH255505   6.645   5.359  10.640  0.2412  0.2535 -0.3531
10437TIP3    H155506   6.588   5.301  10.588 -0.5100 -0.2165  0.9611
10437TIP3    H255507   6.708   5.300  10.681 -1.7634 -0.0139  2.6314
10438TIP3   OH255508   0.842   0.509  10.082  0.0002 -0.5793  0.5595
10438TIP3    H155509   0.750   0.488  10.068  0.0108 -0.9604  1.0328
10438TIP3    H255510   0.847   0.532  10.175  0.1237  0.8405  0.2232
10439TIP3   OH255511   6.594   5.500  10.866 -0.0823 -0.1442 -0.4947
10439TIP3    H155512   6.618   5.450  10.788  0.3222 -0.9469  0.1166
10439TIP3    H255513   6.585   5.433  10.934  1.5047  0.6900  0.6064
   7.68049   7.68049  30.00000
